LAMMPS data file via write_data, version 2 Aug 2023, timestep = 80000, units = metal

1536 atoms
3 atom types

-0.1910654789785724 25.121677723876644 xlo xhi
-0.1521900741193285 25.082802319017375 ylo yhi
-1.2221538550807836 76.01399058977464 zlo zhi

Masses

1 35.44999999088069
2 39.09829998994218
3 6.939999998214724

Atoms # full

6 0 1 -1 2.731413882379168 2.1347379243212923 -0.2329803866946939 0 0 0
391 0 1 -1 6.447617442968513 0.08514410713233847 -0.2797528582707238 0 0 0
386 0 3 1 6.929347160345394 2.349513930162399 0.6811570005464074 0 0 0
390 0 1 -1 9.460592753813549 2.429308398636051 0.17539872014885427 0 0 0
770 0 2 1 12.638181904412578 2.183346484851265 -0.33289832926042606 0 0 0
774 0 1 -1 15.74956643094635 2.2880441924137025 -0.25468862193169295 0 0 0
1154 0 2 1 18.71554930597525 2.4961494581902124 -0.01994192701639852 0 0 0
2 0 2 1 24.99166592716993 2.1690174062776615 -0.38426734008886254 -1 0 0
1158 0 1 -1 21.98253845767184 2.4690577162184573 -0.17450937900115937 0 0 0
103 0 1 -1 -0.09075811680182895 5.491479313669916 -0.3202935242695897 0 0 0
99 0 2 1 3.3206447896468028 5.217147374352065 -0.1443897664574869 0 0 0
487 0 1 -1 6.415422813127544 4.6847451062084104 0.10356254394203823 0 0 0
483 0 2 1 9.29953230927417 5.671909025723729 -0.22487404469016004 0 0 0
871 0 1 -1 12.433368130248185 5.478654896891732 -0.29848136652139845 0 0 0
867 0 2 1 15.710344032050974 5.471662866967555 -0.21582559894942333 0 0 0
1255 0 1 -1 18.896801575975278 5.523654650916273 -0.22859645328135503 0 0 0
1251 0 2 1 22.003898289881008 5.854531104009537 -0.015422967684132205 0 0 0
102 0 1 -1 3.0366571182722404 8.48629268961585 0.17301819698428456 0 0 0
486 0 1 -1 9.104885040543504 8.84573869249861 -0.2160674143240442 0 0 0
482 0 3 1 6.917823137399112 9.517328353560814 -0.9500050169406524 0 0 0
866 0 2 1 12.571798493701149 8.626321619496506 -0.271841138279836 0 0 0
870 0 1 -1 15.567571423658817 8.627903618088597 -0.44555017359478444 0 0 0
1250 0 2 1 18.71562025903694 8.669450926984055 -0.1902625786056389 0 0 0
1254 0 1 -1 21.989393674354517 8.820275042493058 -0.7341741859802238 0 0 0
98 0 2 1 25.091125726781378 8.719101088832236 0.010053313582043533 -1 0 0
195 0 2 1 2.878327020535423 11.936690683755478 -0.23724189568176535 0 0 0
583 0 1 -1 6.197885326335676 11.697349932365368 -0.44063990016021215 0 0 0
579 0 2 1 9.666076809873049 11.949807967022803 -0.3547600822054374 0 0 0
967 0 1 -1 12.641826049652884 11.88500233318579 -0.07692143682372676 0 0 0
963 0 2 1 15.850273241350944 11.771936802198017 -0.28813592835521773 0 0 0
1351 0 1 -1 18.893252390543083 12.044483139111975 0.05127032987282032 0 0 0
1347 0 2 1 21.937941825091773 11.730554197664194 -0.32502409113009134 0 0 0
199 0 1 -1 25.022127061000013 11.861243202301834 -0.18723008356193827 -1 0 0
198 0 1 -1 3.1442945241720595 15.004751420563844 -0.545271386334799 0 0 0
578 0 2 1 6.399559167359529 15.015252087315405 -0.46340476104860584 0 0 0
582 0 1 -1 9.56942966677842 15.143686737117067 -0.30060228816677237 0 0 0
962 0 2 1 12.714422961637885 15.211858972398314 -0.1649022938830913 0 0 0
966 0 1 -1 16.139171190882763 14.96852281508299 -0.20648613314958886 0 0 0
1346 0 3 1 18.35895391939578 14.449423720547783 0.6666989469201703 0 0 0
1350 0 1 -1 21.80687785555889 15.162590675859866 -0.29394576721925014 0 0 0
194 0 2 1 25.073850713227962 14.937212397797662 -0.42455328159990935 -1 0 0
295 0 1 -1 0.03688846675500759 18.117973773877207 -0.36755444648069224 0 0 0
291 0 2 1 3.3763954257621536 18.014285742498476 -0.2108373611170038 0 0 0
679 0 1 -1 6.486896503592951 18.103348761480238 -0.5170709890262974 0 0 0
675 0 2 1 9.510683272358438 18.286819566042077 -0.31361743187448843 0 0 0
1063 0 1 -1 12.688111644494805 18.108951132084204 -0.39135133168417613 0 0 0
1059 0 2 1 15.98553137160846 17.985659568108645 -0.2704144139917031 0 0 0
1443 0 3 1 21.4135280289894 17.41542891159496 -0.1726662701220183 0 0 0
1447 0 1 -1 19.238361489694466 18.23739725961574 -0.39697541989600515 0 0 0
1453 0 1 -1 21.86993982974496 18.17165780755536 2.1928030529629914 0 0 0
297 0 3 1 24.38280837063259 18.262172522028376 1.891256465403588 -1 0 0
294 0 1 -1 2.8698685720290897 21.016414207213135 -0.350240200448095 0 0 0
674 0 3 1 6.771726845520967 20.580074221669275 -0.17398467811012797 0 0 0
678 0 1 -1 9.22740987553562 21.356025828982435 -0.07832076550839395 0 0 0
1058 0 2 1 12.610091896306248 20.998969406344305 -0.16035496540233707 0 0 0
1062 0 1 -1 15.829982563341673 21.171485185677327 -0.549350746813376 0 0 0
1442 0 2 1 18.88114991187135 21.308308024750158 -0.49248832831692724 0 0 0
1446 0 1 -1 22.096801579474732 21.66077204224338 -0.3788594946619688 0 0 0
290 0 2 1 -0.1799350976653921 21.127554986767716 -0.5875264455903748 0 0 0
3 0 2 1 3.217039182951422 24.429512385792666 -0.273467875439968 0 -1 0
387 0 2 1 9.34065952596563 24.606017225505283 -0.18028756196998308 0 -1 0
775 0 1 -1 12.507139194497976 24.391836559565206 -0.1494960850766296 0 -1 0
771 0 2 1 15.58984978804451 24.36400506784359 -0.32241164807903455 0 -1 0
1159 0 1 -1 18.729724953221687 24.32015791629488 0.469376369924696 0 -1 0
1155 0 2 1 22.230540594782248 24.608554572078404 -0.15909181448506793 0 -1 0
7 0 1 -1 0.027851711766660736 24.31167597550151 -0.20695282875457255 0 -1 0
16 0 1 -1 25.080197086327946 2.3284173680286586 2.7703567780601808 -1 0 0
12 0 2 1 3.1258602893240015 2.1873387790588232 2.7980475794384807 0 0 0
400 0 1 -1 6.268478954636131 2.235673937570281 2.9073816725240986 0 0 0
396 0 3 1 9.998909839252818 2.9567069133517334 2.4315416348112193 0 0 0
784 0 1 -1 12.36639816340445 2.2814568117667613 2.8031939273201685 0 0 0
780 0 2 1 15.562151633581802 2.3297103648203756 2.9562432969466226 0 0 0
1168 0 1 -1 18.547126231021682 3.0592894693739368 2.895560063011618 0 0 0
1164 0 2 1 21.811466791066326 2.438004247262632 2.897688885634465 0 0 0
105 0 2 1 -0.09048965974207862 5.364680502304199 2.9809669886723027 0 0 0
109 0 1 -1 3.2921768126478135 5.5793029618102095 3.047000233985494 0 0 0
489 0 2 1 6.546635910774145 5.325430774543618 3.2890877265652456 0 0 0
493 0 1 -1 9.48453639676831 5.245837356889514 2.7681467840070915 0 0 0
873 0 2 1 12.496189403957 5.28897093637282 3.3892472630318293 0 0 0
877 0 1 -1 15.64282253289239 5.517721121549565 3.1113284350474473 0 0 0
1257 0 3 1 17.98500565240455 5.301010221471977 3.351968182098248 0 0 0
1261 0 1 -1 22.247049105157988 5.465391645742375 2.9827154822969435 0 0 0
108 0 3 1 3.8264900842022307 7.8331304049392285 2.4035636211153513 0 0 0
496 0 1 -1 6.0389558303052695 8.56041009000529 2.8178078609644492 0 0 0
492 0 2 1 9.042714018631221 8.733262274811166 2.9314057543385186 0 0 0
880 0 1 -1 12.1251367370601 8.61658392612911 2.8356971169352123 0 0 0
876 0 2 1 15.393805058776705 8.652167012098419 2.9628978598195372 0 0 0
1264 0 1 -1 18.717925935916142 9.06030774085369 2.8267199446199758 0 0 0
1260 0 2 1 21.590725034109354 8.679230329466627 3.0058145198870045 0 0 0
112 0 1 -1 25.001296840049974 8.62708411715024 3.2040412756463796 -1 0 0
205 0 1 -1 2.745287645615224 11.839721255330343 2.8598813644904917 0 0 0
201 0 2 1 25.022898136532934 11.7566018995264 3.1033146676490064 -1 0 0
585 0 2 1 5.951440496358011 11.78306717873303 2.841795600696263 0 0 0
589 0 1 -1 9.452116520554288 11.893000877225171 2.796074379174124 0 0 0
969 0 3 1 11.776343110875679 11.108206585869 2.9307698519939356 0 0 0
973 0 1 -1 15.704865025539007 11.780565038667525 2.915322563866379 0 0 0
1353 0 2 1 18.67985447011369 12.021871545761767 3.2048451122234454 0 0 0
1357 0 1 -1 21.795728855135703 11.993035931810953 2.890418033982437 0 0 0
204 0 2 1 2.8444919863851315 15.079659805034984 2.676902743351293 0 0 0
592 0 1 -1 5.989001139541936 14.991200154918076 2.7944092545887687 0 0 0
588 0 2 1 9.352386884781794 15.105598738192883 2.9148603286127273 0 0 0
976 0 1 -1 12.378034496784458 15.79644796711875 2.853212546289779 0 0 0
972 0 2 1 15.408853747046237 14.93541104765023 2.9270200923591077 0 0 0
1360 0 1 -1 18.637564247041794 15.17325226644651 2.859636533746424 0 0 0
1356 0 2 1 21.81509772883314 15.185448980430143 2.9936788571484616 0 0 0
301 0 1 -1 3.70705475374937 17.861321406639068 3.0288264494501647 0 0 0
586 0 3 1 5.122705498980535 16.48665224988712 4.473563496493202 0 0 0
685 0 1 -1 9.461903068030225 18.41910168726128 3.569464303692402 0 0 0
1065 0 3 1 11.962907036858578 17.885273020282323 3.658650314626093 0 0 0
1069 0 1 -1 15.852920102591472 18.11291285669878 2.8940788714259904 0 0 0
1449 0 2 1 18.946406373435437 18.358031400484407 2.7766032873353153 0 0 0
208 0 1 -1 24.989793814810444 16.009647132467425 2.786597169790057 -1 0 0
300 0 2 1 2.7568539454821845 20.878149783194637 2.5760876972703266 0 0 0
688 0 1 -1 5.881892047913811 20.756050597990292 2.424510427604881 0 0 0
681 0 3 1 5.241837971772817 19.456553957515652 4.264347154165411 0 0 0
684 0 2 1 9.160049032804656 21.247747388770044 2.9588084901795453 0 0 0
1072 0 1 -1 12.374339738068365 21.250962975627996 2.9116489122612617 0 0 0
1068 0 2 1 15.501423610255777 21.03985946059565 2.973411388189948 0 0 0
1456 0 1 -1 18.699803238595898 21.528464705096923 3.0018353611766067 0 0 0
304 0 1 -1 24.990261088661185 20.915238088342548 2.681726346882872 -1 0 0
1452 0 2 1 21.615435062250707 21.31749930542801 2.5618569939509057 0 0 0
9 0 2 1 -0.07802522404913283 24.290746896852653 2.8382588452366875 0 -1 0
13 0 1 -1 3.0216668821073673 24.087943084871682 2.7483501071408245 0 -1 0
393 0 2 1 6.134773470798323 24.15361484574465 2.740057585793561 0 -1 0
397 0 1 -1 9.200060116719182 24.34586178288387 3.1180243311282654 0 -1 0
777 0 2 1 12.27680152437596 24.251784892371738 3.234544201508771 0 -1 0
781 0 1 -1 15.730235966013844 24.369286523851326 3.0328265420083387 0 -1 0
1161 0 3 1 18.151710145511235 23.919086369477597 2.8919434142057803 0 -1 0
1165 0 1 -1 21.950850381302253 24.531564517216246 3.09963913537843 0 -1 0
10 0 2 1 -0.07755806787797231 2.0703052031251126 6.038852567112732 0 0 0
14 0 1 -1 3.0920648988310333 2.186000265025088 6.342788597327716 0 0 0
394 0 2 1 6.249883789678883 2.169602866385166 6.035593353844028 0 0 0
398 0 1 -1 9.260441951806172 2.410815832997932 7.1637294404408305 0 0 0
778 0 3 1 11.599578005926931 2.9348616187286236 7.03008972448937 0 0 0
782 0 1 -1 15.680609460602415 2.3672881634800915 6.043056391119133 0 0 0
1162 0 2 1 18.991195198345643 2.426682951195967 6.0621552791608835 0 0 0
1166 0 1 -1 22.29867575861037 2.3744082141498093 6.1681595534246245 0 0 0
111 0 1 -1 -0.15260693335959988 5.891690857911702 6.058750896032211 0 0 0
107 0 2 1 3.011328485206517 5.42804081907749 6.209229317096075 0 0 0
495 0 1 -1 6.235014907156895 5.484643309660154 6.424226853238986 0 0 0
491 0 3 1 7.589677778486225 4.130143900206777 8.098956867266159 0 0 0
879 0 1 -1 12.384014712532814 5.053889855306775 6.643917341413507 0 0 0
875 0 2 1 15.599214071256476 5.498700627455356 6.4991332126036685 0 0 0
1263 0 1 -1 18.648805903613304 5.647782520791679 5.523702931688717 0 0 0
1259 0 2 1 21.78467390734094 5.6491269554461505 5.870280756627246 0 0 0
106 0 3 1 0.48874609231875976 8.104070278186633 5.215837517524873 0 0 0
110 0 1 -1 2.574103010254582 8.66117278283681 6.088320317075882 0 0 0
490 0 2 1 5.6498456852942756 8.488802573321028 5.797075026299512 0 0 0
494 0 1 -1 8.681942980134973 8.506755635848963 6.272241915078698 0 0 0
497 0 3 1 7.672586698025578 7.2071961505514475 7.997536722937172 0 0 0
874 0 2 1 11.873444988001326 8.626711903146202 6.4554192273974556 0 0 0
878 0 1 -1 15.27567614224747 8.57883568048407 6.1516299178615705 0 0 0
1258 0 2 1 18.55240613840097 8.709347688934843 6.057138979665118 0 0 0
1262 0 1 -1 21.642277475429236 8.588116846470182 6.006639933338623 0 0 0
207 0 1 -1 25.1053654840858 12.010186122706596 6.288383735705426 -1 0 0
203 0 2 1 2.8575132602464612 11.90910177493726 5.908285945419923 0 0 0
591 0 1 -1 5.874160023719927 11.60795997065803 5.786045235269339 0 0 0
587 0 2 1 9.230309944436756 11.869253693777933 5.955194569072287 0 0 0
975 0 1 -1 12.240583502151933 11.545566171789456 5.220128374832671 0 0 0
971 0 2 1 15.380786385249289 11.784298594393677 5.949001658910113 0 0 0
1359 0 1 -1 18.61751287134211 11.866858422923038 6.247196181088924 0 0 0
1355 0 2 1 21.912336506257834 11.798557920076615 6.283875373909999 0 0 0
206 0 1 -1 3.1117090911303413 15.363032755213178 5.722835719870331 0 0 0
590 0 1 -1 9.281631170412275 15.095949512999304 6.115458383987751 0 0 0
970 0 2 1 12.333485127713251 15.086694574175516 5.8746735992118255 0 0 0
974 0 1 -1 15.464512444816792 15.016597389782135 6.06911933883766 0 0 0
1354 0 2 1 18.786775838701782 15.101624380508966 6.044990936328059 0 0 0
1358 0 1 -1 21.98024448024317 14.92185828794566 6.054582210420025 0 0 0
202 0 2 1 0.05418936971661131 15.142752023393511 5.698622529925925 0 0 0
299 0 3 1 2.7097467867534646 17.528025878941673 6.532953567130995 0 0 0
303 0 1 -1 0.3949395287540104 18.025446794311137 6.785432961210892 0 0 0
687 0 1 -1 6.509120554684723 17.771124794909817 5.89803077101859 0 0 0
683 0 3 1 8.783316836913412 17.516721826118385 5.640221254635718 0 0 0
1071 0 1 -1 12.502439156556173 17.971724617593914 6.02123212359327 0 0 0
1067 0 2 1 15.676369355557547 18.155811507888235 6.33091904296639 0 0 0
1455 0 1 -1 18.639342732030563 18.25381281508252 5.868635199874076 0 0 0
302 0 1 -1 4.019416708128711 20.995615999032886 5.825554745842128 0 0 0
686 0 1 -1 8.664785680065714 21.221438174895617 6.138661528802155 0 0 0
1066 0 2 1 12.112644207228941 21.37736555129085 6.045440326915724 0 0 0
1070 0 1 -1 15.43996956294483 21.306929032734704 6.064863067662032 0 0 0
1450 0 2 1 18.46219577229336 21.47176248031797 6.199674632310023 0 0 0
1451 0 3 1 20.35229169267606 19.098420487915995 7.355258754883298 0 0 0
1454 0 1 -1 21.50019345810119 20.951502105004685 6.333385206523284 0 0 0
298 0 2 1 24.38304658833188 20.593785693227805 5.8830089939004875 -1 0 0
15 0 1 -1 24.945030266558092 24.023325582131793 6.158540058928797 -1 -1 0
11 0 2 1 2.984529010742054 24.30567606858141 5.981798302842156 0 -1 0
399 0 1 -1 6.0906811374337355 24.26766933070375 6.1580131544193115 0 -1 0
682 0 3 1 6.212672772670321 21.820307014084232 6.647238866245125 0 0 0
395 0 2 1 9.307147381107615 24.62312863258878 6.247478338862562 0 -1 0
783 0 1 -1 12.337234227566208 24.355920029004515 6.412834209773632 0 -1 0
779 0 2 1 15.52693202499351 24.615367030264256 5.9871460103127685 0 -1 0
1167 0 1 -1 18.661990932619876 24.45742666936361 5.679882372303287 0 -1 0
1163 0 2 1 21.852341615651188 24.577545702862817 6.107607658789452 0 -1 0
20 0 2 1 3.066895392525161 2.734571236038458 9.237175846742245 0 0 0
408 0 1 -1 6.001144276738808 2.7940148483914404 9.199805043991425 0 0 0
404 0 3 1 9.909016275565811 1.6548125444414274 9.575452840620967 0 0 0
792 0 1 -1 12.255636527198657 2.0805165679607556 9.268654407323654 0 0 0
788 0 2 1 15.656026342829575 2.3284498627898778 9.249805989365045 0 0 0
1176 0 1 -1 18.769016629496555 2.129639309902099 9.149771438047356 0 0 0
1172 0 2 1 21.70243266428027 2.663232298295464 9.138000298191557 0 0 0
24 0 1 -1 -0.023643962806542462 2.5075912260713187 9.165403447193423 0 0 0
117 0 1 -1 2.5657751595767824 5.527898975575188 9.285748339330226 0 0 0
501 0 1 -1 8.926990734855956 5.803442155461515 9.23323152662171 0 0 0
881 0 2 1 12.221715433769875 5.264713820457491 9.794879627096504 0 0 0
885 0 1 -1 15.314180829284904 5.448981117366007 9.757740132955286 0 0 0
1269 0 1 -1 21.663393825743565 5.727183017722775 9.222718283783758 0 0 0
113 0 2 1 24.852332128867324 5.647702183011589 9.21106992775408 -1 0 0
116 0 2 1 2.473896228678691 8.630654804549383 9.268811248530827 0 0 0
504 0 1 -1 5.856479368102955 8.533942131761782 9.167644018402516 0 0 0
888 0 1 -1 12.229468418105382 8.400139673975653 9.614331648691234 0 0 0
500 0 3 1 10.195578978072533 9.39717951727993 10.166741057675122 0 0 0
884 0 2 1 15.667205469049579 8.623199176014518 9.374686289924913 0 0 0
1272 0 1 -1 18.87456799623728 8.631285050993606 9.093257862282904 0 0 0
1265 0 3 1 19.578094828764968 7.101480456686392 10.650586106493627 0 0 0
120 0 1 -1 24.839687238779792 8.656256974205736 10.255345334694214 -1 0 0
1268 0 2 1 22.063853133608685 8.742381741045753 9.044854960296256 0 0 0
213 0 1 -1 2.881796574488825 11.686711559356125 9.204648555456163 0 0 0
593 0 2 1 6.028526097197066 11.809367471776365 8.845147584752942 0 0 0
597 0 1 -1 10.006135549483824 11.716895249829719 9.148087845280239 0 0 0
977 0 3 1 12.636737833691058 12.325944290493409 9.917418256588833 0 0 0
981 0 1 -1 15.12914660720513 11.65543395913212 9.24508583667662 0 0 0
1361 0 2 1 18.730868982634757 11.651148875292487 9.337240888874932 0 0 0
209 0 2 1 25.112923464351077 11.729695082613695 9.41610957693956 -1 0 0
1365 0 1 -1 21.94046919575136 11.906897403326502 9.61537215718738 0 0 0
216 0 1 -1 -0.012343495330595089 15.06475469570924 9.050450150848029 0 0 0
212 0 2 1 3.0746610903591636 14.791677111481224 9.102486223138587 0 0 0
600 0 1 -1 6.089247910762459 14.885854344411934 9.421432264952408 0 0 0
596 0 2 1 9.281299295001546 14.885542422289518 9.190317831616943 0 0 0
984 0 1 -1 12.79139908300381 14.582261172311929 9.38368504442002 0 0 0
980 0 2 1 15.622994217622164 14.914310363269566 9.11978039038169 0 0 0
1368 0 1 -1 18.72075318920722 14.682128550292711 9.061354258162341 0 0 0
1364 0 2 1 21.84986641065592 15.138731627522036 9.051348504401624 0 0 0
305 0 3 1 0.5953462317676592 17.364100628814114 9.130787344399879 0 0 0
309 0 1 -1 2.908119167541539 18.04288415704994 9.03286791402637 0 0 0
689 0 2 1 6.232449404371019 17.972273040731064 9.094430931206787 0 0 0
693 0 1 -1 9.384131581777659 18.042771759149655 9.387065524293758 0 0 0
1073 0 2 1 12.449244752860514 17.960733807611035 9.07009368825234 0 0 0
1077 0 1 -1 15.914060475992535 18.069532943444592 9.33661974861512 0 0 0
1457 0 3 1 18.537230768619256 18.39942053080607 9.980882944483891 0 0 0
1461 0 1 -1 20.95812341016804 18.122638002220008 9.33146296108291 0 0 0
311 0 1 -1 25.10993750747982 18.013072719657757 11.541937640490735 -1 0 0
308 0 2 1 2.7840599892465314 21.221146865581957 8.90896069743657 0 0 0
696 0 1 -1 6.0469706633014 21.482363199409974 9.289255525482153 0 0 0
692 0 2 1 9.172866411715269 21.359633360578524 9.319315273323712 0 0 0
1080 0 1 -1 12.333735776316992 20.98724009829885 9.207571632470792 0 0 0
1076 0 2 1 15.357351406149986 21.326354419515162 9.122310910846046 0 0 0
1464 0 1 -1 18.465045361754598 20.930252953039073 9.294536549822203 0 0 0
306 0 3 1 -0.08702921206895393 20.40537348088835 10.936200104730657 0 0 0
312 0 1 -1 24.873643628292477 21.23778503694396 8.893946647807743 -1 0 0
1460 0 3 1 22.622214016944326 21.877808395136014 9.582515089223412 0 0 0
21 0 1 -1 2.9728210805388957 24.605702550840764 9.372377671043507 0 -1 0
401 0 2 1 6.052728166401207 24.701333045173797 9.535914524794633 0 -1 0
405 0 1 -1 9.32131680932202 24.439405261147254 9.305861677045089 0 -1 0
785 0 2 1 12.705135748778401 24.284590326148706 9.571947526301306 0 -1 0
789 0 1 -1 15.659923553396977 24.312933976495536 9.235805267541087 0 -1 0
1169 0 2 1 18.74088573431569 24.1930258805961 9.03387018650842 0 -1 0
17 0 2 1 25.11062868105016 24.57025908827062 9.180975615202486 -1 -1 0
1173 0 1 -1 21.902605415116714 24.021538966210798 9.208322262121827 0 -1 0
22 0 1 -1 3.049930420070854 2.3708875662738174 12.641530390866418 0 0 0
402 0 2 1 6.008342430036773 2.539547386095128 12.415339678686335 0 0 0
406 0 1 -1 9.509982310928486 2.3226244883893474 11.879099232016221 0 0 0
786 0 2 1 12.645361627700206 2.3195527265759157 12.596345550665644 0 0 0
790 0 1 -1 15.6780653817258 2.7143274088063936 12.354637297782638 0 0 0
1170 0 2 1 18.717773153673825 2.1591069228076054 12.223835027519723 0 0 0
1174 0 1 -1 21.919092198382074 2.2024584067498627 12.13816298077949 0 0 0
18 0 2 1 -0.172685209939617 2.6162406295287783 12.273926345986654 0 0 0
115 0 2 1 3.1279173040091366 5.501295849642903 12.397716916444578 0 0 0
503 0 1 -1 6.160439777405985 5.577040652070616 12.78578929579643 0 0 0
499 0 2 1 9.206667344009789 5.583609374672323 12.356573710356878 0 0 0
887 0 1 -1 12.159215460306363 5.400935229963944 12.788554610065937 0 0 0
883 0 3 1 16.2683698589987 5.037332658571175 11.725229966356924 0 0 0
1271 0 1 -1 18.59701545354231 5.442941756240531 12.063761016212322 0 0 0
1267 0 2 1 21.818965795902102 5.432925606079656 12.330026896249159 0 0 0
119 0 1 -1 25.08601121607384 5.690913100149515 12.434336734547893 -1 0 0
114 0 3 1 0.15418960463790676 7.984656650692914 12.502002532344914 0 0 0
118 0 1 -1 2.54029552939567 8.660921197281365 12.411926895109163 0 0 0
498 0 2 1 5.976659084761897 8.601279545645893 12.351867997959292 0 0 0
502 0 1 -1 9.383636029895111 8.741986621574643 12.356092373787792 0 0 0
882 0 2 1 12.545593419737267 8.540691371256882 12.528941351921988 0 0 0
886 0 1 -1 16.029523070138683 8.715748886712833 12.455088017795319 0 0 0
1266 0 3 1 18.155968476970948 9.415356269119084 12.9426997615453 0 0 0
1270 0 1 -1 20.921613499798458 8.429935435007522 12.29935301168982 0 0 0
215 0 1 -1 24.88538787455275 12.041487423532894 12.769219106750684 -1 0 0
211 0 2 1 2.934302259065268 11.756279883023435 12.275668641790833 0 0 0
599 0 1 -1 6.08191155596747 11.669346453469604 12.27316467201864 0 0 0
595 0 2 1 9.278031653874637 11.932068379923617 12.510760527956364 0 0 0
983 0 1 -1 12.366380922898776 11.793918517946059 12.402416603835954 0 0 0
979 0 2 1 15.49687136266261 11.900705275273857 12.576776653425783 0 0 0
1367 0 1 -1 18.475432802601368 11.637788302529405 12.559899764240523 0 0 0
1363 0 2 1 21.845756125193827 11.70846399958128 12.563798938443314 0 0 0
214 0 1 -1 2.820449331434717 14.810783606898044 12.182722045983343 0 0 0
594 0 2 1 6.142521650721879 14.747544868116938 12.465686172974978 0 0 0
598 0 1 -1 9.52125359335766 14.801115565582164 12.497407388045955 0 0 0
978 0 2 1 12.344659103775896 14.9777005160567 12.384806204037481 0 0 0
982 0 1 -1 15.284907506151809 14.892377306492632 12.363670889079584 0 0 0
1362 0 2 1 18.621229804116666 14.907249554669892 12.18868068667722 0 0 0
1366 0 1 -1 21.842404613186552 14.98549348865056 12.428166935354817 0 0 0
210 0 2 1 25.021749234934624 15.117573645624923 12.239917084250434 -1 0 0
307 0 2 1 2.9301835347370124 18.145325238752044 12.229542531387668 0 0 0
695 0 1 -1 6.3068020558888325 18.099265995908574 12.32266500959993 0 0 0
691 0 2 1 9.45341569725748 18.179676834063834 12.45696758980754 0 0 0
1079 0 1 -1 12.548621353489215 18.296045716900792 12.407609628239596 0 0 0
1075 0 2 1 15.621741037431383 18.090925369103456 12.726763776886637 0 0 0
1463 0 1 -1 18.578934282544598 18.179936720657434 12.360509002961875 0 0 0
1459 0 2 1 22.105687246668495 18.188682719957697 12.195506105405034 0 0 0
310 0 1 -1 1.948194252215114 21.228503782532826 11.943896179299138 0 0 0
690 0 2 1 6.153107149724311 21.035537544775213 12.594761194256725 0 0 0
694 0 1 -1 9.853536632565172 21.249202250368686 12.439880917468116 0 0 0
1074 0 3 1 12.285230774041489 20.603785495074817 11.524210164936518 0 0 0
1078 0 1 -1 14.572354622394382 21.21900521116469 12.15866857451871 0 0 0
1458 0 2 1 17.940159179984366 21.368918255584397 12.422668653254123 0 0 0
1462 0 1 -1 22.7843395849287 21.393220904557836 11.780532821753711 0 0 0
316 0 3 1 -0.0935907227725335 22.235524745390666 13.143310891129802 0 0 0
19 0 2 1 2.885003255038766 24.42766573364051 12.554469610755639 0 -1 0
407 0 1 -1 6.038716280917856 24.073092474541117 12.442794477074832 0 -1 0
403 0 2 1 9.312108887452752 24.28897357706342 12.63673897264588 0 -1 0
791 0 1 -1 12.34050294812142 24.37710018927056 13.159447325372096 0 -1 0
787 0 3 1 13.395651999811532 22.475380467922136 13.674329156172824 0 -1 0
1175 0 1 -1 18.690144029780704 24.422882686301005 12.181411256488452 0 -1 0
23 0 1 -1 25.05791473885472 24.455977826190757 12.374321166628356 -1 -1 0
1171 0 2 1 21.758094719322898 24.231409901043342 12.505601603008303 0 -1 0
32 0 1 -1 -0.14029549071876182 2.177108997900071 15.683520545761446 0 0 0
28 0 2 1 3.1326166406306646 2.0362855496255547 15.740753925315392 0 0 0
416 0 1 -1 6.017518048211684 2.0034546783092466 15.491446089970253 0 0 0
412 0 2 1 9.152458073358673 2.1068009506086787 15.979234109988923 0 0 0
800 0 1 -1 12.507657524909254 1.9995779710062824 15.832829414394627 0 0 0
794 0 3 1 13.68076949006711 0.8643910653199716 17.44927928138114 0 0 0
796 0 2 1 15.69017457836152 2.122025234305884 15.368999651192539 0 0 0
1184 0 1 -1 18.807029798907532 2.3416579015123795 15.620514651008452 0 0 0
1180 0 2 1 22.018639381821917 2.0354150100704205 15.23671676152949 0 0 0
125 0 1 -1 3.217483762740203 5.415248402954003 15.592262119242527 0 0 0
505 0 2 1 6.308151798451366 5.123630032070703 15.914369909667265 0 0 0
509 0 1 -1 9.30454797964679 5.368574506677061 15.733466558649596 0 0 0
889 0 2 1 12.536824914905626 5.426388579657872 15.693967883545795 0 0 0
893 0 1 -1 15.63432872992596 5.1873956603882165 15.511173991758856 0 0 0
1273 0 2 1 18.88462027534444 5.500052188112453 15.175128516870874 0 0 0
1277 0 1 -1 22.078265317471608 5.314244592013357 15.38948057790219 0 0 0
121 0 2 1 -0.06856510758275551 5.4340809733317 15.447596276503454 0 0 0
124 0 2 1 3.0530810657786405 8.691139349082276 15.420091037277327 0 0 0
512 0 1 -1 5.996440977598344 9.387006656045422 15.528694619756237 0 0 0
508 0 2 1 9.056994389205318 8.603914563797053 15.580934439292797 0 0 0
896 0 1 -1 12.211364595546051 8.681696866214448 15.589848124498197 0 0 0
892 0 2 1 15.496394974050054 8.445682945681503 15.538469357368871 0 0 0
1280 0 1 -1 18.777907379767164 8.70487676571305 15.390140711466042 0 0 0
128 0 1 -1 25.097569184739747 8.664068294033857 14.780558912459604 -1 0 0
1276 0 2 1 21.921566027017743 8.590764316958866 15.374228961602647 0 0 0
221 0 1 -1 2.1101628795280227 11.6446069500334 15.962122035977313 0 0 0
217 0 3 1 -0.025775935611307782 11.156753008081516 14.879787975700363 0 0 0
601 0 3 1 6.64435353067371 11.702016165796488 16.19479881433752 0 0 0
605 0 1 -1 9.167256507288892 11.936650011091267 15.556077454334833 0 0 0
985 0 2 1 12.409717203159586 11.787436407151018 15.728964552387811 0 0 0
989 0 1 -1 15.59616456411861 11.73495116282972 15.786574601480247 0 0 0
1369 0 2 1 18.760240878089302 11.965674379410602 15.58875537092904 0 0 0
1373 0 1 -1 22.473203672138336 11.69893665017241 15.830103476627013 0 0 0
224 0 1 -1 25.06051734307932 15.518224255615753 15.25819688196258 -1 0 0
220 0 2 1 2.656259371304922 14.644756077312781 15.400572098339474 0 0 0
608 0 1 -1 6.093736698227271 14.382444928648628 15.50607391606469 0 0 0
604 0 2 1 9.347501434768738 15.260100111787489 15.73473057858726 0 0 0
992 0 1 -1 12.711044251787346 14.797814249007594 15.631301408473675 0 0 0
988 0 3 1 14.924453981365904 15.078008915294605 15.946174441003333 0 0 0
1376 0 1 -1 18.894294701580492 14.825394328758664 15.32715582410163 0 0 0
1372 0 2 1 22.087564102671116 14.982639209443205 15.64513456890484 0 0 0
313 0 2 1 -0.09564531123122065 18.578013437001072 15.596579805768457 0 0 0
317 0 1 -1 2.9465138696448987 17.898299378645905 15.37712884866006 0 0 0
697 0 2 1 6.0520357792205886 17.832603034010226 15.682340471238742 0 0 0
701 0 1 -1 9.494056748168092 18.265629909591592 15.617283559230646 0 0 0
1081 0 2 1 12.655451339485543 18.283195930661826 16.11646617819686 0 0 0
1085 0 1 -1 15.648553265614604 17.375934155094058 15.665008970502996 0 0 0
1465 0 2 1 18.734811232428118 18.103238790588136 15.534517908550754 0 0 0
1469 0 1 -1 21.985569135631945 18.320216458397912 15.354501999232994 0 0 0
704 0 1 -1 6.578266036537396 21.14754606668892 15.75509859016747 0 0 0
700 0 2 1 9.67932782205535 21.35794472563485 15.910120491829495 0 0 0
1088 0 1 -1 12.797597391356385 21.434099887954257 15.658968472900668 0 0 0
1472 0 1 -1 18.730005050033157 21.158815758864886 15.461518658612544 0 0 0
1468 0 2 1 21.919344603272894 21.365296967026556 15.503028674967503 0 0 0
320 0 1 -1 24.890340580849923 21.754732725997826 15.419469089328768 -1 0 0
29 0 1 -1 2.5605280370630568 24.323817938261662 15.744706005136457 0 -1 0
25 0 3 1 0.3617012540797502 24.04826335675546 16.180270481210457 0 -1 0
409 0 2 1 6.107277991195241 24.17466049117318 15.824300033359123 0 -1 0
413 0 1 -1 9.441576439935513 24.234621433769597 15.612533430958539 0 -1 0
793 0 3 1 11.814796462335933 24.646083347383062 15.656831289183785 0 -1 0
1084 0 3 1 14.067329033802725 22.48367165152411 17.390196183711577 0 0 0
797 0 1 -1 15.451174015546401 24.392818810843693 16.385731039832567 0 -1 0
1177 0 2 1 18.416242127504002 24.272286578264385 15.569580588764389 0 -1 0
1181 0 1 -1 21.470755918842773 24.385957234072272 15.493768105742067 0 -1 0
30 0 1 -1 3.4047448544410943 2.2090399374580723 18.720358047222575 0 0 0
424 0 1 -1 6.263642852301958 2.2950039099189756 21.58915169493043 0 0 0
414 0 1 -1 8.596598927557459 1.8248993654866832 18.9340162937801 0 0 0
411 0 3 1 8.6269222389095 24.838698778507023 19.45667843620917 0 -1 0
410 0 3 1 5.871836127360757 2.941562394812569 19.271933926010178 0 0 0
798 0 1 -1 15.457259171782455 2.0432483428288246 18.500119673459125 0 0 0
1178 0 3 1 19.214459617503405 2.7994660093512644 18.053042413418275 0 0 0
1182 0 1 -1 21.495783200904683 2.2369169736352217 18.52610668928266 0 0 0
26 0 2 1 -0.1442870489755789 2.2582460643699807 18.756681596115524 0 0 0
123 0 2 1 2.8385091385181154 5.333979901845648 18.730763887970127 0 0 0
511 0 1 -1 6.058342214972775 5.239483906057018 19.01353129737699 0 0 0
507 0 2 1 9.293952113854376 5.241855269905636 19.110702843292465 0 0 0
895 0 1 -1 12.304064439449968 5.333007766332314 18.990165648924656 0 0 0
891 0 2 1 15.441583566102354 5.229136622449777 18.594223302550056 0 0 0
1279 0 1 -1 18.510790461949885 5.031479211558159 18.360038695605695 0 0 0
1275 0 2 1 21.69604021569138 5.509600764188906 18.47581803435963 0 0 0
127 0 1 -1 24.988595307940002 5.487437946999843 18.65278026332689 -1 0 0
126 0 1 -1 2.613430839276375 9.02980324008503 18.489763460929677 0 0 0
506 0 2 1 6.065063380619665 8.547911656916705 18.852847898453167 0 0 0
510 0 1 -1 9.172146140499521 8.445016589730386 18.72430596650824 0 0 0
890 0 2 1 12.367353043173797 8.494676526960736 18.848015480126495 0 0 0
894 0 1 -1 15.53412644976293 8.447567009388074 18.60233567571137 0 0 0