LAMMPS (29 Sep 2021 - Update 3)
OMP_NUM_THREADS environment is not set. Defaulting to 1 thread. (src/comm.cpp:98)
  using 1 OpenMP thread(s) per MPI task
units	metal
atom_style	full

read_data	mixed.data
Reading data file ...
  orthogonal box = (0.0000000 0.0000000 0.0000000) to (15.866041 15.852264 77.123517)
  2 by 1 by 8 MPI processor grid
  reading atoms ...
  864 atoms
Finding 1-2 1-3 1-4 neighbors ...
  special bond factors lj:    0        0        0       
  special bond factors coul:  0        0        0       
     0 = max # of 1-2 neighbors
     0 = max # of 1-3 neighbors
     0 = max # of 1-4 neighbors
     1 = max # of special neighbors
  special bonds CPU = 0.002 seconds
  read_data CPU = 0.009 seconds

pair_style	quip
pair_coeff	* * /ocean/projects/cts180021p/wuziqi/clease/mint-PD/PhaseDiagram-Clease/Liquid/GAP_potential/gap_LiKCl.xml "Potential xml_label=GAP_2021_9_27_0_1_17_37_618" 17 19 3

neighbor	0.3 bin
neigh_modify	delay 10

timestep	0.001
compute	msd all msd
thermo_style	custom step temp pe etotal press vol c_msd[4]
thermo	10
dump	1 all custom 10 xyz-mix.dump type id x y z
dump	2 all custom 10 force-mix.dump type id fx fy fz

fix     1 all nve
run     2000
Neighbor list info ...
  update every 1 steps, delay 10 steps, check yes
  max neighbors/atom: 2000, page size: 100000
  master list distance cutoff = 6.22
  ghost atom cutoff = 6.22
  binsize = 3.11, bins = 6 6 25
  1 neighbor lists, perpetual/occasional/extra = 1 0 0
  (1) pair quip, perpetual
      attributes: full, newton on
      pair build: full/bin
      stencil: full/bin/3d
      bin: standard
Per MPI rank memory allocation (min/avg/max) = 8.889 | 8.906 | 8.916 Mbytes
Step Temp PotEng TotEng Press Volume c_msd[4] 
       0            0   -8878.9247   -8878.9247   -11708.833    19397.542            0 
      10    108.80145    -8891.078    -8878.941   -13519.947    19397.542 0.00037756483 
      20    255.99871   -8907.5101   -8878.9531   -15433.074    19397.542  0.004636157 
      30    288.56988   -8911.1358   -8878.9454   -14361.122    19397.542  0.015943357 
      40    289.10053   -8911.1934   -8878.9438   -12512.136    19397.542  0.032214776 
      50    304.26419   -8912.8839   -8878.9428   -12190.839    19397.542  0.050010352 
      60    330.67215   -8915.8353   -8878.9484    -12512.07    19397.542  0.067008738 
      70    319.75479    -8914.613   -8878.9439   -12021.554    19397.542  0.084636553 
      80     311.7171   -8913.7131   -8878.9406   -11242.174    19397.542   0.10335882 
      90    344.97025   -8917.4272   -8878.9452   -11377.847    19397.542   0.12285636 
     100    369.47631   -8920.1625   -8878.9469   -11460.202    19397.542   0.14373353 
     110    369.44402   -8920.1551   -8878.9431   -10737.559    19397.542   0.16547428 
     120    381.04496   -8921.4513   -8878.9452   -10101.733    19397.542   0.18697263 
     130    387.01967   -8922.1174   -8878.9447    -9853.945    19397.542   0.20927079 
     140    390.46305   -8922.5002   -8878.9434   -10154.629    19397.542   0.23274757 
     150    401.17379   -8923.6966   -8878.9451   -10935.233    19397.542   0.25686229 
     160    405.60936   -8924.1923    -8878.946   -11533.497    19397.542   0.28181117 
     170    403.00983   -8923.9035   -8878.9472   -11313.905    19397.542   0.30705714 
     180    385.93942   -8921.9971   -8878.9449   -10395.352    19397.542   0.33328028 
     190    384.55592   -8921.8429   -8878.9451   -9702.4152    19397.542    0.3615061 
     200    397.89654   -8923.3338   -8878.9478   -9508.3306    19397.542   0.39138176 
     210    403.74057   -8923.9838    -8878.946   -9854.3562    19397.542   0.41959204 
     220    419.25516   -8925.7147   -8878.9462   -11120.155    19397.542   0.44190424 
     230    437.64496   -8927.7678   -8878.9478   -12741.979    19397.542   0.46059951 
     240    436.22365   -8927.6096   -8878.9482   -13773.271    19397.542   0.48016288 
     250     417.4692   -8925.5154   -8878.9461   -14188.084    19397.542   0.50051511 
     260    403.07006   -8923.9093   -8878.9463   -14452.366    19397.542   0.51954432 
     270    390.78955   -8922.5388   -8878.9456   -14869.677    19397.542   0.53842732 
     280    390.91941   -8922.5534   -8878.9458   -15753.944    19397.542   0.55789535 
     290    394.53071   -8922.9579   -8878.9474   -16866.473    19397.542   0.57907365 
     300    385.46639   -8921.9447   -8878.9454   -17556.881    19397.542   0.60332818 
     310    388.07639   -8922.2367   -8878.9462   -18102.563    19397.542   0.62988844 
     320    395.22438   -8923.0346   -8878.9467   -18476.923    19397.542   0.65693198 
     330     392.7193   -8922.7554    -8878.947   -18634.964    19397.542   0.68294096 
     340    387.36548    -8922.158   -8878.9468   -18928.114    19397.542    0.7064488 
     350    383.70376     -8921.75   -8878.9472   -19255.038    19397.542   0.72809194 
     360    380.16279   -8921.3526   -8878.9449   -19764.905    19397.542   0.74756432 
     370    391.53302   -8922.6238   -8878.9477   -20433.416    19397.542   0.76345228 
     380    397.18733   -8923.2529   -8878.9461   -20848.612    19397.542   0.77799013 
     390    399.66038   -8923.5327     -8878.95   -20962.623    19397.542    0.7926845 
     400    376.74168   -8920.9703   -8878.9442   -20594.318    19397.542   0.80792627 
     410    384.01385   -8921.7861   -8878.9488   -20827.442    19397.542   0.82090067 
     420    385.42711   -8921.9432   -8878.9482    -21282.02    19397.542   0.83289421 
     430    375.82197   -8920.8694   -8878.9459   -21749.833    19397.542   0.84474346 
     440    377.40301   -8921.0478   -8878.9479   -22280.425    19397.542   0.85654263 
     450    373.39276   -8920.5987   -8878.9462   -22358.315    19397.542   0.87121917 
     460    380.55104   -8921.3982   -8878.9472   -22127.174    19397.542   0.88923864 
     470    389.08947   -8922.3531   -8878.9496   -21563.629    19397.542   0.90990069 
     480    377.88025   -8921.0989   -8878.9458   -20903.426    19397.542   0.93174236 
     490    381.74982   -8921.5319   -8878.9472   -20620.986    19397.542   0.94962563 
     500    394.14575   -8922.9156   -8878.9481   -20486.731    19397.542   0.96309083 
     510    397.04898   -8923.2389   -8878.9475   -19997.235    19397.542   0.97658553 
     520    399.82595   -8923.5491    -8878.948   -19535.484    19397.542   0.99241283 
     530    404.27704   -8924.0446   -8878.9469    -19115.46    19397.542    1.0084992 
     540     411.3451   -8924.8362     -8878.95   -18661.849    19397.542    1.0226069 
     550    394.09812   -8922.9082    -8878.946   -17821.103    19397.542    1.0374953 
     560    386.81962   -8922.0987   -8878.9484   -17144.624    19397.542    1.0531551 
     570    383.04436   -8921.6747   -8878.9456   -16711.306    19397.542    1.0690946 
     580    397.22268   -8923.2587   -8878.9479   -16702.646    19397.542    1.0866029 
     590    408.28446   -8924.4929   -8878.9481   -16623.668    19397.542    1.1074158 
     600    405.74477   -8924.2095   -8878.9481   -16314.107    19397.542    1.1302748 
     610    396.02325   -8923.1251   -8878.9481    -15628.66    19397.542    1.1519665 
     620     395.3341   -8923.0495   -8878.9494   -15051.831    19397.542    1.1694303 
     630    394.27036   -8922.9318   -8878.9503   -14512.907    19397.542    1.1828305 
     640    383.62649   -8921.7417   -8878.9476   -14067.198    19397.542    1.1945401 
     650    385.14193   -8921.9112    -8878.948   -13839.463    19397.542    1.2068311 
     660     395.4713   -8923.0651   -8878.9497   -13755.797    19397.542    1.2218962 
     670     396.9724   -8923.2312   -8878.9483   -13681.042    19397.542    1.2411479 
     680    400.76426   -8923.6562   -8878.9504   -13529.754    19397.542    1.2649597 
     690    395.59922   -8923.0782   -8878.9485   -13202.541    19397.542    1.2892968 
     700    393.08673   -8922.7984    -8878.949    -12863.36    19397.542    1.3108518 
     710    392.46287   -8922.7295   -8878.9497   -12776.215    19397.542    1.3306314 
     720    392.69983   -8922.7538   -8878.9476   -12960.731    19397.542    1.3493343 
     730    407.70626    -8924.431   -8878.9507   -13617.908    19397.542    1.3652761 
     740    418.60831   -8925.6458   -8878.9494   -14182.857    19397.542    1.3758719 
     750    427.35697   -8926.6222   -8878.9499   -14411.802    19397.542    1.3817369 
     760    426.23067   -8926.4956    -8878.949   -14240.457    19397.542    1.3874968 
     770    425.68986   -8926.4355   -8878.9492   -14121.142    19397.542    1.3956033 
     780    424.34662   -8926.2861   -8878.9496   -14199.692    19397.542    1.4059418 
     790    416.51178   -8925.4118   -8878.9493   -14348.579    19397.542    1.4172819 
     800    406.85203   -8924.3329   -8878.9479   -14603.708    19397.542    1.4293586 
     810     409.3926   -8924.6176   -8878.9492   -14954.594    19397.542    1.4437899 
     820    411.52943   -8924.8561   -8878.9494   -15227.004    19397.542     1.461671 
     830    414.76526   -8925.2161   -8878.9484   -15348.177    19397.542    1.4822988 
     840    425.47297   -8926.4126   -8878.9505   -15497.059    19397.542    1.5061095 
     850    424.10961   -8926.2589   -8878.9489    -15461.05    19397.542    1.5339208 
     860    425.84903   -8926.4531    -8878.949   -15668.017    19397.542    1.5638872 
     870    428.28778   -8926.7265   -8878.9503   -15975.954    19397.542    1.5941429 
     880    422.32484   -8926.0597   -8878.9487   -16050.391    19397.542    1.6254163 
     890    420.59441   -8925.8681   -8878.9502   -16210.368    19397.542    1.6579317 
     900    412.78354   -8924.9958   -8878.9492   -16186.118    19397.542    1.6917804 
     910    408.88335   -8924.5603   -8878.9488   -16398.021    19397.542    1.7253326 
     920    415.25495   -8925.2723     -8878.95   -16866.947    19397.542    1.7566903 
     930    417.79568   -8925.5555   -8878.9498    -17314.63    19397.542    1.7866576 
     940    414.15774   -8925.1502   -8878.9503   -17816.895    19397.542    1.8175362 
     950    410.14766   -8924.7024   -8878.9498   -18397.528    19397.542     1.850555 
     960    412.13206   -8924.9218   -8878.9478   -18864.984    19397.542    1.8837942 
     970    427.90234   -8926.6835   -8878.9503   -19165.223    19397.542    1.9147148 
     980    431.11936    -8927.043    -8878.951    -19021.79    19397.542    1.9457246 
     990    415.64991   -8925.3145   -8878.9482   -18606.767    19397.542    1.9812421 
    1000    413.92707   -8925.1233   -8878.9491   -18513.829    19397.542    2.0201072 
    1010    417.45395   -8925.5177     -8878.95   -18558.895    19397.542    2.0574524 
    1020    414.66605   -8925.2045   -8878.9479    -18540.13    19397.542    2.0909232 
    1030    425.32279   -8926.3944    -8878.949   -18804.281    19397.542    2.1200334 
    1040    437.39791    -8927.743   -8878.9506    -19174.44    19397.542    2.1461906 
    1050    432.04437    -8927.144   -8878.9488   -19430.964    19397.542    2.1724444 
    1060    423.10855   -8926.1471   -8878.9487    -19670.97    19397.542     2.200914 
    1070    416.30819    -8925.389   -8878.9492   -19752.208    19397.542     2.232564 
    1080    410.19009   -8924.7058   -8878.9485   -19471.789    19397.542    2.2656179 
    1090    411.43188   -8924.8454   -8878.9496   -18927.842    19397.542    2.2963807 
    1100    413.58688   -8925.0849   -8878.9486   -18540.027    19397.542    2.3238349 
    1110    425.71996   -8926.4384   -8878.9486   -18620.545    19397.542    2.3474636 
    1120    443.01807   -8928.3709   -8878.9516   -18883.908    19397.542    2.3679172 
    1130    437.42575   -8927.7454   -8878.9499   -18767.479    19397.542    2.3882255 
    1140    422.48256   -8926.0773   -8878.9487   -18476.767    19397.542    2.4089666 
    1150    414.07643   -8925.1393   -8878.9485   -18282.798    19397.542    2.4284943 
    1160    416.01416   -8925.3558   -8878.9488   -18291.885    19397.542     2.446853 
    1170    419.66714   -8925.7642   -8878.9497   -18446.717    19397.542    2.4644412 
    1180    424.21945   -8926.2706   -8878.9483    -18449.36    19397.542    2.4806419 
    1190    440.19598   -8928.0557   -8878.9512   -18343.062    19397.542    2.4945267 
    1200    440.38662   -8928.0752   -8878.9494   -17908.359    19397.542     2.507228 
    1210    440.40752   -8928.0774   -8878.9493   -17509.071    19397.542    2.5196997 
    1220    445.29341   -8928.6232   -8878.9501   -17433.008    19397.542    2.5321836 
    1230    444.31811   -8928.5138   -8878.9494   -17404.254    19397.542    2.5456285 
    1240    444.21916   -8928.5028   -8878.9495   -17567.287    19397.542    2.5617678 
    1250    447.95301   -8928.9197   -8878.9499   -17998.888    19397.542    2.5810013 
    1260    447.05056     -8928.82   -8878.9509   -18113.089    19397.542    2.6027835 
    1270    433.76409   -8927.3363   -8878.9493   -17647.746    19397.542    2.6267411 
    1280    426.49744   -8926.5249   -8878.9485   -17215.404    19397.542    2.6522665 
    1290    438.76938   -8927.8949   -8878.9495   -17215.004    19397.542     2.679609 
    1300     454.8554   -8929.6913   -8878.9515   -17412.029    19397.542    2.7096074 
    1310    451.74789   -8929.3435   -8878.9504   -17515.094    19397.542    2.7419599 
    1320    440.03726   -8928.0361   -8878.9493    -17582.78    19397.542    2.7732724 
    1330    433.51813    -8927.309   -8878.9494   -17627.787    19397.542    2.7991894 
    1340    430.66307   -8926.9918   -8878.9507   -17406.648    19397.542    2.8192899 
    1350    422.06307   -8926.0311   -8878.9493    -17030.68    19397.542    2.8369839 
    1360    423.68793   -8926.2128   -8878.9498   -16872.793    19397.542    2.8564726 
    1370    432.23825   -8927.1671   -8878.9502   -16941.721    19397.542    2.8798412 
    1380    440.61409   -8928.1014   -8878.9502   -17160.411    19397.542     2.904214 
    1390    442.38617   -8928.3005   -8878.9516   -17288.698    19397.542    2.9262872 
    1400    432.82497   -8927.2303    -8878.948   -17111.965    19397.542    2.9462931 
    1410    443.20721   -8928.3906   -8878.9502   -17379.272    19397.542    2.9656964 
    1420     452.8574   -8929.4692   -8878.9523   -17581.285    19397.542    2.9866189 
    1430    440.33742   -8928.0699   -8878.9496    -17078.18    19397.542    3.0107644 
    1440    434.09539   -8927.3728   -8878.9488   -16559.852    19397.542    3.0372306 
    1450    446.59797     -8928.77   -8878.9513   -16458.202    19397.542    3.0634597 
    1460    455.16552   -8929.7248   -8878.9504   -16509.198    19397.542    3.0883146 
    1470     460.5176    -8930.323   -8878.9516   -16639.411    19397.542    3.1117695 
    1480    455.78137    -8929.792   -8878.9489   -16643.605    19397.542    3.1332037 
    1490    461.66937   -8930.4506   -8878.9507   -16632.215    19397.542     3.152331 
    1500    464.06114   -8930.7172   -8878.9504   -16316.323    19397.542    3.1724877 
    1510    464.69685   -8930.7871   -8878.9495    -16148.36    19397.542    3.1960897 
    1520    471.22077   -8931.5167   -8878.9514   -16208.841    19397.542    3.2225013 
    1530    471.47122   -8931.5429   -8878.9496   -16597.639    19397.542    3.2496574 
    1540    479.04999   -8932.3903   -8878.9516   -17340.131    19397.542    3.2743864 
    1550    475.60674   -8932.0055   -8878.9508   -17872.304    19397.542    3.2971604 
    1560    465.76065   -8930.9064   -8878.9501   -17822.552    19397.542    3.3221892 
    1570    460.06152    -8930.271   -8878.9505    -17442.47    19397.542    3.3512444 
    1580    459.40082   -8930.1971   -8878.9502   -16941.542    19397.542    3.3813068 
    1590    460.93829   -8930.3707   -8878.9523   -16350.345    19397.542    3.4083736 
    1600     448.2201   -8928.9504   -8878.9508   -15603.607    19397.542    3.4316634 
    1610     443.9941   -8928.4772    -8878.949    -15275.86    19397.542    3.4534934 
    1620    463.51034   -8930.6582    -8878.953   -15593.563    19397.542    3.4766509 
    1630    474.66564   -8931.9011   -8878.9514   -16126.405    19397.542    3.5034224 
    1640    481.75389   -8932.6918   -8878.9514   -16542.721    19397.542    3.5333548 
    1650    479.37897   -8932.4264    -8878.951   -16541.998    19397.542    3.5648125 
    1660    474.97776   -8931.9337   -8878.9492   -16284.173    19397.542    3.5952514 
    1670    481.99089    -8932.719   -8878.9522   -15990.017    19397.542    3.6221631 
    1680      474.213   -8931.8498   -8878.9506   -15457.654    19397.542    3.6454728 
    1690    462.13083    -8930.502   -8878.9506   -14731.806    19397.542     3.665115 
    1700    458.63731   -8930.1109   -8878.9492   -14389.905    19397.542    3.6801149 
    1710    473.55465   -8931.7771   -8878.9513   -14547.389    19397.542    3.6915037 
    1720    483.59001    -8932.897   -8878.9518   -15013.331    19397.542    3.7021408 
    1730    481.36556   -8932.6472   -8878.9501   -15645.926    19397.542    3.7142289 
    1740    484.05437   -8932.9483   -8878.9513   -16474.749    19397.542    3.7288904 
    1750    482.16869   -8932.7383   -8878.9516   -16722.219    19397.542     3.747119 
    1760    470.26243   -8931.4082   -8878.9497   -16475.495    19397.542    3.7689551 
    1770    472.75321   -8931.6852   -8878.9489   -16480.419    19397.542    3.7930019 
    1780    495.80424   -8934.2609   -8878.9532   -16801.632    19397.542     3.817904 
    1790    498.29189   -8934.5359   -8878.9506   -17030.699    19397.542    3.8432118 
    1800    497.22115   -8934.4163   -8878.9505   -17233.599    19397.542    3.8677962 
    1810    498.13201   -8934.5195   -8878.9521   -17294.852    19397.542    3.8916583 
    1820    485.17576   -8933.0725   -8878.9504   -16971.976    19397.542    3.9157232 
    1830    479.44537   -8932.4337   -8878.9509   -16627.564    19397.542    3.9391486 
    1840    478.88134   -8932.3712   -8878.9513   -16398.764    19397.542    3.9621449 
    1850     478.6415   -8932.3435   -8878.9503   -16406.049    19397.542    3.9857213 
    1860     486.1211   -8933.1789   -8878.9514   -16705.544    19397.542    4.0086822 
    1870    492.79459   -8933.9238   -8878.9519   -17221.514    19397.542    4.0297149 
    1880    491.36379   -8933.7648   -8878.9525   -18037.772    19397.542    4.0499732 
    1890    475.70955   -8932.0166   -8878.9505   -18910.363    19397.542    4.0709101 
    1900    464.92588   -8930.8141   -8878.9509   -19819.272    19397.542    4.0929306 
    1910    455.59431   -8929.7727   -8878.9505   -20229.987    19397.542    4.1160109 
    1920    452.87672   -8929.4684   -8878.9493   -20242.611    19397.542    4.1384657 
    1930    467.97161   -8931.1539   -8878.9509   -20369.825    19397.542    4.1581839 
    1940    485.34862   -8933.0926   -8878.9512   -20514.477    19397.542    4.1756159 
    1950    495.78252   -8934.2578   -8878.9525   -20428.878    19397.542    4.1936772 
    1960    500.11778   -8934.7389     -8878.95   -20591.437    19397.542    4.2145461 
    1970    511.99695   -8936.0681    -8878.954   -21344.221    19397.542    4.2363696 
    1980    499.23942   -8934.6421   -8878.9512   -21654.428    19397.542    4.2540635 
    1990    487.56603   -8933.3391   -8878.9504    -21588.86    19397.542    4.2657075 
    2000    485.14508   -8933.0707    -8878.952   -21134.343    19397.542    4.2770463 
Loop time of 1722.21 on 16 procs for 2000 steps with 864 atoms

Performance: 0.100 ns/day, 239.195 hours/ns, 1.161 timesteps/s
96.9% CPU use with 16 MPI tasks x 1 OpenMP threads

MPI task timing breakdown:
Section |  min time  |  avg time  |  max time  |%varavg| %total
---------------------------------------------------------------
Pair    | 487.79     | 1020.7     | 1719.3     | 999.2 | 59.27
Bond    | 0.00023675 | 0.00050512 | 0.0011778  |   0.0 |  0.00
Neigh   | 0.014523   | 0.029828   | 0.062312   |   7.7 |  0.00
Comm    | 2.4733     | 614.87     | 1112.6     |1241.9 | 35.70
Output  | 0.20729    | 24.106     | 53.063     | 399.7 |  1.40
Modify  | 0.011896   | 0.012985   | 0.016729   |   1.0 |  0.00
Other   |            | 62.5       |            |       |  3.63

Nlocal:        54.0000 ave          90 max          29 min
Histogram: 3 3 0 2 3 1 0 2 0 2
Nghost:        493.750 ave         643 max         369 min
Histogram: 3 1 0 3 2 2 1 2 0 2
Neighs:         0.00000 ave           0 max           0 min
Histogram: 16 0 0 0 0 0 0 0 0 0
FullNghs:      2706.00 ave        5944 max         890 min
Histogram: 6 0 2 1 3 0 2 0 0 2

Total # of neighbors = 43296
Ave neighs/atom = 50.111111
Ave special neighs/atom = 0.0000000
Neighbor list builds = 200
Dangerous builds = 200
unfix   1

velocity    all create 1162.5 1312343 dist gaussian
fix     2 all npt temp 1162.5 1162.5 $(100.0*dt) aniso 0.0 1.01325 $(1000.0*dt)
fix     2 all npt temp 1162.5 1162.5 0.10000000000000000555 aniso 0.0 1.01325 $(1000.0*dt)
fix     2 all npt temp 1162.5 1162.5 0.10000000000000000555 aniso 0.0 1.01325 1
run     3000
Per MPI rank memory allocation (min/avg/max) = 8.894 | 8.909 | 8.920 Mbytes
Step Temp PotEng TotEng Press Volume c_msd[4] 
    2000       1162.5   -8933.0707   -8803.3921   -16973.665    19397.542    4.2770463 
    2010    983.84528   -8913.1788   -8803.4294   -12815.326    19390.909    4.3087733 
    2020    749.65164    -8886.905   -8803.2802   -6922.9956    19373.982    4.3412219 
    2030    767.96027   -8888.3465   -8802.6794   -6638.6777    19351.026    4.3591369 
    2040    815.52378   -8892.5287   -8801.5558   -7585.9487    19322.678    4.3626696 
    2050    833.50454   -8893.2253   -8800.2466    -7428.644    19288.379    4.3584092 
    2060    846.27299   -8893.4592   -8799.0561   -6393.7207    19248.365    4.3492322 
    2070    860.42461   -8894.0088   -8798.0272   -5364.9457    19203.558    4.3376183 
    2080     870.0853    -8894.104   -8797.0447   -4124.5239    19155.018    4.3252426 
    2090    857.80368   -8891.6634   -8795.9741   -2105.7101    19104.025     4.310947 
    2100    854.06381   -8889.9586   -8794.6865    322.90584    19052.388    4.2935643 
    2110    866.92194   -8889.8057   -8793.0992    2710.9929    19002.222    4.2734991 
    2120    903.28198    -8891.992   -8791.2296    4767.2711    18955.534     4.252431 
    2130    925.07402   -8892.3458   -8789.1524    6940.1414    18914.002    4.2330286 
    2140    909.59328   -8888.4689   -8787.0024     9033.771    18879.209    4.2152905 
    2150    917.47292   -8887.2047   -8784.8592    9534.4977     18852.47    4.1982294 
    2160    949.26335   -8888.5951   -8782.7034    8701.0478    18833.875    4.1819203 
    2170    976.48471   -8889.4883   -8780.5599    8071.0616    18822.578    4.1665185 
    2180    969.01186   -8886.5744   -8778.4797     7899.422    18817.824     4.153791 
    2190    929.99213    -8880.237   -8776.4949    7591.1695     18819.18    4.1459829 
    2200    954.63095   -8881.0084   -8774.5179    5881.9786    18826.078    4.1447099 
    2210    985.43704   -8882.4041   -8772.4772    4569.1179    18837.152     4.147722 
    2220    977.02429   -8879.4619   -8770.4733    4588.6618    18851.327    4.1515845 
    2230    990.60415   -8879.0392   -8768.5359    4578.6655    18868.406    4.1555636 
    2240    980.95852   -8876.0503   -8766.6229    4850.2043    18888.344     4.163523 
    2250    996.07319   -8875.8479   -8764.7345    4321.1461    18911.163    4.1744269 
    2260    1004.3939    -8874.843   -8762.8014    3600.9313    18936.426    4.1836195 
    2270    1002.5544   -8872.7139   -8760.8775    3513.9301      18963.6    4.1919907 
    2280    1037.8944   -8874.7122   -8758.9335    2868.9573     18992.47    4.2016846 
    2290    1038.1096   -8872.7749   -8756.9722    2460.7921    19022.581    4.2137684 
    2300    1032.3644   -8870.2128    -8755.051    1771.7261    19053.525    4.2265291 
    2310    1029.2412   -8867.9406   -8753.1272    603.95734    19084.748    4.2384257 
    2320    1035.4625   -8866.6815    -8751.174   -904.55147    19115.353    4.2463173 
    2330    1068.1207   -8868.3303   -8749.1798   -1654.3056    19144.292    4.2492246 
    2340    1096.7841   -8869.5341   -8747.1862   -1494.8519    19171.069    4.2514849 
    2350      1113.48   -8869.4701   -8745.2597   -1468.9741    19195.828    4.2554604 
    2360     1118.479   -8868.1761   -8743.4081   -2072.6821    19218.615    4.2615085 
    2370    1106.3313    -8865.052   -8741.6391   -2605.2968    19239.098    4.2686999 
    2380    1113.4973   -8864.1344   -8739.9221   -3260.7777    19256.918     4.272302 
    2390    1066.5101   -8857.2243   -8738.2535    -2761.802    19271.753    4.2707786 
    2400    1038.0225   -8852.4203   -8736.6273   -2461.0702    19283.967    4.2671958 
    2410    1088.7202   -8856.3596   -8734.9113   -3161.9795    19293.827    4.2649811 
    2420    1136.7876   -8859.9279   -8733.1176   -3495.5234    19300.958    4.2671897 
    2430    1146.5347   -8859.2721   -8731.3745   -2904.6035    19305.217    4.2760676 
    2440    1153.7244   -8858.4392   -8729.7395   -2738.3216    19307.026    4.2911367 
    2450    1178.7974   -8859.6817   -8728.1851   -3504.5433     19306.55    4.3115464 
    2460    1188.2842    -8859.291   -8726.7361   -3980.3731    19303.308    4.3343137 
    2470    1176.2635   -8856.6338   -8725.4198   -3042.0263    19297.081    4.3528572 
    2480    1208.5512    -8859.031   -8724.2153   -3016.2774    19288.484    4.3656083 
    2490    1218.6596   -8859.0842   -8723.1408   -2746.0441    19277.713    4.3788459 
    2500    1186.8451   -8854.6322   -8722.2378   -2031.7059    19265.019    4.3972262 
    2510    1199.5805   -8855.2484   -8721.4334   -1746.1422    19250.943    4.4181859 
    2520    1224.0957   -8857.2505   -8720.7008   -1669.8693    19235.739    4.4360199 
    2530    1191.2273   -8852.9697   -8720.0865     23.78845    19219.627    4.4488143 
    2540    1153.1485   -8848.1886   -8719.5531      2192.13    19203.867    4.4573024 
    2550     1180.023   -8850.6465   -8719.0131    2412.2758    19189.991    4.4658844 
    2560    1217.8329   -8854.3399   -8718.4888    1456.0745    19178.198    4.4765967 
    2570    1212.2328   -8853.2995   -8718.0731    306.98743    19167.726    4.4880446 
    2580    1214.4509   -8853.2708   -8717.7969    -346.5552    19157.702    4.4960668 
    2590    1230.8364   -8854.9519   -8717.6503   -580.16087    19147.622    4.4940996 
    2600    1261.7252    -8858.435   -8717.6876   -1502.9341    19137.203    4.4831817 
    2610    1245.9159   -8856.9383   -8717.9545   -1995.9752    19125.817    4.4718726 
    2620    1194.5795   -8851.6523   -8718.3952   -1273.3064    19113.156     4.466571 
    2630    1174.0594   -8849.8622   -8718.8941   -236.17226    19099.737    4.4686647 
    2640    1184.8094   -8851.5676   -8719.4003    931.36479     19086.38    4.4758555 
    2650    1235.6993   -8857.8307   -8719.9866    1691.4034    19073.955    4.4854843 
    2660    1264.7766   -8861.8624   -8720.7746    2230.2047    19063.046    4.4981059 
    2670    1213.1778   -8857.0775   -8721.7457     4043.054    19054.165     4.516229 
    2680    1206.4228   -8857.3786   -8722.8003    4787.7256     19048.48    4.5367179 
    2690     1249.666   -8863.3826   -8723.9805    4614.3629    19046.534    4.5558915 
    2700    1220.0059   -8861.3868   -8725.2933    5546.0474    19048.315    4.5713903 
    2710    1241.6823   -8865.2457   -8726.7341    5109.3274    19054.306    4.5810946 
    2720    1256.0718   -8868.4324   -8728.3157    3800.2643    19064.141    4.5890207 
    2730    1225.2111   -8866.6802   -8730.0061     2835.719    19076.814    4.5962898 
    2740    1193.2594    -8864.796   -8731.6861     2232.308    19091.545    4.6022735 
    2750    1164.3534   -8863.1605   -8733.2751    1839.0099    19107.841    4.6080689 
    2760    1127.3845   -8860.4512   -8734.6898    887.97283    19125.296    4.6188129 
    2770    1119.1557   -8860.7433   -8735.8998   -741.23996    19143.134    4.6343722 
    2780     1141.424   -8864.2686   -8736.9411   -2790.0421    19160.103    4.6487813 
    2790    1176.8296   -8869.2019   -8737.9247   -4898.6828    19174.616    4.6580577 
    2800     1176.018    -8870.094   -8738.9074   -5493.5639    19185.161    4.6630542 
    2810     1177.976   -8871.3079   -8739.9029   -5205.2016    19191.258    4.6681691 
    2820    1149.8635   -8869.1446   -8740.8756   -4126.7138    19193.239    4.6807264 
    2830     1154.327   -8870.5687   -8741.8018   -3813.8229    19191.881    4.7020575 
    2840    1176.8069   -8873.9964   -8742.7218    -4152.515    19187.477    4.7275161 
    2850    1156.2459   -8872.6273   -8743.6464   -3422.5274    19179.956    4.7536851 
    2860    1131.2202   -8870.7135   -8744.5242   -2546.1728    19169.881    4.7780744 
    2870    1141.7325   -8872.7116   -8745.3496    -2512.218    19157.896    4.7972374 
    2880     1152.716    -8874.712   -8746.1248   -2316.8073     19144.17    4.8081007 
    2890    1152.0804   -8875.3731   -8746.8568   -2316.4517     19128.83    4.8103997 
    2900    1151.9955   -8876.0454   -8747.5386   -2771.7492    19111.892    4.8057148 
    2910    1162.5481   -8877.8732   -8748.1892   -3343.3964    19093.081    4.7982233 
    2920    1210.5076   -8883.9285   -8748.8945   -4050.4255    19071.967    4.7937319 
    2930    1208.7854   -8884.5674   -8749.7256   -2946.5973    19048.197    4.7964803 
    2940    1197.2392   -8884.1872   -8750.6334   -751.08688    19022.636    4.8089015 
    2950    1202.0487   -8885.6975   -8751.6071    685.70587    18996.906    4.8331362 
    2960    1186.7607    -8885.011   -8752.6261    1142.8826    18972.133    4.8669297 
    2970    1205.0684   -8888.1507   -8753.7235    300.61772     18948.62    4.9022151 
    2980     1190.394   -8887.6699   -8754.8797   -112.03299    18925.841    4.9376196 
    2990    1181.5922   -8887.8568   -8756.0484   -605.17393    18903.426    4.9757953 
    3000    1167.7034   -8887.4526   -8757.1935   -1032.7645    18881.018    5.0152829 
    3010    1160.5937   -8887.7627   -8758.2968   -886.10512    18858.352    5.0541494 
    3020    1154.1381   -8888.0619    -8759.316   -1059.9174    18835.497    5.0932165 
    3030    1181.6092     -8892.06   -8760.2497   -1500.9357    18812.352    5.1326338 
    3040    1214.8162   -8896.7295   -8761.2149   -1783.3994    18788.623    5.1687113 
    3050    1196.9305   -8895.7552   -8762.2358   -1540.1964    18764.167    5.1968368 
    3060     1185.898   -8895.5673   -8763.2786   -1145.4951    18739.183    5.2199606 
    3070    1198.7577   -8898.0841   -8764.3609   -1000.7682    18713.953    5.2440974 
    3080    1180.9601   -8897.2102   -8765.4723   -582.25973    18688.643    5.2719119 
    3090    1206.8572   -8901.2399   -8766.6132   -529.78522    18663.498    5.2986394 
    3100    1214.6149   -8903.3211    -8767.829    -387.8768    18638.597    5.3208127 
    3110    1188.1938    -8901.604   -8769.0592   -732.16767    18614.003    5.3368092 
    3120    1215.6366   -8905.9401    -8770.334   -2063.4638    18589.392    5.3468641 
    3130    1209.9308   -8906.6324   -8771.6628   -2717.8891    18563.918    5.3572648 
    3140     1199.791   -8906.8629   -8773.0244   -3329.8447    18537.065    5.3743992 
    3150    1192.5655   -8907.4292   -8774.3968   -3847.2869    18508.454    5.3986272 
    3160    1202.4635   -8909.9085   -8775.7719   -4800.0456    18477.728     5.423901 
    3170    1227.4894   -8914.1559   -8777.2276   -5467.9141    18444.291    5.4463856 
    3180    1204.8191   -8913.1297   -8778.7303   -4500.1543    18407.874    5.4654175 
    3190    1187.6057   -8912.6735   -8780.1942   -3113.9669    18369.229     5.476217 
    3200    1203.9479   -8915.9019   -8781.5997   -2591.7363    18329.389    5.4782172 
    3210    1246.5067   -8922.1045   -8783.0548    -3119.069    18288.773    5.4793698 
    3220    1253.4119   -8924.4364   -8784.6165   -2945.2454    18247.237    5.4900511 
    3230    1239.8023   -8924.5572   -8786.2554   -2823.2791    18204.922    5.5151407 
    3240    1254.8614   -8927.9215   -8787.9398   -2283.1502    18162.036    5.5523504 
    3250     1263.697   -8930.6491   -8789.6818   -1711.6941     18119.04    5.5956189 
    3260    1251.9052   -8931.1115   -8791.4596   -1647.0725    18076.353    5.6403563 
    3270    1268.9015   -8934.8063   -8793.2585   -1260.4908    18034.125    5.6834216 
    3280    1262.5547   -8935.9095   -8795.0696    367.81607    17992.743    5.7270474 
    3290    1263.8895   -8937.8261   -8796.8373    1946.3229    17953.263    5.7735984 
    3300     1309.611   -8944.7748   -8798.6857    2104.5344    17916.621    5.8248173 
    3310    1289.5007   -8944.5151   -8800.6693    2107.3312    17882.908    5.8798797 
    3320    1265.6875    -8943.844   -8802.6547    1367.1628    17852.005    5.9376501 
    3330    1362.3692   -8956.7478   -8804.7735   -1412.0984    17823.194    5.9965791 
    3340    1401.7809    -8963.586   -8807.2153   -2652.8101    17794.767    6.0589504 
    3350    1367.6688   -8962.4302   -8809.8647   -1887.9233    17765.922    6.1249792 
    3360     1324.534   -8960.2301   -8812.4763   -2328.8047    17737.023    6.1950525 
    3370     1317.567   -8961.9614   -8814.9848   -4164.5359    17707.788    6.2748953 
    3380    1324.1524    -8965.148   -8817.4368   -4842.4251    17677.189    6.3680549 
    3390    1302.9497   -8965.1676   -8819.8216   -4110.8733    17644.919    6.4741707 
    3400    1303.9202   -8967.5413   -8822.0871   -3601.5802    17611.451    6.5823972 
    3410    1324.5798   -8972.1046   -8824.3458   -2534.7957    17577.261    6.6837091 
    3420    1283.5849   -8969.7425   -8826.5566    96.535993     17543.17    6.7767926 
    3430    1273.0037   -8970.6142   -8828.6087    2294.4478     17510.77    6.8581039 
    3440    1303.5564   -8976.0605   -8830.6468    3967.8668    17481.405    6.9300292 
    3450    1313.3775   -8979.2719   -8832.7627    5655.2686    17456.002    6.9993068 
    3460     1347.074   -8985.2916   -8835.0235    6104.8991    17435.343    7.0700533 
    3470    1351.9967   -8988.2707   -8837.4534    6666.1611    17419.571    7.1362258 
    3480    1289.6167   -8983.7586   -8839.8999    8298.3001    17408.853    7.1905652 
    3490    1286.0381    -8985.717   -8842.2575     9822.105    17403.916    7.2344982 
    3500    1282.8575   -8987.7053   -8844.6006    9975.7464    17405.397    7.2716858 
    3510    1253.3359   -8986.6698   -8846.8583    9527.2117    17413.226    7.2990039 
    3520    1263.8725    -8990.042   -8849.0552    7069.5666    17426.764    7.3140204 
    3530    1260.4349   -8991.8074    -8851.204    4569.7162    17444.387    7.3120105 
    3540    1259.4558    -8993.787   -8853.2929    3033.2267    17464.365    7.2969728 
    3550    1226.7894   -8992.1611   -8855.3109    3446.2306    17485.739    7.2808865 
    3560    1222.7952   -8993.6294   -8857.2248    2181.1653    17508.508    7.2696225 
    3570    1234.5624   -8996.8004   -8859.0831   -289.44927    17531.839    7.2636485 
    3580    1219.1907   -8996.9042   -8860.9017    -1835.942    17554.268    7.2553774 
    3590    1215.4402   -8998.2506   -8862.6664   -3560.1591    17574.732    7.2350662 
    3600    1246.5935   -9003.5008   -8864.4414   -4982.0983    17592.204    7.2021489 
    3610    1209.6071   -9001.1472   -8866.2137   -4078.9171    17606.011    7.1680159 
    3620    1171.5444   -8998.5583   -8867.8708   -2824.2517    17616.742    7.1395609 
    3630    1190.2676   -9002.1963   -8869.4201   -3117.6607    17625.204    7.1172287 
    3640    1192.2878   -9003.9435    -8870.942   -4284.2048    17631.306    7.0985391 
    3650    1170.3576    -9002.979   -8872.4238   -5244.1489    17634.385    7.0821368 
    3660    1154.9818   -9002.6268   -8873.7869   -5624.9071    17633.927    7.0776567 
    3670    1166.3601   -9005.1842    -8875.075   -5162.2699    17629.805    7.0856246 
    3680    1166.4258   -9006.4138   -8876.2973   -4138.1862    17622.425    7.0942969 
    3690    1142.1009   -9004.8654   -8877.4624   -2909.9708    17612.539    7.1019607 
    3700    1125.2357   -9004.0293   -8878.5076   -1587.5649    17601.048    7.1086504 
    3710    1210.2263   -9014.5481   -8879.5456   -1540.2867    17588.761    7.1101148 
    3720    1219.0769    -9016.668   -8880.6781   -117.21516    17575.917    7.1061064 
    3730    1179.2648    -9013.395   -8881.8462    1434.8289    17563.365     7.096545 
    3740    1193.3632   -9016.1404   -8883.0189    1558.2317    17552.002    7.0875523 
    3750      1151.88   -9012.6374   -8884.1434    3022.5527    17542.083    7.0870368 
    3760    1147.1647   -9013.1696   -8885.2016    4492.4443    17534.423    7.0895488 
    3770    1168.2682   -9016.5164   -8886.1943    5528.4343    17529.911    7.0887366 
    3780    1221.9377    -9023.546   -8887.2371    5316.1494     17529.06    7.0818905 
    3790    1188.9867   -9021.0237   -8888.3905     6434.524     17531.82    7.0717669 
    3800    1134.1635   -9016.0556    -8889.538    7271.2349    17538.704    7.0566458 
    3810    1133.7541   -9017.0416   -8890.5696     6002.112    17550.061    7.0366397 
    3820    1169.3326   -9021.9478   -8891.5069    3811.9451    17565.023    7.0129281 
    3830    1143.6743   -9019.9656    -8892.387    2674.8903     17582.19    6.9876095 
    3840    1108.1683   -9016.7804   -8893.1625    1537.3107    17600.687    6.9613287 
    3850    1136.0024   -9020.5375   -8893.8147   -532.51859    17619.678    6.9355032 
    3860     1160.164   -9023.8226   -8894.4046   -1515.5837    17637.892    6.9171998 
    3870    1157.3123   -9024.0809   -8894.9809   -1267.2514    17654.728    6.9094352 
    3880    1164.2079   -9025.4347   -8895.5656   -1175.0204    17670.316    6.9141841 
    3890      1162.45   -9025.8341   -8896.1611   -1416.4649    17684.716    6.9358596 
    3900    1132.3205   -9023.0476   -8896.7355   -540.14909    17697.915    6.9721187 
    3910    1135.7028   -9023.9422   -8897.2529   -387.21709    17710.422    7.0099966 
    3920    1162.9996   -9027.4674    -8897.733   -1941.0629    17722.261    7.0387947 
    3930    1128.1447   -9024.0203    -8898.174   -2364.6208    17732.605    7.0604017 
    3940    1097.7131   -9020.9808   -8898.5292   -2435.7795    17741.158    7.0776557 
    3950    1127.8498   -9024.5883   -8898.7749   -3198.5748    17747.827    7.0945397 
    3960    1157.2511   -9028.0436   -8898.9505   -3500.3633    17752.225    7.1160695 
    3970    1158.9881   -9028.3968   -8899.1099   -3609.7342    17754.173    7.1398038 
    3980     1168.731   -9029.6583   -8899.2846   -3851.8713    17753.632    7.1632502 
    3990     1156.923   -9028.5157   -8899.4592   -4101.5303    17750.501    7.1901238 
    4000    1166.5673    -9029.791   -8899.6587   -3049.3068    17744.754    7.2213062 
    4010     1160.592   -9029.3442   -8899.8785   -755.71015    17737.154    7.2535145 
    4020    1145.8908   -9027.9087   -8900.0828    1129.6258    17729.206    7.2827343 
    4030    1184.5509   -9032.4234    -8900.285    1580.7502    17722.074    7.3091331 
    4040    1192.6625   -9033.5709   -8900.5276    2218.5347    17716.152    7.3395126 
    4050    1167.8241   -9031.0763   -8900.8038     2309.209     17711.81    7.3742687 
    4060    1181.6256   -9032.8968   -8901.0847    997.98711    17708.994    7.4093234 
    4070    1186.9545    -9033.794   -8901.3874    128.12293    17706.912    7.4409976 
    4080    1182.6369   -9033.6771   -8901.7522    41.933519    17705.008    7.4673213 
    4090    1145.7429   -9029.9315   -8902.1222    514.98875    17703.217    7.4928333 
    4100    1164.4145   -9032.3741    -8902.482    593.45311    17701.774    7.5237643 
    4110    1198.1304   -9036.5269   -8902.8737    1349.5231    17700.794    7.5640681 
    4120    1209.1226   -9038.2362   -8903.3567    3626.0527    17700.842      7.60567 
    4130    1200.3246   -9037.8683   -8903.9702    6063.3346    17703.341    7.6347223 
    4140    1167.6409   -9034.9122   -8904.6601    7252.4084    17709.812    7.6460609 
    4150    1168.6296   -9035.7684    -8905.406    6620.2792    17720.941    7.6462045 
    4160    1153.3842   -9034.8112   -8906.1494    5591.0437    17736.337    7.6483153 
    4170    1169.8945      -9037.4   -8906.8965    4410.6703    17755.255    7.6568909 
    4180    1164.6647   -9037.5707   -8907.6506     3156.819    17776.877    7.6663424 
    4190    1120.5932   -9033.3745   -8908.3706    1338.1154    17800.272    7.6688734 
    4200    1096.8654    -9031.297     -8908.94    -1328.177    17824.146    7.6682342 
    4210     1164.972   -9039.3381   -8909.3838   -4152.4315    17846.709    7.6755577 
    4220    1146.8793   -9037.6903   -8909.7542   -4754.7812    17866.224    7.6896362 
    4230      1114.65   -9034.4092   -8910.0683   -4919.3101    17882.193    7.7030377 
    4240      1106.41   -9033.6832   -8910.2615   -5140.0825    17894.549     7.711234 
    4250    1138.6957   -9037.3868   -8910.3636    -5918.645    17903.117    7.7174958 
    4260    1143.8385   -9038.0173   -8910.4203   -5731.9848    17907.544    7.7236421 
    4270     1149.763   -9038.7181   -8910.4603   -5531.7678    17907.963    7.7309144 
    4280    1150.0266   -9038.7797   -8910.4925   -5703.5663     17904.56    7.7397864 
    4290    1127.3225   -9036.2656   -8910.5111   -5643.1231    17897.326    7.7485063 
    4300    1132.3264   -9036.8082   -8910.4955   -4955.1879    17886.391    7.7577717 
    4310     1132.448    -9036.743   -8910.4167   -2896.1924    17872.338    7.7727222 
    4320    1150.3155   -9038.5802   -8910.2607   -1058.5785    17856.518    7.7919472 
    4330    1206.0557   -9044.6438   -8910.1065   -213.39019    17840.188    7.8077738 
    4340    1193.6504   -9043.1765    -8910.023     1138.968    17824.059    7.8153661 
    4350    1174.7447   -9041.0852   -8910.0407     2080.994    17808.968    7.8135641 
    4360    1167.9104   -9040.3549   -8910.0727    2451.1061    17795.546    7.8062347 
    4370    1181.6314   -9041.9104   -8910.0977    1719.9136    17783.957     7.798164 
    4380    1153.2445   -9038.7635   -8910.1174    1541.7132    17773.807    7.7896188 
    4390    1169.2601   -9040.5831   -8910.1504    897.50541    17764.858    7.7807914 
    4400    1189.7979   -9042.9282   -8910.2044    819.02305    17756.746     7.778253 
    4410    1148.9949   -9038.4533   -8910.2812    2013.3406    17749.444    7.7860443 
    4420    1124.7342   -9035.7891   -8910.3233    1876.5762      17743.6    7.7985107 
    4430    1158.3166   -9039.5099    -8910.298    -380.5559    17739.006    7.8065662 
    4440    1170.4763   -9040.7946   -8910.2263   -1462.6964    17734.331    7.8096151 
    4450    1150.9845   -9038.5128   -8910.1187   -1387.2256    17728.872    7.8147491 
    4460    1161.3761   -9039.5137   -8909.9604    -957.7373    17722.664    7.8211479 
    4470    1178.9042   -9041.2995    -8909.791   -799.54265     17715.96    7.8160525 
    4480    1159.3012   -9038.9641   -8909.6423   -1047.5633     17708.88    7.8021366 
    4490    1183.8513    -9041.593   -8909.5326   -2065.3928    17701.264    7.7977381 
    4500     1204.058   -9043.8077   -8909.4933   -3329.4578    17692.452     7.806383 
    4510    1212.2787   -9044.8127   -8909.5812   -2753.5796    17681.736    7.8212447 
    4520     1187.276   -9042.2345   -8909.7921   -209.84731    17669.571    7.8427619 
    4530    1152.3902   -9038.6119    -8910.061    2469.1993    17657.594      7.87253 
    4540    1166.7602   -9040.4859    -8910.332     3157.092    17647.434    7.9082643 
    4550    1208.5995   -9045.4627   -8910.6416    2151.0243    17639.535    7.9471439 
    4560    1243.1814    -9049.782   -8911.1032    1169.7887    17633.252    7.9888619 
    4570    1188.1649   -9044.2555   -8911.7139    1828.2953    17628.015    8.0343304 
    4580    1156.5288    -9041.361   -8912.3484    2220.9663    17624.118    8.0787141 
    4590    1196.7225      -9046.5   -8913.0038    1998.9819    17621.756    8.1174177 
    4600    1179.1672   -9045.2625   -8913.7246     2491.841    17620.842    8.1468283 
    4610    1173.0752   -9045.3478   -8914.4895    2938.2474     17621.59    8.1620482 
    4620    1191.1844   -9048.1353   -8915.2569    2312.3932      17624.2      8.17068 
    4630    1225.7171   -9052.8302   -8916.0996    1043.4532    17628.253    8.1788833 
    4640    1236.4182    -9055.007   -8917.0827    484.28261    17632.953    8.1896645 
    4650    1231.7258    -9055.605   -8918.2041    283.82257    17637.863    8.2067467 
    4660    1182.2911   -9051.2545   -8919.3682     1423.211    17642.946    8.2331101 
    4670    1147.9793   -9048.4961   -8920.4373    2146.9375    17648.846    8.2676134 
    4680    1158.4525   -9050.6074   -8921.3803    1690.4729    17655.985    8.3043745 
    4690     1147.475   -9050.1891   -8922.1865    976.62912    17664.091     8.337746 
    4700    1159.9105   -9052.2575   -8922.8677   -506.21526    17672.631     8.362485 
    4710    1179.8194   -9055.0766   -8923.4659   -1469.5519    17680.684    8.3792497 
    4720    1182.9419   -9055.9978   -8924.0389   -916.65624    17687.668     8.392336 
    4730    1151.9863   -9053.0725   -8924.5667    296.00333    17693.936    8.3998605 
    4740    1111.2273   -9048.9641   -8925.0051      908.358    17700.227    8.4024473 
    4750    1109.6859   -9049.1136   -8925.3265    538.39249    17706.918    8.4087802 
    4760    1090.3143   -9047.1203   -8925.4941    506.42816    17713.876    8.4218113 
    4770    1149.1959   -9053.7365    -8925.542   -516.33114    17720.962    8.4386552 
    4780    1201.3653   -9059.5735   -8925.5594    112.76574    17727.676    8.4573059 
    4790    1145.8142   -9053.4584   -8925.6411    2715.3387    17734.462    8.4716949 
    4800    1109.2154   -9049.4473   -8925.7126    2195.7505    17742.768    8.4658403 
    4810    1148.5642   -9053.8317   -8925.7076   -2094.7315    17752.166    8.4377708 
    4820    1112.0176   -9049.6588   -8925.6116   -5203.1512    17760.037    8.4036437 
    4830     1103.285   -9048.4989   -8925.4258   -7726.2521    17764.254    8.3738727 
    4840    1133.7135   -9051.5962   -8925.1287   -9053.6269    17763.246    8.3519204 
    4850    1140.3522   -9051.9724   -8924.7644   -8279.3602    17756.282    8.3413872 
    4860    1181.4982   -9056.1665   -8924.3686   -7241.3619    17743.902    8.3404571 
    4870    1215.2037   -9059.5485   -8923.9907   -5959.3817    17726.888     8.340283 
    4880    1170.7598   -9054.2542   -8923.6542   -3133.0845    17706.311    8.3389826 
    4890    1147.5238   -9051.3173   -8923.3093   -1318.9797    17683.993    8.3376719 
    4900      1179.29   -9054.4746   -8922.9231   -996.50244    17661.168    8.3424828 
    4910    1170.0254   -9053.0361   -8922.5181    700.89028    17638.251    8.3569535 
    4920    1165.1742   -9052.0784   -8922.1015     3256.885    17616.315     8.379181 
    4930    1195.7511   -9055.0454   -8921.6575    4567.2509    17596.931    8.4030244 
    4940    1229.1939   -9058.3873   -8921.2689    4880.7785    17580.927    8.4222241 
    4950    1210.9131   -9056.0778   -8920.9986    5965.8796     17568.55    8.4361095 
    4960    1174.2719   -9051.8323   -8920.8405    6477.7859    17560.318    8.4491422 
    4970    1162.6248   -9050.4211   -8920.7285    6111.4531    17556.453    8.4592461 
    4980    1179.5677   -9052.2082   -8920.6256    5594.9737    17556.693     8.457588 
    4990    1186.6122   -9052.9045   -8920.5361    4668.2099    17560.624    8.4444896 
    5000     1202.132   -9054.5921   -8920.4925    1864.9183    17567.434    8.4297173 
Loop time of 2450.49 on 16 procs for 3000 steps with 864 atoms

Performance: 0.106 ns/day, 226.897 hours/ns, 1.224 timesteps/s
96.7% CPU use with 16 MPI tasks x 1 OpenMP threads

MPI task timing breakdown:
Section |  min time  |  avg time  |  max time  |%varavg| %total
---------------------------------------------------------------
Pair    | 694.42     | 1607.2     | 2336.7     |1456.0 | 65.59
Bond    | 0.00026441 | 0.0007607  | 0.0018535  |   0.0 |  0.00
Neigh   | 0.021387   | 0.053599   | 0.097207   |  11.3 |  0.00
Comm    | 16.083     | 659.5      | 1409.5     |1845.1 | 26.91
Output  | 0.26858    | 0.27165    | 0.31618    |   2.2 |  0.01
Modify  | 86.219     | 183.43     | 582.59     |1247.1 |  7.49
Other   |            | 0.01645    |            |       |  0.00

Nlocal:        54.0000 ave          85 max          21 min
Histogram: 3 2 1 1 1 1 1 0 2 4
Nghost:        538.438 ave         754 max         345 min
Histogram: 4 0 1 2 1 2 2 1 1 2
Neighs:         0.00000 ave           0 max           0 min
Histogram: 16 0 0 0 0 0 0 0 0 0
FullNghs:      3024.25 ave        5986 max         505 min
Histogram: 5 1 1 1 0 2 0 2 0 4

Total # of neighbors = 48388
Ave neighs/atom = 56.004630
Ave special neighs/atom = 0.0000000
Neighbor list builds = 300
Dangerous builds = 300
unfix   2

fix     3 all npt temp 1162.5 1162.5 $(100.0*dt) aniso 1.01325 1.01325 $(1000.0*dt)
fix     3 all npt temp 1162.5 1162.5 0.10000000000000000555 aniso 1.01325 1.01325 $(1000.0*dt)
fix     3 all npt temp 1162.5 1162.5 0.10000000000000000555 aniso 1.01325 1.01325 1
run     20000
Per MPI rank memory allocation (min/avg/max) = 8.895 | 8.912 | 8.921 Mbytes
Step Temp PotEng TotEng Press Volume c_msd[4] 
    5000     1202.132   -9054.5921   -8920.4925    1864.9183    17567.434    8.4297173 
    5010    1191.0582   -9053.4006   -8920.5362   -157.10672    17567.807    8.4358297 
    5020    1187.4586   -9053.1112   -8920.6484   -1383.3294    17568.142    8.4457643 
    5030    1214.7304   -9056.3492   -8920.8442   -1753.8474    17567.596    8.4568545 
    5040    1186.2705   -9053.4699   -8921.1396    140.82727    17566.022     8.467395 
    5050    1147.0642    -9049.451   -8921.4942    2333.8441    17564.569    8.4764366 
    5060    1142.1791   -9049.2372   -8921.8254    2944.2349    17564.597    8.4847396 
    5070    1187.2925   -9054.6181   -8922.1738    2245.2284    17566.517    8.4885279 
    5080    1165.1647   -9052.5412   -8922.5654    2851.7125    17570.041    8.4788972 
    5090    1179.7976   -9054.6277   -8923.0195    2207.9743    17575.389    8.4558674 
    5100    1191.5464   -9056.4667   -8923.5479    931.47896    17582.208    8.4302416 
    5110    1156.6045   -9053.1753   -8924.1543    609.64502     17589.74    8.4136526 
    5120    1175.3958   -9055.9295   -8924.8123   -961.90503    17597.624    8.4174756 
    5130    1239.4286   -9063.8732   -8925.6131   -3192.1576     17604.84    8.4443203 
    5140    1218.4436   -9062.5667   -8926.6475   -2464.9873     17610.15    8.4834446 
    5150    1150.4004    -9056.171   -8927.8421   -1068.5074    17613.849    8.5228357 
    5160    1119.5045   -9053.8972   -8929.0148   -584.86539    17616.803    8.5622931 
    5170    1130.8675   -9056.2504   -8930.1004    -1043.685    17619.316    8.6016222 
    5180    1096.9209   -9053.3725   -8931.0093   -937.91996    17621.189    8.6432424 
    5190    1074.5432   -9051.5202   -8931.6533   -1290.2052    17622.433    8.6809078 
    5200    1157.0177   -9061.1533   -8932.0862   -4260.9945    17622.639    8.7060643 
    5210    1195.4968   -9065.8363   -8932.4769   -5720.2689    17620.087    8.7281689 
    5220    1110.2567   -9056.6734   -8932.8226   -4432.1136    17613.873    8.7483586 
    5230      1137.48   -9059.9473   -8933.0597   -5315.9494    17604.527    8.7666241 
    5240    1199.1917   -9067.0409   -8933.2693   -7078.9694    17591.567    8.7883777 
    5250    1139.8832   -9060.6663   -8933.5106   -6819.4315    17573.997    8.8195653 
    5260     1127.614   -9059.5133   -8933.7262   -5576.5882    17551.912    8.8525794 
    5270    1115.3432   -9058.2595   -8933.8413   -3264.6004     17526.15    8.8814442 
    5280    1110.0616   -9057.6452   -8933.8161   -1181.5334    17498.193    8.9067187 
    5290     1166.865   -9063.8716   -8933.7061    411.21709    17469.417    8.9297098 
    5300    1146.9212   -9061.4713   -8933.5306    4468.0588    17441.101     8.948868 
    5310    1167.7964   -9063.5857   -8933.3163    6482.8458      17415.6    8.9583377 
    5320    1207.3607   -9067.8344   -8933.1515    6273.1186    17394.234    8.9606444 
    5330    1148.4107   -9061.1648   -8933.0579    7150.0462    17377.081    8.9656652 
    5340    1135.0556   -9059.6005   -8932.9834    6848.7112     17364.51    8.9746425 
    5350    1134.5961   -9059.4364   -8932.8705     6898.612    17356.435    8.9842947 
    5360    1124.5663   -9058.1582   -8932.7112    7173.3385    17352.873     8.989221 
    5370    1129.6704   -9058.5112   -8932.4948    6478.2327    17353.917     8.989378 
    5380     1159.482   -9061.5764   -8932.2344     5560.973    17359.172    8.9932941 
    5390    1185.0886   -9064.1828   -8931.9844    5007.0525    17368.072    8.9987447 
    5400    1165.6967   -9061.8174   -8931.7822     4141.345    17380.244    9.0011147 
    5410    1193.8233   -9064.7923   -8931.6195    1504.6466     17395.05    9.0039061 
    5420    1203.8434   -9065.8081   -8931.5175   -568.16126    17410.918    9.0070768 
    5430    1150.9681   -9059.8794   -8931.4871   -1381.9776    17426.528    9.0049913 
    5440    1104.9369   -9054.6946   -8931.4372   -2252.7988    17441.256    9.0017713 
    5450    1132.1105   -9057.5762   -8931.2875   -4137.2207    17454.478    9.0049101 
    5460    1149.4372   -9059.2748   -8931.0533    -5853.179    17464.991    9.0157014 
    5470     1122.377   -9055.9816   -8930.7788   -5674.0212      17471.8    9.0346308 
    5480     1145.974    -9058.286   -8930.4508   -6186.5441    17474.826    9.0643494 
    5490    1157.7995   -9059.2233    -8930.069    -5366.131    17473.865     9.101334 
    5500     1140.467   -9056.8717   -8929.6509   -3272.2033    17469.447    9.1406557 
    5510    1144.8234   -9056.8938    -8929.187   -2089.8371    17462.801    9.1799929 
    5520     1126.789   -9054.3431   -8928.6481   -160.32941    17454.844    9.2164618 
    5530    1152.4492   -9056.5704    -8928.013    1290.2219    17446.748    9.2448245 
    5540    1210.9087   -9062.3859   -8927.3072    1610.6581    17439.418    9.2653501 
    5550    1184.7196   -9058.8037   -8926.6464    3108.6176    17433.218    9.2813684 
    5560     1148.788   -9054.1813   -8926.0323    5103.4138    17429.093    9.2955926 
    5570    1180.3735   -9057.0793   -8925.4068    4982.6845    17428.184    9.3081721 
    5580    1175.2948   -9055.8651   -8924.7592    3885.2886    17430.498    9.3128189 
    5590    1201.0599   -9058.1213   -8924.1413    2252.3228     17435.33     9.308934 
    5600    1202.1695   -9057.6516   -8923.5478    888.05346    17441.673    9.3042032 
    5610     1198.832    -9056.755   -8923.0235    248.78695    17448.667    9.3049183 
    5620    1205.8306   -9057.0465   -8922.5343   -801.55192    17455.806    9.3047004 
    5630    1240.5167   -9060.5038   -8922.1223   -1866.3275     17462.42    9.2946931 
    5640    1189.3352   -9054.4974   -8921.8253   -18.205952    17468.057    9.2768517 
    5650     1155.396   -9050.4904   -8921.6042    777.19228    17473.606    9.2535024 
    5660    1205.0606   -9055.7774   -8921.3511   -406.02447    17479.561    9.2274881 
    5670    1228.6766   -9058.1357    -8921.075   -1643.5229    17485.277     9.205986 
    5680    1195.2607   -9054.1662   -8920.8331   -1618.8025    17490.013    9.1915879 
    5690     1159.032   -9049.8949   -8920.6032   -1879.5809     17493.66    9.1763792 
    5700    1138.8422    -9047.336   -8920.2964   -2680.7187    17496.054    9.1511723 
    5710     1196.631    -9053.354    -8919.868   -3708.0508    17496.657    9.1216675 
    5720    1188.7412   -9051.9284   -8919.3225   -2274.9788    17495.003    9.1009303 
    5730      1168.74   -9049.1182   -8918.7435   -1016.7544    17491.845    9.0866147 
    5740    1225.9182   -9054.8623   -8918.1093   -2136.8853    17487.878    9.0748094 
    5750    1246.5159   -9056.5445   -8917.4938   -2452.6261    17482.564    9.0682972 
    5760    1239.5516   -9055.2967   -8917.0229    56.196585    17475.813    9.0697172 
    5770    1204.7139   -9051.0795   -8916.6919    3455.5064    17469.155    9.0764895 
    5780    1185.0536    -9048.647   -8916.4525    5401.9382    17464.722    9.0817759 
    5790    1253.4159   -9056.1165    -8916.296    3542.2338    17463.623    9.0812963 
    5800    1270.0682   -9057.9895   -8916.3115    1216.3236    17464.846    9.0775149 
    5810     1228.391   -9053.5947   -8916.5658    813.75609    17466.997    9.0706716 
    5820    1211.3192   -9052.1036   -8916.9792    926.11451    17469.696    9.0590521 
    5830    1181.8628   -9049.3104   -8917.4719    2068.6142    17473.064    9.0490994 
    5840    1155.7981   -9046.9481   -8918.0171    2857.3062    17477.763    9.0417872 
    5850    1169.3554   -9049.0161   -8918.5727    1302.6542    17484.167    9.0343152 
    5860    1222.7359   -9055.5817   -8919.1836    -715.4685     17491.38    9.0287073 
    5870    1238.5909   -9058.1154   -8919.9487   -2049.8577    17498.136    9.0290462 
    5880    1217.3222   -9056.6883   -8920.8942   -3053.6674    17503.528    9.0355359 
    5890    1200.7864   -9055.9054   -8921.9559   -4136.5028    17506.884    9.0468681 
    5900    1166.7879    -9053.173    -8923.016   -4358.7162    17507.585    9.0619147 
    5910    1202.2563   -9058.1816   -8924.0681   -4747.6876     17505.36    9.0786219 
    5920    1211.9002   -9060.3319   -8925.1426   -3708.5033    17500.116    9.0987646 
    5930    1182.1762   -9058.0871   -8926.2136   -2544.5216    17492.466    9.1214329 
    5940    1157.6998   -9056.3713   -8927.2281   -2091.8826    17483.154    9.1408874 
    5950    1115.9665   -9052.5782   -8928.0905   -2559.5647    17472.437    9.1540618 
    5960    1128.4867   -9054.6608   -8928.7764    -2786.339    17460.124    9.1613137 
    5970    1155.5971   -9058.2361   -8929.3275   -2722.3578     17446.07    9.1681015 
    5980    1214.3315   -9065.2914   -8929.8309   -1163.8408     17430.45    9.1797906 
    5990      1242.08   -9068.9455   -8930.3896    478.23119    17414.185    9.1961246 
    6000    1195.8926   -9064.4034   -8930.9998     2592.458    17398.444    9.2126457 
    6010    1173.9396   -9062.5332   -8931.5785    3925.9098    17384.516     9.228616 
    6020    1209.4276   -9067.0417   -8932.1282    4721.1528    17373.259    9.2407621 
    6030    1237.6741    -9070.846   -8932.7816    5885.4773    17365.223    9.2458667 
    6040    1164.3547   -9063.3963   -8933.5108    7296.7741     17361.14    9.2467261 
    6050     1170.991   -9064.8862   -8934.2604    6168.0197    17361.668    9.2439667 
    6060    1173.9895    -9065.976   -8935.0157    5595.2826    17366.244    9.2428654 
    6070    1124.2883   -9061.1102   -8935.6941    4971.4409    17374.416    9.2509178 
    6080    1194.9628    -9069.615   -8936.3151    1482.0137    17385.541    9.2675434 
    6090    1198.0237   -9070.5908   -8936.9494    113.37214    17397.643    9.2930254 
    6100    1110.0989   -9061.3972    -8937.564    1528.0644    17409.864    9.3254562 
    6110    1095.2725   -9060.2098   -8938.0305    1297.1375    17422.847    9.3579613 
    6120    1139.3593   -9065.4426   -8938.3453    120.16254     17436.49    9.3871863 
    6130    1155.5048   -9067.4762   -8938.5779   -206.26923    17450.145    9.4110181 
    6140    1180.3731   -9070.4699   -8938.7975    -1153.023    17463.457    9.4278001 
    6150     1174.622   -9070.0678   -8939.0369   -2075.7389     17475.85    9.4341339 
    6160    1126.0025    -9064.866   -8939.2587   -2461.0942    17486.783     9.425801 
    6170    1100.8188    -9062.191   -8939.3931   -3565.7308    17495.947    9.4078056 
    6180    1155.7277   -9068.3558   -8939.4326   -5562.3705    17502.622    9.3923244 
    6190    1196.5682   -9072.9591   -8939.4801   -6309.7646    17505.654    9.3896537 
    6200    1134.0014   -9066.0655   -8939.5659   -5631.2338    17504.614    9.3983159 
    6210    1127.3481   -9065.3935   -8939.6361   -5947.2063    17499.806    9.4091693 
    6220    1140.9032   -9066.8974    -8939.628   -5275.5223    17491.254    9.4191739 
    6230    1165.6853   -9069.6141   -8939.5801   -4146.7757    17479.361    9.4284364 
    6240    1157.9529   -9068.6649   -8939.4935   -1467.3458    17465.016    9.4365191 
    6250    1166.0125   -9069.4469   -8939.3765    186.45385    17449.861    9.4461602 
    6260    1166.4586   -9069.3755   -8939.2553    660.76256    17434.984    9.4616417 
    6270    1151.0272   -9067.5274   -8939.1285    1021.2976    17420.764    9.4811815 
    6280    1159.6302   -9068.3388   -8938.9803    999.61385    17407.398    9.5007514 
    6290    1170.0061   -9069.3183   -8938.8023   -16.346207      17394.8    9.5200462 
    6300    1179.4882   -9070.1992   -8938.6255   -1349.8674    17382.365    9.5383705 
    6310    1160.9185   -9067.9832    -8938.481   -2054.1078    17369.272    9.5526596 
    6320    1129.9639   -9064.3598   -8938.3106   -1681.0434    17355.131    9.5613697 
    6330    1205.3544   -9072.5616   -8938.1025   -2542.4005    17340.026    9.5643246 
    6340    1218.7889    -9073.868   -8937.9102   -1537.7345    17323.629    9.5656849 
    6350    1165.9144   -9067.8141   -8937.7546    2154.1119    17306.669    9.5664102 
    6360    1193.3524   -9070.6967   -8937.5764    4950.3394    17291.312    9.5677064 
    6370    1211.6908   -9072.5604   -8937.3944    5992.6999    17279.306    9.5728723 
    6380    1172.0055   -9068.0143   -8937.2753    5384.0324    17271.239    9.5820527 
    6390    1166.3833   -9067.2824   -8937.1706    4081.9997    17266.724    9.5912788 
    6400    1220.8595   -9073.2934   -8937.1047    2525.2181    17264.868    9.5888994 
    6410    1153.0314   -9065.7283   -8937.1059    3583.7574    17264.842    9.5737124 
    6420    1124.1552   -9062.5216   -8937.1204    3354.1726     17267.02    9.5519256 
    6430    1204.6584   -9071.4765    -8937.095    226.47486    17271.151    9.5320753 
    6440    1239.5134   -9075.4339   -8937.1643   -1980.4961    17275.405    9.5266205 
    6450    1164.2308   -9067.2608   -8937.3891   -1509.8305    17278.497    9.5341784 
    6460    1163.0451   -9067.4302   -8937.6907   -2847.2479    17280.455     9.542766 
    6470    1183.6626   -9070.0924    -8938.053   -4668.8278    17280.545    9.5519712 
    6480    1140.4168   -9065.6934   -8938.4782   -4799.3323    17277.753     9.570263 
    6490    1145.8086   -9066.7583   -8938.9416   -4245.7665    17271.965    9.6012155 
    6500    1143.8365   -9066.9936   -8939.3969    -3211.694    17263.602    9.6436818 
    6510    1137.1873   -9066.6752   -8939.8203   -2215.9359    17253.328    9.6960094 
    6520    1154.9484   -9069.0241   -8940.1878    -1269.832    17241.813     9.754744 
    6530    1174.4962   -9071.5416   -8940.5248   -141.35029    17229.729    9.8168656 
    6540    1169.0474   -9071.3124   -8940.9034    981.67617    17217.802    9.8809064 
    6550     1128.514   -9067.1774     -8941.29    1857.3905    17206.739    9.9474615 
    6560    1126.3539   -9067.2754    -8941.629    2356.2418    17197.083    10.014906 
    6570    1153.4644   -9070.5805   -8941.9098    2505.3131    17189.112    10.078608 
    6580    1190.4789   -9074.9845   -8942.1847    2311.4297    17182.871    10.132403 
    6590    1173.3291   -9073.3808   -8942.4942    2781.1005     17178.26    10.176884 
    6600    1158.2238   -9072.0214   -8942.8198    2437.4298    17175.466    10.211464 
    6610    1163.8514   -9072.9883    -8943.159    1875.6901    17174.272    10.236263 
    6620    1150.6156   -9071.8905   -8943.5376    2040.0953    17174.352     10.25752 
    6630    1159.3129   -9073.2667   -8943.9436    1642.4408    17175.699    10.271453 
    6640    1197.7153   -9078.0309    -8944.424    1630.5672     17178.06    10.278436 
    6650    1169.2189   -9075.4167   -8944.9886    3535.6951    17181.535    10.284589 
    6660     1152.231    -9074.156   -8945.6229     4415.602    17187.099     10.29211 
    6670    1128.6988   -9072.1611    -8946.253    4736.2475    17195.297    10.304368 
    6680    1122.9843   -9072.1002   -8946.8296    3410.7568    17206.199    10.324821 
    6690    1134.9818   -9073.9464   -8947.3375     1473.215    17219.017    10.347816 
    6700    1128.9994   -9073.7399   -8947.7983   -843.76399    17232.466    10.363114 
    6710    1093.6679   -9070.1604   -8948.1601   -3153.8764    17245.088    10.365865 
    6720    1102.6467   -9071.3954   -8948.3935    -5492.196    17255.409    10.356668 
    6730    1111.1683   -9072.4576   -8948.5051   -6954.9492    17262.059    10.349582 
    6740    1095.7897   -9070.7359   -8948.4989   -8145.0312    17264.142    10.361635 
    6750    1129.3394    -9074.375   -8948.3955   -9347.2709    17260.967    10.388583 
    6760    1128.9781   -9074.1547   -8948.2155    -8287.462    17252.066    10.426289 
    6770    1097.1483   -9070.3362   -8947.9477   -5535.0943    17238.207    10.473307 
    6780    1144.0204   -9075.1522    -8947.535   -3726.3933    17221.083    10.521962 
    6790    1145.0543   -9074.6879   -8946.9553   -1229.2448    17202.061    10.571318 
    6800    1118.3124   -9070.9889   -8946.2394    1089.7866    17182.706    10.619107 
    6810    1119.4039   -9070.2229   -8945.3517    2685.1254    17164.487    10.655912 
    6820     1117.634   -9068.9635   -8944.2897    4284.6259    17148.416    10.677959 
    6830    1130.3074   -9069.1622   -8943.0747    5217.9876    17135.374    10.688443 
    6840    1137.4617   -9068.6515   -8941.7659    6370.4531    17125.947    10.698676 
    6850    1137.9534   -9067.4071   -8940.4667    7039.4229    17120.728    10.712422 
    6860    1192.4291   -9072.2989   -8939.2816    6415.4389    17119.948    10.720746 
    6870    1193.2709   -9071.4096   -8938.2985    7523.2849     17123.32    10.719968 
    6880    1154.3961   -9066.3596    -8937.585    7837.7221      17131.3    10.711147 
    6890    1182.0356   -9068.8846   -8937.0268    4738.7004    17143.818    10.698559 
    6900    1195.6552    -9069.952   -8936.5748    1797.2675    17159.065    10.690861 
    6910    1174.4777   -9067.2579   -8936.2431   -91.223433    17175.189    10.689149 
    6920    1175.3688   -9067.0951   -8935.9809   -2246.5671     17190.89    10.690921 
    6930    1210.9526   -9070.8653   -8935.7817   -4488.7688    17204.835    10.696027 
    6940    1207.7462   -9070.4146   -8935.6886   -5237.8976    17215.739    10.705158 
    6950    1173.6197   -9066.6188   -8935.6998    -4659.059    17223.181    10.715361 
    6960    1193.8098   -9068.9501   -8935.7788   -5384.3752    17227.418    10.723735 
    6970    1211.7481   -9071.0998   -8935.9275   -5736.4029     17228.18    10.725908 
    6980    1217.7623   -9072.0421   -8936.1988   -5947.3547    17225.287    10.720174 
    6990    1176.9334   -9067.8659   -8936.5772   -5225.0474     17218.75     10.71126 
    7000     1139.093   -9064.0452   -8936.9777   -4082.3008    17209.052    10.707674 
    7010    1142.8347   -9064.8166   -8937.3316   -3878.7041    17196.889    10.713101 
    7020     1176.389   -9068.8911   -8937.6632   -2940.7278    17182.567    10.729309 
    7030    1168.1394   -9068.2923   -8937.9846   -1114.4539    17166.709    10.758584 
    7040    1157.8503   -9067.4429    -8938.283    789.94357    17150.487    10.797018 
    7050     1169.094   -9068.9825   -8938.5683    969.91133    17134.983    10.832799 
    7060    1184.9624   -9071.0678   -8938.8834    588.41588    17120.352    10.856401 
    7070    1180.8567   -9070.9909   -8939.2645     1586.021    17106.438    10.869072 
    7080    1142.7471   -9067.1414   -8939.6663    3752.3565    17093.846    10.876193 
    7090    1163.4092   -9069.8385   -8940.0585    4377.0694    17083.736    10.887927 
    7100    1196.0893   -9073.9052   -8940.4796     4520.893    17076.521    10.918291 
    7110    1193.0262   -9074.0702   -8940.9864    5436.3363    17072.312    10.964687 
    7120    1170.1153   -9072.1054   -8941.5773    5028.8673    17071.484    11.010787 
    7130    1173.5534   -9073.1308   -8942.2192    3610.0283    17073.759    11.046905 
    7140    1198.9792   -9076.6941   -8942.9462    3264.0615    17078.316    11.071344 
    7150    1148.8457   -9071.8901   -8943.7346    4137.3006    17084.928    11.083805 
    7160    1125.8603   -9070.1025   -8944.5111    3966.1743    17094.002    11.081367 
    7170    1134.8174   -9071.8039   -8945.2133    2129.8152    17105.345    11.068352 
    7180     1145.989   -9073.6824   -8945.8456    1480.2393    17117.965    11.052325 
    7190    1178.9286   -9077.9564   -8946.4451    292.75925     17131.33     11.03955 
    7200    1180.0648   -9078.6763   -8947.0383   -1491.4608    17144.708    11.032356 
    7210    1148.0607   -9075.6634   -8947.5955   -2845.1452    17156.999    11.030014 
    7220    1118.0423   -9072.8062   -8948.0869   -2846.6707    17167.418    11.032756 
    7230    1073.5495   -9068.1979   -8948.4418   -1166.4703     17176.03    11.037494 
    7240    1072.3832   -9068.2478   -8948.6218    -1063.487    17183.686    11.039623 
    7250    1113.5175   -9072.8541   -8948.6396   -2644.8903    17190.498    11.043263 
    7260    1128.4722   -9074.4236   -8948.5408   -4764.0169     17195.53    11.055972 
    7270     1154.437   -9077.1746   -8948.3954   -5941.3562    17197.526     11.07421 
    7280    1154.2474   -9076.9917   -8948.2337   -4520.6793    17195.879     11.09142 
    7290    1140.0905   -9075.2371   -8948.0583   -2146.5794    17191.431    11.106263 
    7300    1147.9084   -9075.8956   -8947.8447    421.64843     17185.67    11.116623 
    7310    1158.7497   -9076.8436   -8947.5833     3027.048    17180.234    11.123722 
    7320    1166.0407    -9077.369   -8947.2954    5609.0593    17176.776    11.135794 
    7330     1153.212   -9075.6505    -8947.008       7715.3    17176.877    11.156249 
    7340    1163.0128   -9076.4612   -8946.7254    7910.5867    17181.775    11.180293 
    7350    1152.6195   -9075.0124    -8946.436    7481.1209    17191.638     11.20485 
    7360    1166.8205   -9076.3071   -8946.1465    7269.0468    17206.197    11.226302 
    7370    1181.2361   -9077.6182   -8945.8496    7050.1572    17225.292    11.238536 
    7380    1166.0387    -9075.631   -8945.5576    6439.0952    17248.768    11.231143 
    7390    1192.5249    -9078.248   -8945.2201    3620.7277    17276.107    11.197586 
    7400    1210.5125   -9079.8412   -8944.8067   -51.164295    17305.537    11.155415 
    7410    1151.0567   -9072.7288   -8944.3267    -1796.115     17334.86    11.121623 
    7420    1146.6423   -9071.6189   -8943.7092   -3355.0944    17362.829    11.097359 
    7430    1180.3898   -9074.4889   -8942.8147   -5759.8702    17388.363    11.071257 
    7440    1191.3948   -9074.5294   -8941.6275   -7640.6079    17409.974    11.033906 
    7450    1198.2506   -9073.8908   -8940.2241   -8952.6435     17426.42    10.988644 
    7460    1159.0693   -9067.9657   -8938.6698   -8452.1564    17437.052     10.94792 
    7470     1183.125   -9069.0397   -8937.0603   -8411.5079    17442.023    10.922903 
    7480    1187.7241    -9067.997   -8935.5046   -6529.1764    17441.563    10.916691 
    7490    1151.1201    -9062.553   -8934.1438   -4093.7649    17436.879     10.92139 
    7500    1193.3055   -9066.0827   -8932.9677   -3649.4426    17429.443    10.924991 
    7510    1208.4717   -9066.7984   -8931.9915    -2800.056     17419.72     10.92545 
    7520    1213.1197   -9066.5814   -8931.2561   -1181.6423    17408.314      10.9228 
    7530    1266.0724   -9071.9903    -8930.758    -490.8736    17396.139    10.912747 
    7540    1194.7109   -9063.7436   -8930.4718    2784.2138    17383.955    10.899726 
    7550    1207.1468   -9064.9939   -8930.3349    4014.9388    17373.563     10.88653 
    7560    1260.8115   -9070.9776   -8930.3322    3352.7997    17365.751    10.876151 
    7570    1209.2614   -9065.4081   -8930.5131    5076.9951    17360.353    10.867821 
    7580    1185.2602   -9063.0352   -8930.8177    6369.7767    17358.268    10.855348 
    7590    1242.0758    -9069.751   -8931.1956    4426.4559     17360.14     10.83843 
    7600    1269.6922   -9073.3635   -8931.7274    2236.1264    17364.864    10.822839 
    7610    1229.4815   -9069.5922   -8932.4417    1841.4018    17371.129    10.810928 
    7620    1205.5364   -9067.7624    -8933.283    1424.7475    17378.525    10.799512 
    7630    1210.3358   -9069.2147   -8934.1999    1067.1062    17386.775    10.792624 
    7640     1207.002   -9069.8166   -8935.1737    1718.6299    17395.752    10.790054 
    7650    1231.6947    -9073.621   -8936.2236    1811.4695    17405.728    10.785634 
    7660    1182.9363   -9069.2376   -8937.2793    2216.4982    17416.839    10.786922 
    7670    1182.0806   -9070.1385   -8938.2756     1151.512    17429.242    10.791257 
    7680    1182.9738   -9071.1438   -8939.1813   -1012.3881    17442.294     10.79024 
    7690    1191.4192   -9072.8995   -8939.9949   -4040.4107    17454.554    10.788506 
    7700     1187.774   -9073.2604   -8940.7624   -5768.2675    17464.162     10.79615 
    7710    1143.2644   -9068.9861   -8941.4532   -5716.1069    17470.034    10.816074 
    7720    1174.1884   -9073.0494    -8942.067    -6587.698    17472.048    10.842298 
    7730    1168.7756   -9073.0003   -8942.6217   -6055.9049     17469.82    10.871299 
    7740    1194.2313   -9076.3996   -8943.1813   -4775.9303    17463.662     10.90268 
    7750    1239.4959   -9082.0699   -8943.8022   -3951.5446    17454.364    10.930216 
    7760    1231.0019   -9081.8407   -8944.5206   -2398.7225    17442.598    10.948445 
    7770    1195.7812   -9078.7153   -8945.3241    65.807995    17429.363    10.957346 
    7780    1161.0232   -9075.5854   -8946.0715    3016.4848    17416.271    10.968496 
    7790    1229.0229   -9083.9085   -8946.8091    4358.4431    17405.133    10.985063 
    7800    1223.2542   -9084.0768   -8947.6209    5980.2211     17396.92    11.002891 
    7810     1193.051   -9081.5723   -8948.4856    6957.1003    17392.609    11.015106 
    7820    1194.1047   -9082.5657   -8949.3615    5798.2555    17392.719    11.023898 
    7830    1175.8369   -9081.3875   -8950.2211    5533.7001    17396.696    11.033805 
    7840    1172.5892    -9081.836   -8951.0319     4438.683    17404.215    11.047696 
    7850    1184.9362   -9083.9825    -8951.801    3686.5874    17414.652    11.067218 
    7860    1165.5928   -9082.5559   -8952.5322    3605.9714    17427.525    11.088918 
    7870    1156.9085    -9082.262   -8953.2071    2523.8069    17442.669    11.110934 
    7880    1156.3359   -9082.7914   -8953.8004    1572.3734    17459.476    11.132361 
    7890    1169.9556   -9084.8465   -8954.3362     505.6671    17477.297    11.144925 
    7900    1167.8589   -9085.1055   -8954.8291   -289.69717    17495.453    11.144985 
    7910    1185.0876   -9087.5247   -8955.3264    -1570.171    17513.364     11.13276 
    7920     1162.137    -9085.458   -8955.8199   -3066.9354    17530.223      11.1196 
    7930    1175.9117   -9087.4884   -8956.3136   -4632.0572    17544.996    11.115959 
    7940    1169.7343    -9087.296   -8956.8104   -4026.2126    17556.802    11.117813 
    7950    1163.8669   -9087.1348   -8957.3037   -3055.5564    17565.915    11.118945 
    7960    1150.7563   -9086.1355   -8957.7669    -1311.722     17573.05    11.126605 
    7970    1146.1271   -9086.0181   -8958.1659    321.22222    17579.326    11.145532 
    7980    1229.9872   -9095.7847   -8958.5777   -658.22922    17585.628     11.17054 
    7990    1216.7238   -9094.8265   -8959.0991    -554.7426    17591.595     11.19459 
    8000    1177.7341   -9091.0917   -8959.7137    -531.9779    17597.171    11.211803 
    8010    1192.0276   -9093.3348   -8960.3623   -1821.5726    17602.279    11.218823 
    8020    1164.1399   -9090.8871   -8961.0255   -1747.1388    17606.236    11.217739 
    8030    1142.6162   -9089.1203   -8961.6598   -50.207135    17609.133    11.213702 
    8040    1178.3909   -9093.7104   -8962.2591    555.81994    17611.932    11.211413 
    8050    1193.3103   -9095.9771   -8962.8615    847.57833    17615.071    11.213266 
    8060    1184.3432   -9095.5939   -8963.4786    2018.9711    17618.828    11.218728 
    8070    1181.6895   -9095.9461   -8964.1268    2861.0751    17623.868    11.227766 
    8080    1151.1734   -9093.1784   -8964.7633    3599.0154    17630.795    11.240571 
    8090    1150.7135   -9093.6985   -8965.3347    3106.3313    17640.031    11.252688 
    8100    1151.8625    -9094.332     -8965.84    2453.6724    17651.306     11.26477 
    8110    1123.6039   -9091.5921   -8966.2524    2322.2302    17664.248    11.280359 
    8120    1167.8759   -9096.8685   -8966.5902    631.81066    17678.627    11.302562 
    8130    1161.7294   -9096.4641   -8966.8714    -1851.431    17693.357    11.330432 
    8140    1149.0584   -9095.2942    -8967.115   -3581.5156    17706.871    11.356483 
    8150    1163.3696   -9097.1072   -8967.3316    -4535.338    17717.953    11.374801 
    8160    1146.0923   -9095.3671   -8967.5188   -4074.9099    17726.044    11.388698 
    8170    1170.9626   -9098.3147   -8967.6921   -4119.0441    17731.309    11.405261 
    8180    1174.9524   -9098.9482   -8967.8805   -3441.3012    17733.814    11.428086 
    8190    1122.3527   -9093.2563   -8968.0561   -2343.5361    17734.007    11.452103 
    8200    1143.4346   -9095.7261   -8968.1742   -2539.8055     17732.53    11.472129 
    8210    1159.1455   -9097.5444     -8968.24   -2405.1163    17729.358    11.488425 
    8220    1122.2535   -9093.4639   -8968.2748   -543.68461    17724.661    11.504228 
    8230    1123.9422   -9093.6092   -8968.2318    1445.1899    17719.627    11.526377 
    8240    1158.6469   -9097.3683   -8968.1195    2273.9355    17715.532     11.55313 
    8250    1156.1291   -9096.9394   -8967.9715    2733.9891    17712.983    11.578967 
    8260    1199.7449   -9101.6791   -8967.8457    2747.2767    17712.256    11.598629 
    8270    1211.0729   -9102.8966   -8967.7996    3292.2364     17713.43    11.615791 
    8280    1162.2729   -9097.4916   -8967.8383    4157.5829    17716.882     11.63683 
    8290    1151.3821   -9096.3371   -8967.8987    4096.8799    17723.084    11.660989 
    8300     1150.215   -9096.2433   -8967.9351    3271.9328    17732.009    11.682281 
    8310    1141.8682   -9095.3116   -8967.9345    2060.3047    17743.129    11.699858 
    8320    1138.8903   -9094.9257   -8967.8807    645.95172    17755.663    11.715647 
    8330    1150.0105   -9096.0599   -8967.7745   -1005.1817    17768.616    11.724181 
    8340    1114.5413   -9091.9301   -8967.6014   -747.02164    17781.004    11.721479 
    8350    1133.1468   -9093.7367   -8967.3325    -944.6615    17792.859    11.711461 
    8360    1164.2338    -9096.816    -8966.944   -733.38434    17804.107    11.696909 
    8370    1131.5355   -9092.6912   -8966.4667    1833.6932    17815.033    11.680301 
    8380     1149.562   -9094.0868   -8965.8514    2774.9888    17827.145    11.671979 
    8390     1199.816   -9098.8609   -8965.0196    1450.5662    17841.032    11.677031 
    8400    1181.1854   -9095.7568   -8963.9938    1384.3304    17856.058    11.690335 
    8410     1243.601   -9101.5297   -8962.8041    590.81689    17871.997    11.701323 
    8420    1244.6618   -9100.3287   -8961.4848    566.51534    17888.437    11.702256 
    8430    1190.6639   -9093.0327   -8960.2124    659.86896    17905.281    11.694152 
    8440     1204.805   -9093.3624   -8958.9646   -16.680958    17922.558    11.684841 
    8450    1174.6018   -9088.7558   -8957.7272    209.10031    17939.954    11.674161 
    8460    1224.1579   -9093.1314   -8956.5748   -1299.6266    17957.401    11.659078 
    8470    1282.8126   -9098.6365   -8955.5368   -3030.7521     17973.96    11.646182 
[...]
   22890    1121.9963    -9149.655   -9024.4946    5176.9294    18172.162    48.298949 
   22900    1140.8876   -9151.0606   -9023.7928    5469.5137    18165.458    48.339919 
   22910    1165.5391   -9152.9975   -9022.9799    5490.8515    18162.668    48.399264 
   22920    1202.4839   -9156.2518   -9022.1129    5204.1969    18163.777    48.476531 
   22930     1179.672   -9152.8623   -9021.2681    5781.8734    18168.637    48.569947 
   22940    1173.0603   -9151.3683   -9020.5116    5718.4803    18177.552    48.672806 
   22950    1162.2788    -9149.439   -9019.7851    4735.0211    18190.464    48.776942 
   22960    1154.1067   -9147.8098   -9019.0674    2534.5136    18206.649    48.879965 
   22970    1175.8919   -9149.4957   -9018.3232   -267.22334    18224.557    48.982065 
   22980    1148.4993   -9145.6958    -9017.579   -1911.2662    18242.274    49.081068 
   22990    1165.6891   -9146.8687   -9016.8343   -3918.6505    18258.531    49.176988 
   23000    1178.3313   -9147.5293   -9016.0847    -5399.704    18271.927    49.269944 
   23010    1173.2296   -9146.2765    -9015.401   -6120.1432      18281.4    49.360642 
   23020    1219.3251   -9150.8316   -9014.8141   -7079.8094    18286.387    49.459989 
   23030    1204.9157   -9148.7782   -9014.3681   -6587.0798    18286.356    49.576678 
   23040    1182.2645   -9145.9673   -9014.0839   -5936.8907     18281.55    49.699845 
   23050    1162.3762   -9143.5213   -9013.8565   -4258.1379    18272.568     49.80953 
   23060    1194.6755   -9146.9132   -9013.6453   -3397.6692    18260.499    49.892596 
   23070    1270.6571    -9155.284   -9013.5403   -3521.1479    18245.976    49.958631 
   23080    1243.2884   -9152.3397    -9013.649   -1777.8373    18229.124    50.014582 
   23090    1204.7231   -9148.3187   -9013.9301   -56.767226    18211.054    50.060944 
   23100    1220.2067   -9150.4395   -9014.3236    953.25951    18192.992    50.106454 
   23110    1203.2333   -9149.0338   -9014.8113    3043.8611    18175.805    50.166544 
   23120    1206.8267     -9150.01   -9015.3867    5478.1782    18160.881    50.247874 
   23130    1207.9178   -9150.8001   -9016.0551    7899.2286    18149.942    50.333911 
   23140    1203.7723   -9151.1393   -9016.8567    8456.9637    18144.544    50.407012 
   23150    1179.7666   -9149.3556   -9017.7508    7845.2886    18145.099      50.4671 
   23160    1188.2548   -9151.2501   -9018.6985    6048.7399    18151.126    50.522755 
   23170    1158.5121   -9148.8745   -9019.6407    4656.3919    18161.495    50.580022 
   23180    1116.3047   -9144.9886   -9020.4631    3354.3279    18175.182      50.6444 
   23190    1147.4024   -9149.1167   -9021.1222       618.34    18191.131    50.713168 
   23200    1190.0313   -9154.4124   -9021.6626   -2987.9688    18207.443    50.781898 
   23210    1173.7318   -9153.0855   -9022.1539   -5100.9959    18221.691    50.852748 
   23220    1110.4234   -9146.4169   -9022.5475   -5023.5741    18232.393    50.928795 
   23230    1108.1049   -9146.4068   -9022.7961   -5079.3304    18239.459    51.007915 
   23240    1147.5837   -9150.9405   -9022.9258   -5812.7091    18242.825    51.079982 
   23250    1167.0916   -9153.2176   -9023.0268   -6255.2429    18242.015    51.143122 
   23260     1127.777    -9148.928   -9023.1228   -5195.0446    18236.803    51.207446 
   23270    1100.3175   -9145.8949   -9023.1528   -3829.6739    18227.903    51.271575 
   23280     1148.319   -9151.1884   -9023.0917   -3564.5443    18216.216    51.331186 
   23290    1158.5374    -9152.226   -9022.9894   -2960.3997    18202.028    51.395324 
   23300    1110.6968   -9146.7393   -9022.8394   -1674.5082     18185.83    51.468767 
   23310    1154.7084    -9151.441   -9022.6316   -1809.4091     18168.35    51.560705 
   23320    1181.2281    -9154.167   -9022.3993   -528.02688    18149.725    51.677604 
   23330    1180.1611   -9153.8521   -9022.2033    2329.4014    18130.895    51.804537 
   23340    1185.3103   -9154.2719   -9022.0487    4103.0506    18113.687    51.917162 
   23350    1171.4565   -9152.6261   -9021.9483    3766.8008    18099.301     52.00768 
   23360    1170.4921   -9152.4704   -9021.9003    1387.5606    18087.468    52.080172 
   23370    1161.9915   -9151.5114   -9021.8895    200.41862    18076.738    52.153262 
   23380    1123.8147   -9147.2333   -9021.8701    1078.8415    18066.291     52.24134 
   23390    1148.4707   -9149.9051   -9021.7914    2701.0019    18056.682    52.347394 
   23400    1181.6372   -9153.4803   -9021.6669    4168.2769    18048.992    52.473624 
   23410    1177.7862   -9152.9354   -9021.5515    5086.1947    18044.227    52.612673 
   23420    1208.4851   -9156.3164   -9021.5081    3375.3332    18042.859    52.748934 
   23430    1183.0219   -9153.5174   -9021.5496    1840.5482    18043.899    52.872329 
   23440    1150.4404   -9149.9766   -9021.6433    1136.0626    18046.301    52.986407 
   23450    1165.4206   -9151.7276   -9021.7232    826.60364    18049.535    53.101631 
   23460    1143.5027   -9149.3119   -9021.7525    920.68639    18053.374    53.220698 
   23470    1159.7417   -9151.1278   -9021.7568    281.48161    18057.797    53.338111 
   23480    1177.4051   -9153.1022   -9021.7609   -791.21755    18062.385     53.43746 
   23490    1166.7759   -9151.9621   -9021.8065   -1440.1701    18066.448     53.51265 
   23500    1174.6857   -9152.9356   -9021.8977   -1847.4341    18069.507    53.578646 
   23510    1158.7017   -9151.2768   -9022.0219   -1087.5639    18071.346    53.651194 
   23520    1135.9014   -9148.8631   -9022.1516   -1013.2901     18072.38    53.736604 
   23530    1185.5314   -9154.5536   -9022.3058    -1705.959    18072.652    53.824647 
   23540     1134.887   -9149.0915   -9022.4932   -943.02454     18071.83    53.913872 
   23550    1120.9407   -9147.7265   -9022.6839   -1760.2349    18070.257    54.001554 
   23560    1163.0537   -9152.5891   -9022.8487   -3429.8149    18067.415    54.079406 
   23570    1141.1145   -9150.3027   -9023.0097   -4229.1538    18062.204    54.144934 
   23580    1171.3856   -9153.8792   -9023.2094   -5581.0691    18053.964    54.202881 
   23590    1171.5851   -9154.1545   -9023.4624   -5446.7321    18041.906    54.260949 
   23600    1153.8692    -9152.484   -9023.7682   -3501.9005    18026.115    54.325421 
   23610    1153.0396   -9152.6947   -9024.0714   -1330.8994    18007.886    54.393135 
   23620    1159.7954   -9153.7612   -9024.3843   -502.15422    17988.643    54.461386 
   23630    1140.2428   -9151.9083   -9024.7125     260.2695    17969.077    54.523621 
   23640     1131.117   -9151.2006   -9025.0228     1416.739    17949.719    54.563368 
   23650    1148.8486   -9153.4464   -9025.2906    2691.9492    17931.349    54.577486 
   23660    1150.9703   -9153.9158   -9025.5233    4409.4376    17914.923    54.587685 
   23670    1153.6586   -9154.4304   -9025.7381    5671.8028     17901.53    54.613888 
   23680    1129.9553   -9151.9651   -9025.9169    6959.4475    17892.098    54.665191 
   23690    1150.6814   -9154.4333    -9026.073    6534.7857    17887.378    54.740726 
   23700    1161.9244   -9155.8397   -9026.2253    5079.9599    17887.098    54.825193 
   23710    1134.8393   -9152.9659   -9026.3729    4772.7689    17890.421    54.911451 
   23720    1148.7465   -9154.6382   -9026.4938    3462.4559    17896.992     55.00443 
   23730    1162.0173   -9156.2114   -9026.5867    1056.9539    17905.908    55.095086 
   23740    1145.8621   -9154.4833   -9026.6606   -431.19152    17915.645    55.173966 
   23750    1142.2359   -9154.1299   -9026.7117   -937.41821    17925.181    55.246289 
   23760    1140.8546   -9153.9867   -9026.7226    -1525.528     17934.08    55.322142 
   23770    1145.4549   -9154.4798   -9026.7025   -2028.0966    17941.953    55.399464 
   23780     1134.795    -9153.234   -9026.6459   -2563.0894    17948.438    55.476197 
   23790    1140.9764   -9153.8022   -9026.5245    -4622.794    17953.057     55.55176 
   23800    1160.1302   -9155.7637   -9026.3494   -6515.3396    17954.481    55.616109 
   23810    1101.6337   -9149.0216   -9026.1327   -6150.0856    17951.506    55.668721 
   23820    1069.6733   -9145.1265   -9025.8028   -4960.3534    17944.292    55.720032 
   23830    1142.0496   -9152.6902   -9025.2929   -4940.8715     17933.53    55.780366 
   23840    1164.4349   -9154.5295    -9024.635    -3083.771    17919.459    55.849966 
   23850    1169.0784   -9154.3258   -9023.9134   -689.13619    17903.245     55.92386 
   23860    1216.3113   -9158.8464    -9023.165    865.89862    17886.486    55.999483 
   23870    1192.6968    -9155.512   -9022.4649     2398.682    17870.321     56.07956 
   23880    1164.8718    -9151.789   -9021.8458    2909.9995     17855.75    56.170254 
   23890    1132.7325   -9147.5874   -9021.2294    2158.4918     17843.12    56.277076 
   23900    1149.8497   -9148.8573   -9020.5899   -106.86734    17831.868    56.395055 
   23910    1190.7008   -9152.7519   -9019.9274   -723.28248    17820.692    56.509477 
   23920    1178.5606     -9150.78   -9019.3098     707.0394    17809.152    56.602355 
   23930    1175.9812   -9149.9279   -9018.7455    2402.8562    17798.124    56.672425 
   23940    1214.0315   -9153.6685   -9018.2414    2101.6194    17788.586    56.734207 
   23950    1196.3964   -9151.2915   -9017.8317    1938.9116    17780.492    56.802848 
   23960    1189.6631   -9150.2333   -9017.5245    2439.3224    17773.744    56.883593 
   23970    1191.7022   -9150.2055   -9017.2694    2072.7745    17768.602    56.982217 
   23980    1212.9324   -9152.3872   -9017.0828    802.32261    17764.789    57.098778 
   23990     1184.117   -9149.0561   -9016.9661    1982.0181    17761.681    57.218636 
   24000    1142.8255   -9144.3615   -9016.8776    4099.8083    17759.987    57.329525 
   24010    1176.7992   -9148.0593   -9016.7855    4094.5314    17760.945    57.427006 
   24020    1211.9708   -9151.9307   -9016.7335    3365.8084    17764.666    57.516555 
   24030    1202.2729   -9150.9126   -9016.7972     3323.465     17770.74    57.611943 
   24040     1167.828   -9147.2253   -9016.9523    3145.1367    17779.083    57.720639 
   24050    1134.4412   -9143.6626    -9017.114    1577.1621     17789.49    57.834922 
   24060     1154.609    -9146.045   -9017.2467   -676.70184    17800.945    57.942289 
   24070    1188.7083   -9149.9737   -9017.3715   -3036.2812    17811.951    58.038776 
   24080    1212.2839   -9152.8092   -9017.5771    -4672.606    17820.942    58.123141 
   24090    1188.7729   -9150.5404    -9017.931   -4693.2367    17826.859    58.202639 
   24100    1167.7514   -9148.6915    -9018.427   -4584.0435    17829.568    58.279417 
   24110    1171.4395   -9149.7448    -9019.069   -4740.7287    17829.087    58.358499 
   24120     1151.535   -9148.3142   -9019.8588   -4374.5633     17825.37    58.443038 
   24130    1164.4009   -9150.6913   -9020.8007   -5334.1132    17818.551    58.521234 
   24140    1183.8685   -9153.9939   -9021.9316   -6037.6864    17808.104    58.582093 
   24150     1154.414   -9151.9738   -9023.1972   -4862.3493    17793.644    58.624746 
   24160    1151.8139   -9152.9917   -9024.5051   -2783.4533    17775.896    58.650286 
   24170    1110.7152   -9149.5992   -9025.6973   -183.13626     17756.31    58.674498 
   24180    1125.1553   -9152.2189   -9026.7061    787.62685    17736.497    58.702944 
   24190     1178.853   -9159.1036   -9027.6007    1206.5604    17717.177    58.718595 
   24200    1145.5513   -9156.2065   -9028.4185    3191.1455     17698.73    58.720488 
   24210    1100.4529   -9151.7959   -9029.0387    5278.7816    17682.452    58.726581 
   24220     1178.224   -9160.9713   -9029.5386    4293.6057    17669.535    58.746995 
   24230    1158.0579   -9159.1887   -9030.0056    4129.7955    17659.593    58.779713 
   24240    1063.9866   -9149.0561   -9030.3668    4377.0818    17652.467    58.826983 
   24250    1084.2039   -9151.4908   -9030.5462    1934.6623    17648.108    58.893299 
   24260    1153.6239   -9159.2691   -9030.5806   -359.39195    17645.075    58.966199 
   24270    1165.9226   -9160.6066   -9030.5462   -898.28554    17641.934    59.030633 
   24280    1172.3539   -9161.2972   -9030.5194   -128.80601    17638.288     59.08744 
   24290    1135.0703   -9157.1057   -9030.4869    1614.6331    17634.602    59.137152 
   24300    1134.0866   -9156.9232   -9030.4141    2931.7739    17631.983    59.181308 
   24310    1159.2936   -9159.6144   -9030.2934    2831.5109    17631.257    59.229625 
   24320    1108.4943   -9153.7769   -9030.1227    2907.9789    17632.462    59.287527 
   24330    1122.5333   -9155.1051   -9029.8848    2157.4672    17635.577    59.348488 
   24340    1148.6598   -9157.7006   -9029.5659    420.64648    17640.104    59.415047 
   24350    1127.2178   -9154.9446   -9029.2017   -753.56729    17644.958    59.492506 
   24360    1135.6182   -9155.4596   -9028.7797   -1890.3173    17649.308    59.575257 
   24370    1168.0513   -9158.5907   -9028.2928   -2940.4474    17652.401    59.655134 
   24380     1186.244   -9160.1304   -9027.8031   -2540.5223    17653.597    59.728415 
   24390    1146.5912    -9155.249    -9027.345   -1051.4778    17653.139    59.798783 
   24400    1127.0416   -9152.5986   -9026.8754    339.23277    17651.984    59.876138 
   24410    1160.6413   -9155.7977   -9026.3265    336.29408    17650.959    59.966205 
   24420    1183.4818   -9157.7419   -9025.7227    -153.2098    17650.144    60.054999 
   24430    1171.2025   -9155.7966   -9025.1472   -310.21432    17649.277    60.141143 
   24440    1152.7414   -9153.1965   -9024.6064   -1092.6769    17648.151     60.23787 
   24450     1137.313   -9150.9148   -9024.0458   -864.70326    17646.357    60.346732 
   24460     1159.972   -9152.8421   -9023.4455    316.20528    17644.036    60.455003 
   24470    1159.5668   -9152.1395   -9022.7881    1568.5911    17641.939     60.55301 
   24480    1175.6081   -9153.2538   -9022.1129    1842.8751    17640.832    60.638257 
   24490    1183.1708   -9153.4444   -9021.4599    2345.5994     17640.98    60.711934 
   24500    1158.3117   -9150.0763   -9020.8649    3854.4271    17642.785    60.779685 
   24510    1151.5555   -9148.7629   -9020.3051     4471.115    17647.139    60.842914 
   24520    1132.8275   -9146.1146    -9019.746    3610.1025    17654.438    60.898553 
   24530    1147.7092   -9147.2022   -9019.1736    1576.0024    17664.133    60.932727 
   24540    1163.7726   -9148.3906     -9018.57   -972.51406     17674.91    60.930935 
   24550    1169.8016   -9148.4699   -9017.9767   -3924.2743    17685.061    60.898061 
   24560    1167.0026   -9147.6061   -9017.4252   -7091.4303    17692.557    60.850714 
   24570    1163.6517   -9146.7413   -9016.9342   -8685.4947     17695.38    60.807021 
   24580    1158.5484   -9145.7634   -9016.5256   -8584.0083    17692.443     60.78248 
   24590    1172.8687   -9147.0568   -9016.2215   -6677.4562    17683.792    60.777596 
   24600    1198.7247   -9149.7409   -9016.0213   -3789.8544    17670.656    60.782848 
   24610    1169.6552   -9146.3679   -9015.8911   -1257.5908    17654.932    60.781694 
   24620      1180.33   -9147.4689   -9015.8013   -922.32684    17638.188    60.763777 
   24630    1235.4255   -9153.6032   -9015.7896   -800.56434    17620.789    60.735183 
   24640    1193.8093   -9149.0479   -9015.8766    2126.4346    17603.036    60.703424 
   24650    1157.2232   -9145.0605   -9015.9705    4418.8878    17586.638    60.670705 
   24660    1196.2189    -9149.485    -9016.045     4474.111     17573.06    60.642026 
   24670    1198.4687    -9149.857    -9016.166    4260.0516    17562.461    60.621731 
   24680    1188.6239   -9148.9568    -9016.364    4552.7561    17554.744    60.610231 
   24690    1181.8342   -9148.4578   -9016.6224    4203.9427    17549.993    60.611293 
   24700    1139.1459   -9143.9608   -9016.8874    5627.9624    17548.169    60.634436 
   24710    1137.8886   -9144.0296   -9017.0964    6509.7561    17550.042    60.676963 
   24720    1212.6789   -9152.5519   -9017.2757    5419.8657    17556.123    60.733207 
   24730    1213.2039   -9152.8726   -9017.5379    4627.7144     17565.86    60.809655 
   24740    1158.5739   -9147.1272   -9017.8865    3565.6091    17578.697    60.913819 
   24750    1164.4154   -9148.1174   -9018.2251    780.17884    17593.795    61.033569 
   24760    1172.1113   -9149.2692   -9018.5184    4.6372303    17609.602     61.15081 
   24770    1186.2768   -9151.1728   -9018.8419   -258.23747    17625.489     61.25751 
   24780    1142.7489   -9146.6621   -9019.1868   -938.24261    17641.237    61.359092 
   24790      1130.95   -9145.6473   -9019.4881   -3111.2155    17656.289    61.468531 
   24800    1179.6352    -9151.336   -9019.7459   -5596.7284    17669.227    61.589774 
   24810     1154.682    -9148.822   -9020.0154   -5127.2309    17678.592    61.722434 
   24820    1130.2351   -9146.3515   -9020.2721   -3897.2587    17684.544     61.85752 
   24830    1168.5255   -9150.8587   -9020.5079     -3720.53    17687.788    61.977719 
   24840    1149.1008   -9148.9335   -9020.7495   -2763.7304    17688.573    62.080688 
   24850    1143.7616   -9148.5717   -9020.9834   -2697.2427    17687.433    62.166416 
   24860    1184.8407   -9153.3988   -9021.2281   -3751.6374    17684.394    62.228728 
   24870    1122.4314   -9146.6755   -9021.4666   -2300.0993    17678.995     62.27243 
   24880    1110.1381   -9145.4633   -9021.6257   -877.31669    17672.059    62.304841 
   24890    1190.5633   -9154.5344   -9021.7252   -1116.9968    17664.431     62.32639 
   24900    1181.0047   -9153.5991   -9021.8562    1177.8077    17656.213    62.334329 
   24910    1160.3537   -9151.4803   -9022.0411     3893.417    17648.842    62.322684 
   24920    1180.8986   -9154.0098   -9022.2788    3207.3763    17643.911    62.285309 
   24930    1154.5138   -9151.3681   -9022.5803    1733.4581    17641.123    62.236073 
   24940    1134.9488   -9149.5115   -9022.9062    821.55227    17639.545    62.194028 
   24950    1143.9819   -9150.8372   -9023.2243    1220.0846    17638.606    62.170866 
   24960    1145.6867   -9151.3317   -9023.5287    1829.2668    17638.505    62.165023 
   24970    1179.4084   -9155.4375   -9023.8727    1024.6775     17639.53     62.16478 
   24980    1149.8749   -9152.5255   -9024.2553    2014.3203    17641.346    62.159977 
   24990    1123.0436   -9149.9394   -9024.6622    3232.5333    17644.544    62.147715 
   25000    1149.4288   -9153.2787   -9025.0582    1173.3541    17649.706    62.137545 
Loop time of 15114.9 on 16 procs for 20000 steps with 864 atoms

Performance: 0.114 ns/day, 209.929 hours/ns, 1.323 timesteps/s
96.3% CPU use with 16 MPI tasks x 1 OpenMP threads

MPI task timing breakdown:
Section |  min time  |  avg time  |  max time  |%varavg| %total
---------------------------------------------------------------
Pair    | 1932.4     | 8323.6     | 15065      |4940.2 | 55.07
Bond    | 0.0022094  | 0.0042742  | 0.0079675  |   3.1 |  0.00
Neigh   | 0.096884   | 0.35225    | 0.63524    |  33.2 |  0.00
Comm    | 43.134     | 5015.2     | 10298      |5065.8 | 33.18
Output  | 1.2235     | 1.2412     | 1.4992     |   6.0 |  0.01
Modify  | 4.9712     | 1774.4     | 3979.5     |3523.2 | 11.74
Other   |            | 0.09301    |            |       |  0.00

Nlocal:        54.0000 ave          89 max          12 min
Histogram: 3 1 1 1 0 2 2 0 4 2
Nghost:        545.375 ave         854 max         263 min
Histogram: 2 0 3 1 2 2 4 0 0 2
Neighs:         0.00000 ave           0 max           0 min
Histogram: 16 0 0 0 0 0 0 0 0 0
FullNghs:      3100.25 ave        6134 max         281 min
Histogram: 5 1 0 0 2 2 0 1 3 2

Total # of neighbors = 49604
Ave neighs/atom = 57.412037
Ave special neighs/atom = 0.0000000
Neighbor list builds = 2000
Dangerous builds = 2000
unfix   3
                
Total wall time: 5:21:35
