LAMMPS (29 Sep 2021 - Update 3)
OMP_NUM_THREADS environment is not set. Defaulting to 1 thread. (src/comm.cpp:98)
  using 1 OpenMP thread(s) per MPI task
Reading data file ...
  orthogonal box = (0.0000000 0.0000000 0.0000000) to (15.866041 15.852264 77.123517)
  2 by 1 by 8 MPI processor grid
  reading atoms ...
  864 atoms
Finding 1-2 1-3 1-4 neighbors ...
  special bond factors lj:    0        0        0       
  special bond factors coul:  0        0        0       
     0 = max # of 1-2 neighbors
     0 = max # of 1-3 neighbors
     0 = max # of 1-4 neighbors
     1 = max # of special neighbors
  special bonds CPU = 0.001 seconds
  read_data CPU = 0.020 seconds
Neighbor list info ...
  update every 1 steps, delay 10 steps, check yes
  max neighbors/atom: 2000, page size: 100000
  master list distance cutoff = 6.22
  ghost atom cutoff = 6.22
  binsize = 3.11, bins = 6 6 25
  1 neighbor lists, perpetual/occasional/extra = 1 0 0
  (1) pair quip, perpetual
      attributes: full, newton on
      pair build: full/bin
      stencil: full/bin/3d
      bin: standard
Setting up Verlet run ...
  Unit style    : metal
  Current step  : 0
  Time step     : 0.001
Per MPI rank memory allocation (min/avg/max) = 8.889 | 8.906 | 8.916 Mbytes
Step Temp PotEng TotEng Press Volume c_msd[4] 
       0            0   -8878.9247   -8878.9247   -11708.833    19397.542            0 
      10    108.80145    -8891.078    -8878.941   -13519.947    19397.542 0.00037756483 
      20    255.99871   -8907.5101   -8878.9531   -15433.074    19397.542  0.004636157 
      30    288.56988   -8911.1358   -8878.9454   -14361.122    19397.542  0.015943357 
      40    289.10053   -8911.1934   -8878.9438   -12512.136    19397.542  0.032214776 
      50    304.26419   -8912.8839   -8878.9428   -12190.839    19397.542  0.050010352 
      60    330.67215   -8915.8353   -8878.9484    -12512.07    19397.542  0.067008738 
      70    319.75479    -8914.613   -8878.9439   -12021.554    19397.542  0.084636553 
      80     311.7171   -8913.7131   -8878.9406   -11242.174    19397.542   0.10335882 
      90    344.97025   -8917.4272   -8878.9452   -11377.847    19397.542   0.12285636 
     100    369.47631   -8920.1625   -8878.9469   -11460.202    19397.542   0.14373353 
     110    369.44402   -8920.1551   -8878.9431   -10737.559    19397.542   0.16547428 
     120    381.04496   -8921.4513   -8878.9452   -10101.733    19397.542   0.18697263 
     130    387.01967   -8922.1174   -8878.9447    -9853.945    19397.542   0.20927079 
     140    390.46305   -8922.5002   -8878.9434   -10154.629    19397.542   0.23274757 
     150    401.17379   -8923.6966   -8878.9451   -10935.233    19397.542   0.25686229 
     160    405.60936   -8924.1923    -8878.946   -11533.497    19397.542   0.28181117 
     170    403.00983   -8923.9035   -8878.9472   -11313.905    19397.542   0.30705714 
     180    385.93942   -8921.9971   -8878.9449   -10395.352    19397.542   0.33328028 
     190    384.55592   -8921.8429   -8878.9451   -9702.4152    19397.542    0.3615061 
     200    397.89654   -8923.3338   -8878.9478   -9508.3306    19397.542   0.39138176 
     210    403.74057   -8923.9838    -8878.946   -9854.3562    19397.542   0.41959204 
     220    419.25516   -8925.7147   -8878.9462   -11120.155    19397.542   0.44190424 
     230    437.64496   -8927.7678   -8878.9478   -12741.979    19397.542   0.46059951 
     240    436.22365   -8927.6096   -8878.9482   -13773.271    19397.542   0.48016288 
     250     417.4692   -8925.5154   -8878.9461   -14188.084    19397.542   0.50051511 
     260    403.07006   -8923.9093   -8878.9463   -14452.366    19397.542   0.51954432 
     270    390.78955   -8922.5388   -8878.9456   -14869.677    19397.542   0.53842732 
     280    390.91941   -8922.5534   -8878.9458   -15753.944    19397.542   0.55789535 
     290    394.53071   -8922.9579   -8878.9474   -16866.473    19397.542   0.57907365 
     300    385.46639   -8921.9447   -8878.9454   -17556.881    19397.542   0.60332818 
     310    388.07639   -8922.2367   -8878.9462   -18102.563    19397.542   0.62988844 
     320    395.22438   -8923.0346   -8878.9467   -18476.923    19397.542   0.65693198 
     330     392.7193   -8922.7554    -8878.947   -18634.964    19397.542   0.68294096 
     340    387.36548    -8922.158   -8878.9468   -18928.114    19397.542    0.7064488 
     350    383.70376     -8921.75   -8878.9472   -19255.038    19397.542   0.72809194 
     360    380.16279   -8921.3526   -8878.9449   -19764.905    19397.542   0.74756432 
     370    391.53302   -8922.6238   -8878.9477   -20433.416    19397.542   0.76345228 
     380    397.18733   -8923.2529   -8878.9461   -20848.612    19397.542   0.77799013 
     390    399.66038   -8923.5327     -8878.95   -20962.623    19397.542    0.7926845 
     400    376.74168   -8920.9703   -8878.9442   -20594.318    19397.542   0.80792627 
     410    384.01385   -8921.7861   -8878.9488   -20827.442    19397.542   0.82090067 
     420    385.42711   -8921.9432   -8878.9482    -21282.02    19397.542   0.83289421 
     430    375.82197   -8920.8694   -8878.9459   -21749.833    19397.542   0.84474346 
     440    377.40301   -8921.0478   -8878.9479   -22280.425    19397.542   0.85654263 
     450    373.39276   -8920.5987   -8878.9462   -22358.315    19397.542   0.87121917 
     460    380.55104   -8921.3982   -8878.9472   -22127.174    19397.542   0.88923864 
     470    389.08947   -8922.3531   -8878.9496   -21563.629    19397.542   0.90990069 
     480    377.88025   -8921.0989   -8878.9458   -20903.426    19397.542   0.93174236 
     490    381.74982   -8921.5319   -8878.9472   -20620.986    19397.542   0.94962563 
     500    394.14575   -8922.9156   -8878.9481   -20486.731    19397.542   0.96309083 
     510    397.04898   -8923.2389   -8878.9475   -19997.235    19397.542   0.97658553 
     520    399.82595   -8923.5491    -8878.948   -19535.484    19397.542   0.99241283 
     530    404.27704   -8924.0446   -8878.9469    -19115.46    19397.542    1.0084992 
     540     411.3451   -8924.8362     -8878.95   -18661.849    19397.542    1.0226069 
     550    394.09812   -8922.9082    -8878.946   -17821.103    19397.542    1.0374953 
     560    386.81962   -8922.0987   -8878.9484   -17144.624    19397.542    1.0531551 
     570    383.04436   -8921.6747   -8878.9456   -16711.306    19397.542    1.0690946 
     580    397.22268   -8923.2587   -8878.9479   -16702.646    19397.542    1.0866029 
     590    408.28446   -8924.4929   -8878.9481   -16623.668    19397.542    1.1074158 
     600    405.74477   -8924.2095   -8878.9481   -16314.107    19397.542    1.1302748 
     610    396.02325   -8923.1251   -8878.9481    -15628.66    19397.542    1.1519665 
     620     395.3341   -8923.0495   -8878.9494   -15051.831    19397.542    1.1694303 
     630    394.27036   -8922.9318   -8878.9503   -14512.907    19397.542    1.1828305 
     640    383.62649   -8921.7417   -8878.9476   -14067.198    19397.542    1.1945401 
     650    385.14193   -8921.9112    -8878.948   -13839.463    19397.542    1.2068311 
     660     395.4713   -8923.0651   -8878.9497   -13755.797    19397.542    1.2218962 
     670     396.9724   -8923.2312   -8878.9483   -13681.042    19397.542    1.2411479 
     680    400.76426   -8923.6562   -8878.9504   -13529.754    19397.542    1.2649597 
     690    395.59922   -8923.0782   -8878.9485   -13202.541    19397.542    1.2892968 
     700    393.08673   -8922.7984    -8878.949    -12863.36    19397.542    1.3108518 
     710    392.46287   -8922.7295   -8878.9497   -12776.215    19397.542    1.3306314 
     720    392.69983   -8922.7538   -8878.9476   -12960.731    19397.542    1.3493343 
     730    407.70626    -8924.431   -8878.9507   -13617.908    19397.542    1.3652761 
     740    418.60831   -8925.6458   -8878.9494   -14182.857    19397.542    1.3758719 
     750    427.35697   -8926.6222   -8878.9499   -14411.802    19397.542    1.3817369 
     760    426.23067   -8926.4956    -8878.949   -14240.457    19397.542    1.3874968 
     770    425.68986   -8926.4355   -8878.9492   -14121.142    19397.542    1.3956033 
     780    424.34662   -8926.2861   -8878.9496   -14199.692    19397.542    1.4059418 
     790    416.51178   -8925.4118   -8878.9493   -14348.579    19397.542    1.4172819 
     800    406.85203   -8924.3329   -8878.9479   -14603.708    19397.542    1.4293586 
     810     409.3926   -8924.6176   -8878.9492   -14954.594    19397.542    1.4437899 
     820    411.52943   -8924.8561   -8878.9494   -15227.004    19397.542     1.461671 
     830    414.76526   -8925.2161   -8878.9484   -15348.177    19397.542    1.4822988 
     840    425.47297   -8926.4126   -8878.9505   -15497.059    19397.542    1.5061095 
     850    424.10961   -8926.2589   -8878.9489    -15461.05    19397.542    1.5339208 
     860    425.84903   -8926.4531    -8878.949   -15668.017    19397.542    1.5638872 
     870    428.28778   -8926.7265   -8878.9503   -15975.954    19397.542    1.5941429 
     880    422.32484   -8926.0597   -8878.9487   -16050.391    19397.542    1.6254163 
     890    420.59441   -8925.8681   -8878.9502   -16210.368    19397.542    1.6579317 
     900    412.78354   -8924.9958   -8878.9492   -16186.118    19397.542    1.6917804 
     910    408.88335   -8924.5603   -8878.9488   -16398.021    19397.542    1.7253326 
     920    415.25495   -8925.2723     -8878.95   -16866.947    19397.542    1.7566903 
     930    417.79568   -8925.5555   -8878.9498    -17314.63    19397.542    1.7866576 
     940    414.15774   -8925.1502   -8878.9503   -17816.895    19397.542    1.8175362 
     950    410.14766   -8924.7024   -8878.9498   -18397.528    19397.542     1.850555 
     960    412.13206   -8924.9218   -8878.9478   -18864.984    19397.542    1.8837942 
     970    427.90234   -8926.6835   -8878.9503   -19165.223    19397.542    1.9147148 
     980    431.11936    -8927.043    -8878.951    -19021.79    19397.542    1.9457246 
     990    415.64991   -8925.3145   -8878.9482   -18606.767    19397.542    1.9812421 
    1000    413.92707   -8925.1233   -8878.9491   -18513.829    19397.542    2.0201072 
    1010    417.45395   -8925.5177     -8878.95   -18558.895    19397.542    2.0574524 
    1020    414.66605   -8925.2045   -8878.9479    -18540.13    19397.542    2.0909232 
    1030    425.32279   -8926.3944    -8878.949   -18804.281    19397.542    2.1200334 
    1040    437.39791    -8927.743   -8878.9506    -19174.44    19397.542    2.1461906 
    1050    432.04437    -8927.144   -8878.9488   -19430.964    19397.542    2.1724444 
    1060    423.10855   -8926.1471   -8878.9487    -19670.97    19397.542     2.200914 
    1070    416.30819    -8925.389   -8878.9492   -19752.208    19397.542     2.232564 
    1080    410.19009   -8924.7058   -8878.9485   -19471.789    19397.542    2.2656179 
    1090    411.43188   -8924.8454   -8878.9496   -18927.842    19397.542    2.2963807 
    1100    413.58688   -8925.0849   -8878.9486   -18540.027    19397.542    2.3238349 
    1110    425.71996   -8926.4384   -8878.9486   -18620.545    19397.542    2.3474636 
    1120    443.01807   -8928.3709   -8878.9516   -18883.908    19397.542    2.3679172 
    1130    437.42575   -8927.7454   -8878.9499   -18767.479    19397.542    2.3882255 
    1140    422.48256   -8926.0773   -8878.9487   -18476.767    19397.542    2.4089666 
    1150    414.07643   -8925.1393   -8878.9485   -18282.798    19397.542    2.4284943 
    1160    416.01416   -8925.3558   -8878.9488   -18291.885    19397.542     2.446853 
    1170    419.66714   -8925.7642   -8878.9497   -18446.717    19397.542    2.4644412 
    1180    424.21945   -8926.2706   -8878.9483    -18449.36    19397.542    2.4806419 
    1190    440.19598   -8928.0557   -8878.9512   -18343.062    19397.542    2.4945267 
    1200    440.38662   -8928.0752   -8878.9494   -17908.359    19397.542     2.507228 
    1210    440.40752   -8928.0774   -8878.9493   -17509.071    19397.542    2.5196997 
    1220    445.29341   -8928.6232   -8878.9501   -17433.008    19397.542    2.5321836 
    1230    444.31811   -8928.5138   -8878.9494   -17404.254    19397.542    2.5456285 
    1240    444.21916   -8928.5028   -8878.9495   -17567.287    19397.542    2.5617678 
    1250    447.95301   -8928.9197   -8878.9499   -17998.888    19397.542    2.5810013 
    1260    447.05056     -8928.82   -8878.9509   -18113.089    19397.542    2.6027835 
    1270    433.76409   -8927.3363   -8878.9493   -17647.746    19397.542    2.6267411 
    1280    426.49744   -8926.5249   -8878.9485   -17215.404    19397.542    2.6522665 
    1290    438.76938   -8927.8949   -8878.9495   -17215.004    19397.542     2.679609 
    1300     454.8554   -8929.6913   -8878.9515   -17412.029    19397.542    2.7096074 
    1310    451.74789   -8929.3435   -8878.9504   -17515.094    19397.542    2.7419599 
    1320    440.03726   -8928.0361   -8878.9493    -17582.78    19397.542    2.7732724 
    1330    433.51813    -8927.309   -8878.9494   -17627.787    19397.542    2.7991894 
    1340    430.66307   -8926.9918   -8878.9507   -17406.648    19397.542    2.8192899 
    1350    422.06307   -8926.0311   -8878.9493    -17030.68    19397.542    2.8369839 
    1360    423.68793   -8926.2128   -8878.9498   -16872.793    19397.542    2.8564726 
    1370    432.23825   -8927.1671   -8878.9502   -16941.721    19397.542    2.8798412 
    1380    440.61409   -8928.1014   -8878.9502   -17160.411    19397.542     2.904214 
    1390    442.38617   -8928.3005   -8878.9516   -17288.698    19397.542    2.9262872 
    1400    432.82497   -8927.2303    -8878.948   -17111.965    19397.542    2.9462931 
    1410    443.20721   -8928.3906   -8878.9502   -17379.272    19397.542    2.9656964 
    1420     452.8574   -8929.4692   -8878.9523   -17581.285    19397.542    2.9866189 
    1430    440.33742   -8928.0699   -8878.9496    -17078.18    19397.542    3.0107644 
    1440    434.09539   -8927.3728   -8878.9488   -16559.852    19397.542    3.0372306 
    1450    446.59797     -8928.77   -8878.9513   -16458.202    19397.542    3.0634597 
    1460    455.16552   -8929.7248   -8878.9504   -16509.198    19397.542    3.0883146 
    1470     460.5176    -8930.323   -8878.9516   -16639.411    19397.542    3.1117695 
    1480    455.78137    -8929.792   -8878.9489   -16643.605    19397.542    3.1332037 
    1490    461.66937   -8930.4506   -8878.9507   -16632.215    19397.542     3.152331 
    1500    464.06114   -8930.7172   -8878.9504   -16316.323    19397.542    3.1724877 
    1510    464.69685   -8930.7871   -8878.9495    -16148.36    19397.542    3.1960897 
    1520    471.22077   -8931.5167   -8878.9514   -16208.841    19397.542    3.2225013 
    1530    471.47122   -8931.5429   -8878.9496   -16597.639    19397.542    3.2496574 
    1540    479.04999   -8932.3903   -8878.9516   -17340.131    19397.542    3.2743864 
    1550    475.60674   -8932.0055   -8878.9508   -17872.304    19397.542    3.2971604 
    1560    465.76065   -8930.9064   -8878.9501   -17822.552    19397.542    3.3221892 
    1570    460.06152    -8930.271   -8878.9505    -17442.47    19397.542    3.3512444 
    1580    459.40082   -8930.1971   -8878.9502   -16941.542    19397.542    3.3813068 
    1590    460.93829   -8930.3707   -8878.9523   -16350.345    19397.542    3.4083736 
    1600     448.2201   -8928.9504   -8878.9508   -15603.607    19397.542    3.4316634 
    1610     443.9941   -8928.4772    -8878.949    -15275.86    19397.542    3.4534934 
    1620    463.51034   -8930.6582    -8878.953   -15593.563    19397.542    3.4766509 
    1630    474.66564   -8931.9011   -8878.9514   -16126.405    19397.542    3.5034224 
    1640    481.75389   -8932.6918   -8878.9514   -16542.721    19397.542    3.5333548 
    1650    479.37897   -8932.4264    -8878.951   -16541.998    19397.542    3.5648125 
    1660    474.97776   -8931.9337   -8878.9492   -16284.173    19397.542    3.5952514 
    1670    481.99089    -8932.719   -8878.9522   -15990.017    19397.542    3.6221631 
    1680      474.213   -8931.8498   -8878.9506   -15457.654    19397.542    3.6454728 
    1690    462.13083    -8930.502   -8878.9506   -14731.806    19397.542     3.665115 
    1700    458.63731   -8930.1109   -8878.9492   -14389.905    19397.542    3.6801149 
    1710    473.55465   -8931.7771   -8878.9513   -14547.389    19397.542    3.6915037 
    1720    483.59001    -8932.897   -8878.9518   -15013.331    19397.542    3.7021408 
    1730    481.36556   -8932.6472   -8878.9501   -15645.926    19397.542    3.7142289 
    1740    484.05437   -8932.9483   -8878.9513   -16474.749    19397.542    3.7288904 
    1750    482.16869   -8932.7383   -8878.9516   -16722.219    19397.542     3.747119 
    1760    470.26243   -8931.4082   -8878.9497   -16475.495    19397.542    3.7689551 
    1770    472.75321   -8931.6852   -8878.9489   -16480.419    19397.542    3.7930019 
    1780    495.80424   -8934.2609   -8878.9532   -16801.632    19397.542     3.817904 
    1790    498.29189   -8934.5359   -8878.9506   -17030.699    19397.542    3.8432118 
    1800    497.22115   -8934.4163   -8878.9505   -17233.599    19397.542    3.8677962 
    1810    498.13201   -8934.5195   -8878.9521   -17294.852    19397.542    3.8916583 
    1820    485.17576   -8933.0725   -8878.9504   -16971.976    19397.542    3.9157232 
    1830    479.44537   -8932.4337   -8878.9509   -16627.564    19397.542    3.9391486 
    1840    478.88134   -8932.3712   -8878.9513   -16398.764    19397.542    3.9621449 
    1850     478.6415   -8932.3435   -8878.9503   -16406.049    19397.542    3.9857213 
    1860     486.1211   -8933.1789   -8878.9514   -16705.544    19397.542    4.0086822 
    1870    492.79459   -8933.9238   -8878.9519   -17221.514    19397.542    4.0297149 
    1880    491.36379   -8933.7648   -8878.9525   -18037.772    19397.542    4.0499732 
    1890    475.70955   -8932.0166   -8878.9505   -18910.363    19397.542    4.0709101 
    1900    464.92588   -8930.8141   -8878.9509   -19819.272    19397.542    4.0929306 
    1910    455.59431   -8929.7727   -8878.9505   -20229.987    19397.542    4.1160109 
    1920    452.87672   -8929.4684   -8878.9493   -20242.611    19397.542    4.1384657 
    1930    467.97161   -8931.1539   -8878.9509   -20369.825    19397.542    4.1581839 
    1940    485.34862   -8933.0926   -8878.9512   -20514.477    19397.542    4.1756159 
    1950    495.78252   -8934.2578   -8878.9525   -20428.878    19397.542    4.1936772 
    1960    500.11778   -8934.7389     -8878.95   -20591.437    19397.542    4.2145461 
    1970    511.99695   -8936.0681    -8878.954   -21344.221    19397.542    4.2363696 
    1980    499.23942   -8934.6421   -8878.9512   -21654.428    19397.542    4.2540635 
    1990    487.56603   -8933.3391   -8878.9504    -21588.86    19397.542    4.2657075 
    2000    485.14508   -8933.0707    -8878.952   -21134.343    19397.542    4.2770463 
Loop time of 1349.14 on 16 procs for 2000 steps with 864 atoms

Performance: 0.128 ns/day, 187.381 hours/ns, 1.482 timesteps/s
96.8% CPU use with 16 MPI tasks x 1 OpenMP threads

MPI task timing breakdown:
Section |  min time  |  avg time  |  max time  |%varavg| %total
---------------------------------------------------------------
Pair    | 291.99     | 710.59     | 1346.1     |1119.2 | 52.67
Bond    | 0.00014257 | 0.00032713 | 0.0006032  |   0.0 |  0.00
Neigh   | 0.014509   | 0.030242   | 0.063181   |   7.9 |  0.00
Comm    | 2.3764     | 555.29     | 939.21     |1222.3 | 41.16
Output  | 0.29161    | 24.986     | 55.383     | 407.1 |  1.85
Modify  | 0.0082891  | 0.0096768  | 0.011237   |   0.8 |  0.00
Other   |            | 58.24      |            |       |  4.32

Nlocal:        54.0000 ave          90 max          29 min
Histogram: 3 3 0 2 3 1 0 2 0 2
Nghost:        493.750 ave         643 max         369 min
Histogram: 3 1 0 3 2 2 1 2 0 2
Neighs:         0.00000 ave           0 max           0 min
Histogram: 16 0 0 0 0 0 0 0 0 0
FullNghs:      2706.00 ave        5944 max         890 min
Histogram: 6 0 2 1 3 0 2 0 0 2

Total # of neighbors = 43296
Ave neighs/atom = 50.111111
Ave special neighs/atom = 0.0000000
Neighbor list builds = 200
Dangerous builds = 200
Setting up Verlet run ...
  Unit style    : metal
  Current step  : 2000
  Time step     : 0.001
Per MPI rank memory allocation (min/avg/max) = 8.894 | 8.909 | 8.920 Mbytes
Step Temp PotEng TotEng Press Volume c_msd[4] 
    2000        337.5   -8933.0707    -8895.422   -22041.259    19397.542    4.2770463 
    2010    357.65391   -8935.8679   -8895.9711   -20865.408    19366.878    4.2942603 
    2020    378.61192   -8939.6125   -8897.3777   -16768.186    19279.029    4.3157241 
    2030    411.52284   -8944.9955   -8899.0895    -10936.32    19146.981    4.3355994 
    2040    432.52718   -8948.8339   -8900.5848   -4100.4921    18990.453    4.3486178 
    2050    441.87382    -8950.829   -8901.5373    2919.9694    18832.609    4.3510523 
    2060    447.88912   -8951.8934   -8901.9307    8680.4411    18695.078     4.341446 
    2070     443.4374    -8951.477   -8902.0109    12448.469    18592.572    4.3230961 
    2080    428.11539   -8949.8489    -8902.092    14097.131    18531.286    4.2998679 
    2090    417.89993   -8949.0418   -8902.4245    13484.837      18510.4    4.2714278 
    2100    419.37266   -8949.8539   -8903.0722    11090.301    18523.916    4.2372615 
    2110    432.47206   -8952.2078   -8903.9649    7782.7012    18562.768    4.2006195 
    2120    438.53473   -8953.9245   -8905.0053    4271.6958    18616.865    4.1676204 
    2130    423.24309   -8953.2852   -8906.0718    1304.4891    18676.777    4.1456225 
    2140    415.76768    -8953.435   -8907.0555   -1763.3572    18734.802    4.1398106 
    2150    416.89316   -8954.4385   -8907.9335   -4674.7926    18783.736    4.1517288 
    2160    404.73286   -8953.8816    -8908.733   -6564.2653    18817.319      4.17976 
    2170    393.40821   -8953.3873    -8909.502   -7195.9097    18832.053    4.2200018 
    2180    388.52701   -8953.6271   -8910.2863   -6879.6773    18827.634    4.2685675 
    2190    393.56473   -8955.0156   -8911.1129   -5752.1347    18806.116    4.3230762 
    2200    398.47692   -8956.4331   -8911.9824   -4041.3154    18771.325    4.3819242 
    2210    391.28925   -8956.4885   -8912.8396     -1819.95    18728.347    4.4423986 
    2220    387.74479   -8956.8844   -8913.6309    476.33832    18683.111    4.5002124 
    2230    386.06645   -8957.4195   -8914.3532    2428.1394    18641.355    4.5517174 
    2240    380.92808   -8957.5206   -8915.0275    3997.6396    18607.734    4.5940925 
    2250    377.52354   -8957.8084   -8915.6951    4726.5887    18585.578     4.624559 
    2260    375.10399   -8958.2276   -8916.3842    4571.2275    18576.112    4.6403829 
    2270    381.78641   -8959.6964   -8917.1076    3740.6165    18578.393    4.6416045 
    2280    383.59458   -8960.6606   -8917.8701    2766.6134    18589.992    4.6307989 
    2290     375.1367   -8960.4875   -8918.6404    1736.1181    18608.181    4.6098202 
    2300    377.10769   -8961.4593   -8919.3924    80.467828    18630.016    4.5802361 
    2310    377.68622   -8962.2511   -8920.1196   -1708.2469    18651.284    4.5465837 
    2320     366.9621   -8961.7401   -8920.8049   -2771.7096    18667.674     4.516042 
    2330    360.48203   -8961.6548   -8921.4425   -3293.3737    18676.582    4.4944732 
    2340    359.36752   -8962.1446   -8922.0566   -3266.8694    18676.938    4.4842631 
    2350    352.22093   -8961.9515   -8922.6607   -2512.7404    18669.116    4.4848464 
    2360    340.12413   -8961.1692   -8923.2279   -1399.9864    18655.195    4.4942895 
    2370    341.77354   -8961.8708   -8923.7454   -560.15533    18638.066    4.5105151 
    2380    349.58769   -8963.2372   -8924.2401   -129.28025    18619.933    4.5313244 
    2390    351.74078   -8963.9661   -8924.7288    228.98731    18601.995    4.5548166 
    2400    350.06742    -8964.266   -8925.2155    1000.6205    18585.264    4.5798105 
    2410    342.56402   -8963.8905    -8925.677    1748.1552    18571.543    4.6061576 
    2420    343.72819   -8964.4554    -8926.112    1925.7455     18562.49    4.6329839 
    2430     348.0511   -8965.3715   -8926.5459    2040.1218    18558.569    4.6570829 
    2440    341.53447   -8965.0806   -8926.9819    2298.2189    18559.971    4.6756647 
    2450    333.66775   -8964.6207   -8927.3996    2302.4685    18567.112    4.6873976 
    2460    332.70938   -8964.8993   -8927.7851    1764.3469    18579.794    4.6907667 
    2470     334.8009   -8965.4917   -8928.1442    738.55339    18596.527    4.6852821 
    2480     331.7473   -8965.4806   -8928.4737   -558.33577    18614.677    4.6735993 
    2490    333.81806   -8966.0061   -8928.7682   -2042.6452    18630.868    4.6612861 
    2500    339.05572   -8966.8699   -8929.0478    -2967.637    18641.581    4.6530848 
    2510    338.76081   -8967.1231   -8929.3338   -3331.9999    18644.576    4.6494582 
    2520    335.16658   -8967.0196   -8929.6313   -2954.7037    18639.155    4.6500587 
    2530    329.35544   -8966.6607   -8929.9206   -1953.2602    18626.493    4.6546601 
    2540    329.17066   -8966.9005    -8930.181    -916.7237    18609.194    4.6626934 
    2550     331.1601   -8967.3484    -8930.407   -26.104099    18589.993    4.6737756 
    2560    329.24496   -8967.3272   -8930.5994    881.93736    18571.246    4.6869427 
    2570    329.75064   -8967.5462    -8930.762    1743.9435    18555.235    4.6999464 
    2580    336.81163   -8968.4895   -8930.9177    2252.6383    18543.983    4.7104191 
    2590    330.77053   -8967.9755   -8931.0775    2686.9428     18538.73    4.7173103 
    2600    322.25812   -8967.1754    -8931.227    2616.0233    18540.278    4.7200157 
    2610    326.50887   -8967.7811   -8931.3586    1953.5705    18548.269    4.7200881 
    2620    322.53929    -8967.446   -8931.4663     1175.998    18560.996    4.7214482 
    2630    320.95111   -8967.3411   -8931.5385    304.73413      18576.4    4.7256273 
    2640    332.67482   -8968.6823   -8931.5719   -865.21725    18592.148    4.7314261 
    2650    327.49967   -8968.1048   -8931.5717   -1875.8911    18605.386    4.7375758 
    2660    318.34976   -8967.0557   -8931.5433   -2682.8036    18613.585    4.7432969 
    2670    326.57539   -8967.9208   -8931.4909   -3035.2817    18614.838     4.749381 
    2680    327.06157   -8967.9087   -8931.4245   -2267.1387    18608.599    4.7563739 
    2690     320.4258   -8967.0826   -8931.3386   -905.12503    18596.861    4.7635798 
    2700    325.21347   -8967.4923   -8931.2143    286.28393    18583.065     4.770484 
    2710    330.14271   -8967.8824   -8931.0545    856.03287    18570.179    4.7760723 
    2720    329.43388   -8967.6234   -8930.8746     1211.401    18559.728    4.7779704 
    2730    329.63788   -8967.4481   -8930.6765    1210.6142    18552.543    4.7733545 
    2740    339.17864   -8968.2972   -8930.4614    694.63026     18548.47    4.7626768 
    2750    342.78141   -8968.4773   -8930.2395    595.68462    18546.333    4.7512937 
    2760    339.23537    -8967.874   -8930.0318    1016.1147    18545.853    4.7434785 
    2770    335.37668   -8967.2498    -8929.838    1599.2234    18548.018    4.7382385 
    2780    329.82489   -8966.4434   -8929.6509    1604.4959    18554.063    4.7312733 
    2790    331.18442    -8966.403   -8929.4589      931.668    18563.923    4.7208262 
    2800    330.33205   -8966.0984   -8929.2493    -122.5688    18575.876     4.709923 
    2810    335.85037   -8966.4847   -8929.0201   -1162.0779    18587.286    4.7012347 
    2820    351.90361   -8968.0352   -8928.7798     -1737.62    18595.621    4.6943477 
    2830    350.63459   -8967.6759    -8928.562   -1647.2465    18599.514    4.6883651 
    2840    346.21713   -8967.0052   -8928.3842   -1602.1482     18599.09    4.6830124 
    2850    345.83758   -8966.8144   -8928.2357   -1560.0652    18594.597    4.6783097 
    2860    339.39702   -8965.9677   -8928.1074   -1288.5986    18586.261    4.6747635 
    2870    338.11843   -8965.7065   -8927.9889   -895.67071    18574.819    4.6738773 
    2880    338.08606   -8965.5832   -8927.8692   -319.14552    18561.353    4.6779589 
    2890    340.29018   -8965.7062   -8927.7463    270.04365    18547.343    4.6870972 
    2900    351.06338     -8966.79   -8927.6283    718.13387     18534.25    4.6986579 
    2910    353.12304   -8966.9231   -8927.5317    1467.6033    18523.302    4.7094164 
    2920    350.90841   -8966.6141   -8927.4697    2237.6803    18516.265    4.7157834 
    2930    345.32628   -8965.9626    -8927.441    2915.6708    18515.025    4.7151658 
    2940    347.85259   -8966.2494   -8927.4459    3033.0545    18521.076    4.7063492 
    2950     357.6006   -8967.3808   -8927.4899    2346.4129    18534.515    4.6907204 
    2960    358.07079   -8967.5232   -8927.5799    1495.6977    18553.676    4.6712988 
    2970    360.12795   -8967.8885   -8927.7157    340.10248    18576.271    4.6506466 
    2980     359.6605   -8968.0046    -8927.884   -1031.6438    18599.352    4.6322621 
    2990    350.06107    -8967.128   -8928.0781   -2441.2721    18619.436    4.6201915 
    3000    344.26599   -8966.6968   -8928.2935   -3520.5081    18633.036    4.6167436 
    3010    344.21102   -8966.9354   -8928.5382    -4141.084    18637.464    4.6217855 
    3020    340.57201   -8966.8081   -8928.8168   -3868.0168    18631.406    4.6333892 
    3030    336.17284   -8966.6067   -8929.1062   -2744.8603    18615.736    4.6477081 
    3040     342.9415   -8967.6462   -8929.3906   -1126.6065    18593.421    4.6605297 
    3050    342.45604   -8967.8642   -8929.6627    369.52762    18568.613    4.6699473 
    3060    337.42287   -8967.5612   -8929.9212    1455.7163    18545.091    4.6754023 
    3070    331.00513   -8967.0748   -8930.1507     2271.288    18525.614    4.6772503 
    3080    338.83867   -8968.1544   -8930.3565    2707.1554    18512.163    4.6754823 
    3090     353.8055    -8970.044   -8930.5765    2798.9664    18505.727    4.6706163 
    3100    349.95197   -8969.8774   -8930.8397    2817.2161    18506.476    4.6633091 
    3110    328.83546   -8967.8037   -8931.1217    2601.1318    18514.284    4.6537912 
    3120    321.77664   -8967.2759   -8931.3812    1852.2544    18528.444    4.6419993 
    3130    322.46453   -8967.5683   -8931.5969    605.82565    18546.978    4.6288729 
    3140    318.33728   -8967.2657   -8931.7547   -434.41825    18566.824    4.6164807 
    3150    326.76401   -8968.3167   -8931.8657   -1454.1233    18585.235    4.6068833 
    3160    330.56743   -8968.8246   -8931.9494   -2258.4318    18599.676    4.6029455 
    3170    335.79199   -8969.4876   -8932.0295   -2640.4763    18608.213    4.6071051 
    3180    339.04092   -8969.9368   -8932.1163    -2416.499    18610.024     4.619594 
    3190    336.09796   -8969.6978   -8932.2056   -1789.4647    18605.739    4.6383484 
    3200    337.48528     -8969.94    -8932.293   -1471.8772     18596.86    4.6614716 
    3210    339.85929   -8970.2958    -8932.384    -1228.597    18584.354    4.6885183 
    3220    341.36481   -8970.5634   -8932.4836   -827.81329    18568.981    4.7189455 
    3230    343.28653   -8970.8865   -8932.5924   -408.51318    18551.752    4.7511322 
    3240    339.31537    -8970.559   -8932.7079    409.70764    18533.867     4.782159 
    3250    323.43985   -8968.8863   -8932.8061     1453.949    18517.369    4.8092302 
    3260    333.55541   -8970.0888   -8932.8802    1892.7182    18504.671    4.8318405 
    3270    350.97347   -8972.1109   -8932.9593    1934.7373    18496.874    4.8513437 
    3280    343.67889    -8971.403   -8933.0651    1943.7912    18494.107    4.8677523 
    3290    346.02591    -8971.798   -8933.1983    1195.5188    18496.124    4.8809623 
    3300    351.62123   -8972.5819    -8933.358   -56.129853    18501.011    4.8939626 
    3310    340.48866   -8971.5209   -8933.5388   -925.51895    18505.775    4.9090328 
    3320    336.64302   -8971.2757   -8933.7226   -1573.0457    18508.159    4.9246541 
    3330    350.12295   -8972.9737   -8933.9169   -1977.7893    18506.589    4.9394474 
    3340    352.95122   -8973.5164   -8934.1441   -1648.4442    18500.206    4.9552928 
    3350    344.84358    -8972.862   -8934.3942   -831.97636    18489.834    4.9726941 
    3360    352.13246   -8973.9409     -8934.66   -205.66941     18477.45    4.9902082 
    3370    358.38734   -8974.9299   -8934.9513    215.19588    18464.683    5.0071802 
    3380    360.30744   -8975.4723   -8935.2795    652.96006    18452.656    5.0229426 
    3390    352.45583   -8974.9506   -8935.6336    807.94886    18442.364    5.0384242 
    3400    346.61808   -8974.6541   -8935.9883    387.30852    18434.117    5.0557673 
    3410    352.83436   -8975.7049   -8936.3457   -645.22934    18426.799    5.0770126 
    3420     351.7802   -8975.9587   -8936.7171   -1408.2014    18418.028    5.1038773 
    3430    341.24809   -8975.1507    -8937.084   -1587.4112    18405.972    5.1357689 
    3440    336.69547   -8974.9757   -8937.4168   -1364.7965    18390.185    5.1711283 
    3450    341.21636   -8975.7754   -8937.7122   -821.09917    18371.247    5.2112817 
    3460    348.91975   -8976.9093   -8937.9868    38.923452    18350.587    5.2592359 
    3470    355.26754    -8977.896   -8938.2654    924.53615      18330.3    5.3152315 
    3480     351.0722   -8977.7223   -8938.5597    1789.5206    18312.584    5.3771394 
    3490    341.06834   -8976.8953   -8938.8486    2369.3802    18299.507    5.4401548 
    3500    348.20643   -8977.9738   -8939.1308     2016.433    18292.281    5.4972566 
    3510    362.41836   -8979.8592   -8939.4309     775.3004    18289.914    5.5441331 
    3520    366.44604   -8980.6504   -8939.7728   -256.77812    18289.545    5.5820261 
    3530    358.62737   -8980.1531   -8940.1477   -683.97669    18288.698    5.6154424 
    3540    356.44217    -8980.294   -8940.5323   -1008.6484    18286.171    5.6495985 
    3550    360.57815   -8981.1454   -8940.9224   -1231.5666    18281.204     5.688998 
    3560    358.08111   -8981.2594    -8941.315    -1198.145    18273.322    5.7344592 
    3570    346.01445   -8980.2837   -8941.6852   -804.15832    18262.693     5.782349 
    3580    339.54245   -8979.8838   -8942.0073    -420.7299    18250.278    5.8285705 
    3590    344.60687   -8980.7315   -8942.2901    -451.1851    18236.976    5.8702462 
    3600    354.67641   -8982.1399   -8942.5752   -707.28865     18222.75    5.9067351 
    3610    360.41849   -8983.1085   -8942.9032   -716.22313    18207.081     5.941495 
    3620    357.72316   -8983.1741   -8943.2695   -478.95207    18189.993    5.9796992 
    3630    354.68124   -8983.2153     -8943.65   -249.16015    18172.038    6.0246126 
    3640    347.93606   -8982.8322   -8944.0195    116.07616    18153.847    6.0755156 
    3650    349.52378   -8983.3545   -8944.3646    253.53195    18136.237    6.1279287 
    3660    358.43602   -8984.6899   -8944.7058     158.2336    18119.526    6.1780496 
    3670    355.91441   -8984.7522   -8945.0495    262.42685    18103.573    6.2252466 
    3680    355.33455   -8985.0259   -8945.3878     366.3395    18088.583    6.2710883 
    3690    349.36452   -8984.6916   -8945.7195    498.99343    18074.802    6.3184607 
    3700    334.42679   -8983.3273   -8946.0214     813.6432    18062.584    6.3694437 
    3710    337.74317   -8983.9679   -8946.2922    1058.9194    18052.568    6.4220371 
    3720    343.02166   -8984.8145   -8946.5499    1426.5756    18045.342    6.4703284 
    3730     339.7203   -8984.6977   -8946.8014    1539.4418    18041.638    6.5080769 
    3740    338.48072   -8984.7951   -8947.0371    1040.6094    18041.552    6.5323678 
    3750    349.62288   -8986.2649    -8947.264    326.35384    18043.923    6.5444988 
    3760    355.53552   -8987.1715    -8947.511   -279.98015    18047.029    6.5499619 
    3770     344.9664    -8986.261   -8947.7795   -232.70523    18049.568    6.5551686 
    3780    341.06253   -8986.0964   -8948.0503   -215.66277    18051.484    6.5619578 
    3790    343.08069   -8986.5908   -8948.3197   -34.701031    18052.903     6.568173 
    3800    332.01181   -8985.6152   -8948.5787    560.76701    18054.309    6.5698432 
    3810    321.94398   -8984.7143   -8948.8009    948.68118    18057.034    6.5643246 
    3820    332.42851   -8986.0655   -8948.9826    318.74238    18061.774    6.5538592 
    3830    345.00038   -8987.6324   -8949.1471   -567.58687    18067.136     6.543417 
    3840    339.40521    -8987.177   -8949.3158   -677.62511    18071.202    6.5370819 
    3850    327.04057   -8985.9636   -8949.4817   -94.451585    18073.705    6.5370995 
    3860    326.41716    -8986.037   -8949.6247    274.39021    18075.875    6.5425578 
    3870     331.8009   -8986.7543   -8949.7414    381.94686    18078.632    6.5494668 
    3880    338.43612   -8987.6011   -8949.8481    202.05876    18082.185    6.5525924 
    3890    334.01942   -8987.2176   -8949.9572     344.0652    18086.245    6.5512861 
    3900    326.49348   -8986.4808     -8950.06    670.94192    18091.109     6.547768 
    3910    326.94796   -8986.6143   -8950.1427    570.30921    18097.433    6.5455359 
    3920    327.38111    -8986.723   -8950.2031    73.317562    18104.946    6.5488748 
    3930    325.41495   -8986.5392   -8950.2387   -553.42281    18112.488    6.5609525 
    3940     331.1172   -8987.1801   -8950.2435   -1334.4512    18118.563    6.5829435 
    3950     334.8515   -8987.5762    -8950.223   -2095.7063    18121.307    6.6126538 
    3960    332.04463   -8987.2366   -8950.1965   -2253.9957    18119.045    6.6454594 
    3970    324.95092   -8986.4108    -8950.162   -1684.4809    18111.514    6.6801965 
    3980    326.38141   -8986.5187   -8950.1104   -762.77291    18100.088    6.7163903 
    3990    328.42232   -8986.6729   -8950.0369    422.14986    18087.056    6.7504959 
    4000    320.68324   -8985.7075   -8949.9348     1515.853    18075.223    6.7761471 
    4010    327.38143   -8986.3241   -8949.8042     1981.766    18067.082    6.7885677 
    4020    331.61377    -8986.633    -8949.641    2097.9445      18063.8    6.7893704 
    4030    335.32443   -8986.8567   -8949.4507    1926.8608    18065.564    6.7814912 
    4040    331.68817   -8986.2409   -8949.2406     1750.114    18071.949    6.7662785 
    4050    331.99319   -8986.0519   -8949.0175     1095.444    18082.329    6.7435353 
    4060     348.6643   -8987.6752   -8948.7812    63.372876     18095.13     6.716188 
    4070    345.24267   -8987.0665   -8948.5542   -706.35458    18107.974    6.6898824 
    4080    330.96176   -8985.2733    -8948.354   -1493.5825    18118.906    6.6681856 
    4090    334.00828   -8985.4167   -8948.1576   -2431.2286    18126.003    6.6536613 
    4100    339.84287   -8985.8765   -8947.9665     -2845.49    18127.187    6.6486464 
    4110    333.92509   -8985.0502   -8947.8004   -2155.4683    18121.671    6.6518543 
    4120    332.11883   -8984.6943    -8947.646   -928.38747    18111.144    6.6585065 
    4130    346.45878     -8986.14    -8947.492    -48.83724    18098.476    6.6661735 
    4140    350.85149   -8986.4924   -8947.3544    568.85597    18085.863    6.6757209 
    4150    343.39693   -8985.5496   -8947.2432    1128.3885    18074.825    6.6876282 
    4160    346.47473   -8985.7904   -8947.1406    1433.0991    18066.624    6.7006043 
    4170     358.3379    -8987.023   -8947.0498    1594.6667    18061.995     6.715913 
    4180    360.54947   -8987.2164   -8946.9966    1912.4667    18061.344    6.7350039 
    4190    359.11486   -8987.0626   -8947.0028    1944.1966    18065.259    6.7538256 
    4200    356.17909   -8986.8057   -8947.0734    1362.9064     18073.69    6.7638556 
    4210    358.43402   -8987.1962   -8947.2123    452.83511    18085.223    6.7591328 
    4220     356.8829   -8987.2276   -8947.4167   -386.82198    18097.692    6.7398618 
    4230    353.79256   -8987.1386   -8947.6725   -1352.1576     18108.99    6.7100477 
    4240    351.00425    -8987.115   -8947.9599    -1866.947    18116.932    6.6744138 
    4250    342.48994   -8986.4633   -8948.2581   -1533.8606    18120.409    6.6367188 
    4260    341.70128   -8986.6521   -8948.5348   -1005.0546     18120.14    6.5995542 
    4270    352.58321    -8988.115   -8948.7838   -275.93188    18117.485    6.5652309 
    4280    349.36762   -8987.9895   -8949.0171    671.61298    18114.275    6.5365156 
    4290    336.40875   -8986.7518   -8949.2249    1134.9657    18112.655     6.514219 
    4300    345.47759   -8987.9459   -8949.4073    512.69183    18113.571    6.4977388 
    4310    358.24611   -8989.5499    -8949.587   -554.32025    18115.618    6.4871449 
    4320    348.42616   -8988.6333   -8949.7659   -932.72607    18116.455    6.4847312 
    4330    343.78803   -8988.2837   -8949.9337   -1000.8486    18115.085    6.4940837 
    4340    349.34954   -8989.0708   -8950.1003   -928.59543    18111.359      6.51611 
    4350    339.42695   -8988.1232   -8950.2596   -586.17699    18105.534    6.5468215 
    4360    340.38488   -8988.3719   -8950.4014   -439.28917    18098.389    6.5816437 
    4370    347.03949   -8989.2429   -8950.5301   -733.03401    18090.232    6.6203436 
    4380    347.83445   -8989.4671   -8950.6657   -1084.1132    18080.437    6.6650174 
    4390    346.93674   -8989.5121   -8950.8108   -1028.6125    18068.319    6.7162948 
    4400     348.2648   -8989.8097   -8950.9602   -553.74417    18054.064    6.7713513 
    4410    361.82425   -8991.4905   -8951.1284   -88.404322     18038.75    6.8264261 
    4420    376.17641   -8993.3135   -8951.3505    197.45931    18023.499     6.880191 
    4430    383.03364   -8994.3853   -8951.6573    242.31058    18008.982    6.9354509 
    4440    382.87318   -8994.7625   -8952.0524   -68.593656    17995.257    6.9981473 
    4450    377.29468   -8994.5948    -8952.507   -459.11303    17981.616    7.0720488 
    4460    377.67787    -8995.112   -8952.9814   -692.43526    17967.198    7.1542883 
    4470    388.44004   -8996.8088   -8953.4777   -852.24831    17951.455    7.2411023 
    4480    384.35241   -8996.8619   -8953.9869   -621.05763     17934.11    7.3315611 
    4490    371.44725   -8995.9031   -8954.4676   -133.61199    17915.733    7.4227933 
    4500    365.16935   -8995.6354   -8954.9002    49.623622    17897.386    7.5108674 
    4510    369.47472   -8996.5137   -8955.2982   -86.204609    17879.496    7.5949783 
    4520    379.95746   -8998.0805   -8955.6957   -185.63091    17861.818    7.6753167 
    4530    380.72533   -8998.5964   -8956.1259   -81.209011    17844.117    7.7498377 
    4540    376.02351   -8998.5293   -8956.5833    382.94804    17826.707     7.817736 
    4550    381.55978   -8999.6325   -8957.0689    688.97236    17810.536     7.880287 
    4560    374.78807   -8999.3835   -8957.5753    1285.4538    17796.423    7.9379142 
    4570    363.85976    -8998.659   -8958.0699    1464.6694    17785.523    7.9868396 
    4580    369.72544    -8999.794   -8958.5506    877.52038    17778.095    8.0236143 
    4590    377.37093   -9001.1427   -8959.0464    511.43209    17772.911     8.051282 
    4600    368.49401   -9000.6616   -8959.5555    987.66539    17769.187    8.0751071 
    4610    360.07194   -9000.2109   -8960.0443    1449.6235    17767.824    8.0911941 
    4620    373.13666    -9002.159   -8960.5351    999.70487    17769.672    8.0968135 
    4630    373.54621   -9002.7093   -8961.0397   -164.96249    17773.654    8.0983324 
    4640      376.569   -9003.5686   -8961.5618   -1747.0665    17777.073    8.1024127 
    4650    371.21714   -9003.5109   -8962.1011   -2652.2145    17776.495    8.1163477 
    4660    355.30258   -9002.2638   -8962.6293    -2254.877    17770.016    8.1407709 
    4670    352.88258   -9002.4801   -8963.1155   -1309.8697    17758.513    8.1683962 
    4680    363.82127   -9004.1668    -8963.582    -439.5574    17744.148    8.1953481 
    4690    366.24908   -9004.9076   -8964.0519    105.47227    17728.976    8.2236745 
    4700    362.23876   -9004.9361   -8964.5279    351.46059    17714.289    8.2516338 
    4710    361.54579    -9005.336    -8965.005     769.9866    17700.735    8.2769176 
    4720    359.99802   -9005.6366   -8965.4782    1314.8368    17689.209    8.2991532 
    4730    353.62085   -9005.3851   -8965.9382    2250.3772     17681.03    8.3171386 
    4740    347.41176   -9005.1232   -8966.3689    3019.0676    17678.159    8.3303805 
    4750    354.14827   -9006.2944   -8966.7886     2979.305    17682.107    8.3382777 
    4760    366.24991   -9008.0878   -8967.2321    2362.6196    17692.753    8.3399123 
    4770    369.52566   -9008.9387   -8967.7176    1454.1268    17708.646    8.3375013 
    4780    362.11453   -9008.6079   -8968.2134    170.57617    17727.582    8.3311805 
    4790    379.69838   -9011.0761   -8968.7202   -1528.2215    17746.545    8.3204453 
    4800    396.33234    -9013.506   -8969.2945   -2800.4371    17761.746    8.3095647 
    4810    377.64767   -9012.0445   -8969.9174   -3080.4012    17770.385    8.3039551 
    4820    367.07309   -9011.4703   -8970.5227    -3266.355    17771.713    8.3051082 
    4830    371.19842   -9012.5223   -8971.1146   -3569.8787    17765.372    8.3128043 
    4840    371.85538   -9013.1965   -8971.7154   -3413.5621    17750.935    8.3271199 
    4850    380.53906   -9014.7882   -8972.3385   -2805.8806    17728.926    8.3485893 
    4860    392.62208    -9016.809   -8973.0114   -1897.9136    17700.881    8.3786657 
    4870    389.90146   -9017.2048   -8973.7107   -698.69812    17669.087    8.4184227 
    4880     391.7885   -9018.1061   -8974.4015    313.50354    17636.335    8.4656089 
    4890    400.50147    -9019.769   -8975.0924    1125.3797    17605.011    8.5169418 
    4900    402.99827   -9020.7583   -8975.8032    1555.2715    17576.922    8.5718428 
    4910    409.45433    -9022.224   -8976.5487     1370.273    17552.917    8.6311834 
    4920    419.36175   -9024.1425   -8977.3621    694.83384    17532.514    8.6955171 
    4930    421.24813   -9025.2377   -8978.2468   -162.25369    17514.124    8.7650617 
    4940     423.8885   -9026.4599   -8979.1745   -676.97662    17495.889    8.8366151 
    4950    431.43296   -9028.2753   -8980.1483   -941.36139    17476.617    8.9067674 
    4960    435.15322   -9029.7034   -8981.1614   -761.72692    17455.793    8.9775624 
    4970    449.97617   -9032.4222   -8982.2267   -583.57445    17433.779    9.0524619 
    4980    465.41465   -9035.3079   -8983.3902   -800.92076    17410.922    9.1344778 
    4990    467.29786   -9036.7776   -8984.6498   -784.10122    17386.933    9.2265068 
    5000    458.00749    -9037.025   -8985.9336   -741.44524    17361.853    9.3287645 
Loop time of 1944.81 on 16 procs for 3000 steps with 864 atoms

Performance: 0.133 ns/day, 180.075 hours/ns, 1.543 timesteps/s
95.6% CPU use with 16 MPI tasks x 1 OpenMP threads

MPI task timing breakdown:
Section |  min time  |  avg time  |  max time  |%varavg| %total
---------------------------------------------------------------
Pair    | 449.44     | 1153.8     | 1932.8     |1469.3 | 59.33
Bond    | 0.00023937 | 0.0005286  | 0.00089693 |   0.0 |  0.00
Neigh   | 0.023012   | 0.053076   | 0.098882   |  10.2 |  0.00
Comm    | 6.1224     | 569.62     | 1380.1     |1756.6 | 29.29
Output  | 0.21453    | 0.21898    | 0.28496    |   3.6 |  0.01
Modify  | 1.9452     | 221.14     | 580.12     |1371.5 | 11.37
Other   |            | 0.01618    |            |       |  0.00

Nlocal:        54.0000 ave          83 max          25 min
Histogram: 2 3 1 0 0 1 5 1 1 2
Nghost:        547.875 ave         712 max         385 min
Histogram: 1 3 1 1 2 1 3 0 2 2
Neighs:         0.00000 ave           0 max           0 min
Histogram: 16 0 0 0 0 0 0 0 0 0
FullNghs:      2971.88 ave        5812 max         697 min
Histogram: 5 1 0 0 1 4 2 0 1 2

Total # of neighbors = 47550
Ave neighs/atom = 55.034722
Ave special neighs/atom = 0.0000000
Neighbor list builds = 300
Dangerous builds = 300
Setting up Verlet run ...
  Unit style    : metal
  Current step  : 5000
  Time step     : 0.001
Per MPI rank memory allocation (min/avg/max) = 8.894 | 8.911 | 8.920 Mbytes
Step Temp PotEng TotEng Press Volume c_msd[4] 
    5000    458.00749    -9037.025   -8985.9336   -741.44524    17361.853    9.3287645 
    5010    476.17294   -9039.2513   -8986.1335   -2650.4121    17360.325    9.3742778 
    5020    486.93807   -9041.1077    -8986.789   -3624.2348    17353.054    9.4280892 
    5030    491.16066   -9042.6481   -8987.8584   -3582.0613    17337.862    9.4875244 
    5040    506.20218   -9045.5816    -8989.114   -3333.9513      17314.7    9.5515064 
    5050    505.22803   -9046.6774   -8990.3185   -2162.5656    17284.337    9.6240359 
    5060    481.78998    -9045.118   -8991.3736    60.592033    17249.481    9.7024433 
    5070    479.76623   -9045.8894   -8992.3708    1581.7547    17214.749    9.7746938 
    5080     501.8275   -9049.4661   -8993.4865    1993.0988    17183.458    9.8288318 
    5090     525.9152   -9053.5148   -8994.8481    2002.0934    17156.659    9.8605292 
    5100    531.67478   -9055.7426   -8996.4335    1859.4159    17134.364    9.8728317 
    5110    518.74289   -9055.9472   -8998.0806    1417.4952    17116.218    9.8699409 
    5120    505.19941   -9056.0448    -8999.689    815.59145    17101.276    9.8559674 
    5130    504.79193   -9057.5688   -9001.2585    229.00251     17088.22    9.8365393 
    5140    516.94894   -9060.5529   -9002.8865   -472.94248    17075.748    9.8192526 
    5150    512.52823   -9061.7656   -9004.5923   -1151.3943    17062.394    9.8127689 
    5160    501.94997   -9062.3144   -9006.3211    -2023.156    17046.634    9.8215683 
    5170    502.68134    -9064.134   -9008.0591   -2641.6972    17026.751    9.8461811 
    5180    518.89176   -9067.7625   -9009.8793   -3192.8416    17001.423    9.8838617 
    5190    541.90354   -9072.3087   -9011.8586   -3164.8971    16969.652    9.9311838 
    5200    543.09442   -9074.5401   -9013.9571   -1614.2728    16931.866     9.986804 
    5210    524.83337   -9074.5218   -9015.9758     816.5899    16891.457    10.049384 
    5220    541.36755   -9078.3415   -9017.9511    2215.9406    16853.241    10.115035 
    5230    566.67841   -9083.3197   -9020.1058    3498.0256    16820.369    10.175953 
    5240    554.13823   -9084.2053   -9022.3904    4479.0598    16795.368    10.220975 
    5250    544.10176   -9085.3628   -9024.6674    4256.3802    16779.984    10.243901 
    5260    536.36358   -9086.7767   -9026.9446    2733.2615    16773.513    10.247209 
    5270    521.27561   -9087.3053   -9029.1562     1053.187    16772.837    10.238085 
    5280    516.82837   -9088.9371   -9031.2841   -531.51614    16774.395    10.221724 
    5290    521.71995   -9091.5948   -9033.3961    -1549.906    16774.959    10.201796 
    5300    512.12579   -9092.6505    -9035.522    -1868.342    16772.376    10.186319 
    5310    483.40239   -9091.4553   -9037.5311   -1530.8917    16766.124    10.183547 
    5320    490.83442   -9094.2113    -9039.458   -2077.3666    16756.626    10.199401 
    5330    500.71576   -9097.3109   -9041.4553   -1963.5397    16743.211    10.240656 
    5340    515.92899   -9101.1131   -9043.5605   -1396.7695    16726.094     10.30528 
    5350    514.13588   -9103.1118   -9045.7592    77.836806    16706.671    10.387431 
    5360    500.76211   -9103.7647   -9047.9039    1900.4662    16687.938    10.481022 
    5370    501.91392   -9105.9903    -9050.001    2804.9202    16673.398     10.57589 
    5380    502.98127   -9108.2155   -9052.1072    2499.4548    16664.767    10.662342 
    5390    499.41862   -9109.9401   -9054.2292    1453.3999    16661.307    10.737249 
    5400    487.80108   -9110.7207   -9056.3057    527.12034    16660.927    10.805827 
    5410    485.07702   -9112.4362   -9058.3251   -793.42395    16661.579    10.870911 
    5420    488.30751   -9114.8087   -9060.3373   -2445.0237    16660.492    10.933206 
    5430      482.803   -9116.2337   -9062.3763   -3530.0861    16654.511     10.99834 
    5440    471.42321   -9116.9687   -9064.3807   -3389.2842    16641.699     11.07458 
    5450    459.45152    -9117.592   -9066.3395   -2610.7166    16622.369    11.162004 
    5460    436.90032   -9116.8826   -9068.1457   -1059.1984    16598.391    11.253054 
    5470    448.37633   -9119.8776   -9069.8606    378.82451    16572.821    11.341378 
    5480    451.79455   -9121.9863   -9071.5879    2232.1794    16548.795    11.430268 
    5490    432.19509   -9121.4823   -9073.2703    4192.2493     16529.89    11.520466 
    5500    431.76664    -9123.049   -9074.8848    5223.5788    16519.724    11.603229 
    5510    460.95694    -9128.021   -9076.6005    4796.6971    16520.027    11.670166 
    5520    449.38748   -9128.5438    -9078.414    3566.1647    16529.826    11.727047 
    5530     415.5802    -9126.458   -9080.0994    1199.0716    16546.374    11.779229 
    5540    412.77748   -9127.6504   -9081.6045   -2115.6243    16564.733    11.823669 
    5550    427.53982   -9130.7713   -9083.0786   -4600.9184    16578.534    11.861478 
    5560    429.16664   -9132.4761   -9084.6019   -5413.1497    16583.015    11.901064 
    5570    430.53762   -9134.1904   -9086.1633   -4879.7073     16576.67     11.94524 
    5580    439.06193   -9136.7788   -9087.8007   -2984.1164    16560.886    11.991176 
    5590    425.77808   -9136.9388   -9089.4426   -25.566057    16539.691    12.032735 
    5600    413.87567   -9137.1558   -9090.9874     2621.949    16518.928    12.058972 
    5610     417.1863    -9139.029   -9092.4912    3629.7823     16503.64    12.060247 
    5620    408.22181   -9139.5103   -9093.9726    3432.3727    16495.812    12.040672 
    5630    407.72241   -9140.8877   -9095.4057    2077.1232    16494.823    12.012975 
    5640    416.13862   -9143.2735   -9096.8526    498.75809    16497.978    11.988327 
    5650    393.79027   -9142.1924   -9098.2645   -143.08085    16502.223    11.972278 
    5660    383.66698   -9142.3551   -9099.5565   -279.47404      16506.2     11.96453 
    5670    393.53264   -9144.7229   -9100.8237   -433.95888    16509.506    11.970317 
    5680     387.5757   -9145.3157   -9102.0811   -255.29589    16511.971    11.998932 
    5690    398.90458   -9147.8453   -9103.3469   -483.18339    16513.806    12.050963 
    5700    399.27236    -9149.181   -9104.6416   -1193.1889    16514.527    12.117368 
    5710    393.50239    -9149.816   -9105.9203   -1976.3007    16512.859    12.187665 
    5720    394.41614   -9151.1937    -9107.196   -2946.3318    16507.189    12.260465 
    5730    387.69437   -9151.7202   -9108.4723   -3133.6471    16495.888    12.344501 
    5740     378.1422   -9151.8879   -9109.7056   -2602.1634    16478.726    12.448505 
    5750    385.19959   -9153.8761   -9110.9065   -1321.3633    16456.869    12.573707 
    5760    387.62534   -9155.3267   -9112.0865    987.46467     16433.06    12.709121 
    5770     382.0639   -9155.8346   -9113.2148    3156.6004    16411.759    12.834426 
    5780    386.74908   -9157.4571   -9114.3147    4134.3996    16397.035    12.931064 
    5790    403.42157   -9160.4869   -9115.4846    3935.6312    16390.639     12.99148 
    5800    398.41173   -9161.1794    -9116.736    2700.0878    16391.982     13.02364 
    5810    388.32842   -9161.3022   -9117.9835    467.35469    16398.466     13.04577 
    5820     386.1517   -9162.2862   -9119.2104   -2001.3907    16405.704    13.077388 
    5830    369.95616   -9161.6723   -9120.4032   -3139.9124    16409.111    13.134236 
    5840    359.90316   -9161.6766   -9121.5289   -3094.4039    16406.434    13.221971 
    5850    371.17457   -9164.0261    -9122.621   -2405.5975    16397.777    13.337523 
    5860    380.72908   -9166.1895   -9123.7186   -1543.3829    16384.558    13.472488 
    5870    376.88291   -9166.8474   -9124.8056   -651.85033    16368.565    13.617462 
    5880    379.01868   -9168.1591    -9125.879    141.12112    16351.635    13.762595 
    5890     376.2747   -9168.9145   -9126.9405    530.02945    16335.343    13.897754 
    5900    374.37035   -9169.7381   -9127.9765    137.31464    16320.325    14.014401 
    5910    366.54176   -9169.8717   -9128.9834    279.33892    16306.039    14.107972 
    5920    367.17778   -9170.9196   -9129.9604    887.38372    16292.719    14.177913 
    5930     374.9798   -9172.7924   -9130.9628    1510.1704    16281.432    14.226121 
    5940    358.64272   -9171.9543   -9131.9471    2864.6057    16273.506    14.253954 
    5950    358.78364   -9172.9084   -9132.8856    3697.3695    16271.252    14.258789 
    5960    360.61105   -9174.0578    -9133.831    3389.2275     16276.08    14.238813 
    5970    344.39075   -9173.1605   -9134.7432    2279.9411    16287.336    14.197432 
    5980    344.48401   -9174.0142   -9135.5865    113.68449    16302.654    14.144447 
    5990     349.9934   -9175.4188   -9136.3765   -1454.4611    16318.031    14.095363 
    6000    349.73829   -9176.1522   -9137.1383   -1627.6198    16330.526    14.061065 
    6010    347.14542   -9176.6116    -9137.887   -1490.0828     16339.64    14.041761 
    6020    339.65355   -9176.5001   -9138.6112   -1212.9199    16345.702    14.035485 
    6030    342.67152   -9177.5267   -9139.3011   -1214.9639    16349.234    14.041201 
    6040    360.59752   -9180.2353   -9140.0101   -1467.2885    16350.261    14.057924 
    6050     359.1398    -9180.822   -9140.7594   -1362.3407    16348.449    14.086641 
    6060    356.06215   -9181.2468   -9141.5276   -819.60339    16344.064    14.127759 
    6070    355.21636   -9181.9215   -9142.2966    -73.88237    16338.152    14.176948 
    6080    338.39587   -9180.7707   -9143.0221    523.37631    16332.147    14.228531 
    6090    324.61804   -9179.8805   -9143.6689    726.44852     16327.19    14.280375 
    6100    323.54843    -9180.347   -9144.2547    687.24514    16323.678    14.331655 
    6110    324.44988   -9180.9809    -9144.788    854.18364    16321.628    14.380025 
    6120    338.15187   -9183.0211   -9145.2998    756.81184    16321.219    14.417547 
    6130    336.62143   -9183.3712   -9145.8205    1029.4175    16322.364    14.434162 
    6140    320.70609   -9182.0994   -9146.3242    1463.9077     16325.58    14.422346 
    6150    321.83903   -9182.6927   -9146.7911    642.51104    16331.399    14.380255 
    6160    322.03292    -9183.131   -9147.2078   -788.56267    16338.333    14.315588 
    6170    317.77878   -9183.0025   -9147.5538    -2078.168    16343.695    14.240043 
    6180    324.37851   -9184.0224   -9147.8375   -2677.7587    16345.022    14.167341 
    6190    325.49444   -9184.3952   -9148.0858   -2165.8878    16341.233    14.114474 
    6200    321.63603   -9184.1854   -9148.3065   -1281.1677    16333.236    14.094404 
    6210    328.08849   -9185.1158    -9148.517   -281.17715    16322.769    14.110658 
    6220    315.40931   -9183.8827   -9148.6984    1327.2699    16311.965    14.154897 
    6230     324.8628   -9185.0789   -9148.8399    2359.7732     16303.78    14.208208 
    6240      337.844   -9186.6538   -9148.9667    2595.9173    16300.181    14.256284 
    6250    323.56653   -9185.1767   -9149.0823     2959.114    16301.774    14.293528 
    6260    337.65572   -9186.8558   -9149.1898    2077.0587    16308.956    14.317379 
    6270    348.42198   -9188.1655   -9149.2985     317.3939    16320.041    14.331418 
    6280    334.01557   -9186.6712   -9149.4112   -1135.0518    16331.754    14.339479 
    6290    333.28176   -9186.6939   -9149.5158   -2432.4476    16341.145     14.34539 
    6300    326.50073   -9186.0254   -9149.6038   -2707.8048    16345.836    14.357408 
    6310     307.4328   -9183.9576    -9149.663   -2092.0619     16345.28     14.38048 
    6320    304.60743   -9183.6455   -9149.6661   -1472.4934    16340.563    14.409661 
    6330      319.707   -9185.2719   -9149.6081   -724.36224    16333.005    14.435254 
    6340    326.87339   -9185.9702    -9149.507    836.14806    16324.248    14.452865 
    6350    313.93737   -9184.3943   -9149.3741    2980.8599    16317.301    14.460093 
    6360    302.25936   -9182.9247   -9149.2072    4056.8789      16316.1    14.450567 
    6370    323.73381   -9185.1159   -9149.0029    3078.5862    16322.582    14.420081 
    6380    336.71599   -9186.3159   -9148.7547    1111.9231    16334.939    14.373986 
    6390    333.94377   -9185.7382   -9148.4863   -270.07523    16349.536    14.322844 
    6400    329.56329   -9184.9616   -9148.1983   -1282.0121    16363.557    14.275255 
    6410    330.36934   -9184.7339   -9147.8807   -1892.0682    16375.054     14.23852 
    6420    331.64374   -9184.5326   -9147.5372    -2048.815    16382.787    14.218274 
    6430    333.21251   -9184.3542   -9147.1839   -1629.5057    16386.476     14.21491 
    6440    334.35471    -9184.129   -9146.8312   -855.42208    16386.962    14.222815 
    6450     336.5135   -9184.0195   -9146.4809   -461.87279    16385.674    14.236985 
    6460    342.09256   -9184.2985   -9146.1376   -110.14771    16383.463    14.256594 
    6470    341.64938   -9183.9175    -9145.806     341.2161    16381.059    14.280648 
    6480    359.04083   -9185.5446   -9145.4931    683.41399    16379.332    14.306052 
    6490    358.10787   -9185.1652   -9145.2177    1394.4083    16379.073    14.326493 
    6500    343.30955   -9183.2883   -9144.9916    1724.4824    16381.533    14.332479 
    6510    359.63009   -9184.9102    -9144.793    568.24847    16387.161    14.320682 
    6520     364.5993   -9185.3005   -9144.6288   -1143.0962    16393.801    14.298989 
    6530     335.8953   -9181.9878   -9144.5181   -1576.2965    16398.402    14.276658 
    6540    333.24037   -9181.5946   -9144.4211   -1844.8695    16399.858    14.255501 
    6550    356.00394    -9184.033   -9144.3202   -2102.6528    16397.639    14.236808 
    6560    357.18546    -9184.093   -9144.2484   -1605.1902    16391.363     14.22564 
    6570    357.64214   -9184.1276   -9144.2321   -631.01914    16381.984    14.224716 
    6580    355.24764   -9183.8889   -9144.2605    411.60334    16371.406    14.231089 
    6590    348.60844   -9183.2022   -9144.3144    970.40017    16361.601    14.239413 
    6600    363.89128   -9184.9982   -9144.4056    1050.8267      16353.7    14.248841 
    6610    361.69408   -9184.9074   -9144.5599    1905.8085    16348.069    14.261024 
    6620    331.20026   -9181.6926   -9144.7467    2936.2453    16346.279    14.273694 
    6630    341.27442   -9183.0098   -9144.9401    1719.5009    16349.903    14.283568 
    6640    363.36339   -9185.6926   -9145.1588   -577.28839    16356.776    14.295361 
    6650    368.02787   -9186.4922   -9145.4381   -2078.2275    16362.651    14.320094 
    6660    362.89557   -9186.2819   -9145.8004   -2369.1517     16364.59    14.364212 
    6670    337.51947   -9183.8493   -9146.1985    -1701.079    16361.981    14.427535 
    6680    338.78493    -9184.382   -9146.5901   -996.04535    16356.002    14.504893 
    6690    335.46629   -9184.3811   -9146.9593    150.66232    16348.162    14.589277 
    6700    334.35465   -9184.6009   -9147.3031    1116.0926    16340.611    14.670609 
    6710     342.3126   -9185.8235    -9147.638    1261.7017    16335.171    14.741484 
    6720    343.55194    -9186.298   -9147.9743    848.96123    16332.175    14.796296 
    6730    340.27251   -9186.2707   -9148.3128   -180.61979    16330.779    14.828609 
    6740    344.00323   -9187.0508   -9148.6767   -1550.3676    16328.958     14.83753 
    6750    336.28388   -9186.5734   -9149.0604   -2016.6823    16324.242    14.829299 
    6760    332.40857    -9186.512   -9149.4313   -1639.0241    16315.718    14.809076 
    6770    334.72706   -9187.1184   -9149.7791   -932.43878    16304.055    14.781877 
    6780    332.44607    -9187.193   -9150.1081    14.397861     16290.66     14.75604 
    6790    333.31374   -9187.6013   -9150.4197    652.25099    16277.312    14.739855 
    6800    339.77837   -9188.6449   -9150.7421    1240.7768    16265.306    14.736167 
    6810    329.51229   -9187.8227   -9151.0651     2614.658    16255.995    14.741451 
    6820    323.20337   -9187.4209   -9151.3671    3391.7875    16251.726    14.747584 
    6830    320.53367   -9187.3925   -9151.6365    3434.3557    16254.025    14.747162 
    6840    325.39459   -9188.1612   -9151.8629    2052.6647    16262.803    14.735321 
    6850    324.93285   -9188.2814   -9152.0346    329.52615    16275.531    14.714997 
    6860    322.80357   -9188.1625   -9152.1533   -1063.1205    16288.858    14.694125 
    6870    323.94443    -9188.369   -9152.2325   -1891.0869    16300.095    14.682401 
    6880    320.88619   -9188.0877   -9152.2924   -2368.9284    16307.573    14.690221 
    6890    312.40322   -9187.1855   -9152.3364   -2313.9291    16310.435    14.720236 
    6900    311.84364   -9187.1426    -9152.356   -1966.5078    16308.755    14.764085 
    6910     313.1685   -9187.2723   -9152.3379   -1603.1194    16303.204    14.807878 
    6920    318.41901   -9187.7953   -9152.2752    -1034.649    16294.603    14.842459 
    6930    327.76862   -9188.7174   -9152.1544   -371.30929    16284.024    14.867301 
    6940    326.91743   -9188.4457   -9151.9776    921.83402    16272.923    14.884301 
    6950    317.86651   -9187.2184   -9151.7599    2030.8817    16263.694    14.892794 
    6960     325.9104   -9187.8667   -9151.5109    2100.6425    16258.357    14.890612 
    6970    337.53968   -9188.8893   -9151.2362    1937.7112    16257.161    14.879208 
    6980    334.71417   -9188.2983   -9150.9604    1868.5889    16259.798    14.865434 
    6990    336.30845     -9188.21   -9150.6943    1187.7817    16265.997    14.854288 
    7000    344.59045   -9188.8725   -9150.4329   -236.85502    16274.325    14.852707 
    7010    331.87351   -9187.2053   -9150.1844   -1194.0619    16282.232    14.868974 
    7020    330.26854    -9186.782     -9149.94   -2151.9118    16287.718    14.904277 
    7030    338.72311   -9187.4605   -9149.6754    -2860.242     16288.96    14.957571 
    7040    334.91657    -9186.765   -9149.4045   -2329.0204    16284.792     15.02367 
    7050    327.50647   -9185.6649    -9149.131    -725.0457    16276.268    15.091557 
    7060    325.85699   -9185.1876   -9148.8378    919.13645    16266.383    15.149784 
    7070    327.80636   -9185.0853    -9148.518       1847.5    16258.265    15.189553 
    7080    340.61385   -9186.1806   -9148.1846    1884.2168     16253.69    15.206259 
    7090    349.69024   -9186.8662   -9147.8577    1328.3243    16252.724    15.200861 
    7100     353.9189   -9187.0387   -9147.5585    693.53188     16254.35    15.180339 
    7110    350.44679   -9186.3843   -9147.2914    583.95351    16257.446    15.154575 
    7120    339.44935   -9184.9206   -9147.0546    368.31414    16261.636    15.129228 
    7130    336.31512   -9184.3451   -9146.8286   -200.50009    16266.455    15.109693 
    7140    342.93535   -9184.8618   -9146.6068   -483.22212     16270.89    15.107201 
    7150    346.21902   -9185.0233    -9146.402   -631.89672    16274.338    15.128649 
    7160    348.34858   -9185.0795   -9146.2207   -891.15371    16276.486    15.169992 
    7170    350.89795   -9185.2013   -9146.0581    -471.2793    16277.025    15.222675 
    7180    347.20642   -9184.6464    -9145.915    153.19624    16276.692    15.277756 
    7190    354.05351   -9185.2862    -9145.791    59.121739    16276.544    15.329779 
    7200    362.02829   -9186.0886   -9145.7038   -226.41352    16276.456    15.376193 
    7210    353.58586   -9185.1156   -9145.6725    67.538158    16276.026    15.411239 
    7220    357.28969   -9185.5491   -9145.6929    655.58249    16275.821    15.427498 
    7230    365.75066   -9186.5714   -9145.7713    843.08214    16276.838    15.424492 
    7240    354.52776   -9185.4583   -9145.9102     558.8322    16279.436    15.407026 
    7250    355.64396   -9185.7618   -9146.0892   -583.79296    16282.979    15.380949 
    7260    358.16673   -9186.2539   -9146.2998   -1631.6363    16285.407     15.35622 
    7270    351.63927   -9185.7687   -9146.5428   -2036.1524    16284.714    15.343369 
    7280    352.93429   -9186.1933    -9146.823    -1409.551    16280.227    15.348611 
    7290    357.82167    -9187.065   -9147.1494    86.318216    16273.131    15.369862 
    7300    351.37896   -9186.7082   -9147.5114    1882.0425    16266.276    15.396378 
    7310    341.72527   -9186.0076   -9147.8876     3130.402    16263.079    15.415187 
    7320    348.19005   -9187.1267   -9148.2856    2574.8175    16265.724    15.416407 
    7330    351.91079   -9187.9696   -9148.7134    1099.0548    16273.265    15.399799 
    7340    349.76188   -9188.1807   -9149.1643    92.787324    16283.053    15.372827 
    7350    347.62103   -9188.3978   -9149.6201   -782.18363    16293.016    15.345613 
    7360     355.9576   -9189.7963   -9150.0887   -1884.3607    16301.381    15.328805 
    7370    345.13805   -9189.0675   -9150.5668   -2729.6438     16306.06    15.331556 
    7380    338.20817    -9188.766   -9151.0384   -3360.9308    16305.359     15.35802 
    7390    342.11352   -9189.6906   -9151.5273   -3217.1501    16298.165    15.410943 
    7400    341.20763   -9190.0839   -9152.0216   -1712.9336    16284.897    15.490174 
    7410    345.51208   -9191.0482   -9152.5059    313.21611    16268.362    15.584891 
    7420    338.44125   -9190.7133   -9152.9597    2888.2265    16252.612    15.676499 
    7430    326.50223   -9189.7959   -9153.3741    4589.0911    16242.413    15.745335 
    7440    322.45768   -9189.7405   -9153.7699    4407.3432    16240.899    15.779574 
    7450     319.7009   -9189.8073   -9154.1442    2916.3476    16247.843    15.778448 
    7460    335.73725   -9191.9352   -9154.4832    459.71476    16260.311    15.747703 
    7470    347.86161   -9193.6096   -9154.8051   -1467.7306    16273.739    15.697203 
    7480    330.00019   -9191.9283   -9155.1162   -2219.8783    16284.441    15.640265 
    7490    307.67521   -9189.7109   -9155.3892   -2327.9993    16290.842    15.589131 
    7500    310.00182   -9190.1879   -9155.6068   -2622.2773    16292.572    15.553068 
    7510    325.23366   -9192.0689   -9155.7886    -2540.489    16289.193    15.540161 
    7520    316.95578    -9191.297   -9155.9401   -1367.4371    16281.016    15.551253 
    7530    308.84525   -9190.4889   -9156.0368   -357.67976    16270.133     15.57913 
    7540    321.25255   -9191.9155   -9156.0793   -28.708464     16258.47    15.619465 
    7550     327.8343    -9192.655   -9156.0846    273.94209    16246.826    15.671661 
    7560    332.58186   -9193.1736   -9156.0736    487.71409    16235.751    15.733133 
    7570    327.09761   -9192.5344   -9156.0462    1178.5129    16225.757    15.800128 
    7580     318.0082    -9191.466   -9155.9917    2524.0119    16218.221    15.865453 
    7590    322.64078    -9191.895    -9155.904     3440.155    16215.593    15.920002 
    7600    326.35671   -9192.1978   -9155.7922    3218.7421    16219.516    15.959037 
    7610    317.86232   -9191.1187   -9155.6606    2453.1955    16229.656    15.981165 
    7620    321.97056    -9191.414   -9155.4977    1116.0028    16244.499    15.984916 
    7630    329.01695   -9191.9903    -9155.288   -436.72672     16261.47    15.971414 
    7640    332.71849   -9192.1584   -9155.0431   -1772.4834    16277.598    15.946106 
    7650    333.90393   -9192.0309   -9154.7834   -2572.7574    16290.299    15.917597 
    7660    325.66576   -9190.8477   -9154.5192   -2739.3594    16298.029    15.895426 
    7670    327.70889   -9190.8031   -9154.2467   -2741.5542    16300.338    15.885918 
    7680     327.9023   -9190.5286   -9153.9506    -2171.866     16297.34    15.891144 
    7690    325.42718   -9189.9366   -9153.6347   -1059.6561    16290.171     15.90762 
    7700     326.9706   -9189.7724   -9153.2983    -48.44719    16280.929    15.927851 
    7710    338.71353   -9190.7312   -9152.9472    224.63399    16271.486    15.943119 
    7720    348.92314     -9191.52   -9152.5971    552.84825    16262.537    15.947624 
    7730    348.36812   -9191.1301   -9152.2691    1248.6253    16254.783    15.940532 
    7740     340.4226   -9189.9434   -9151.9688    2026.9184    16249.486    15.923172 
    7750    339.09139   -9189.5099   -9151.6837     2702.931     16248.18    15.896789 
    7760    350.55658   -9190.5164   -9151.4113     2321.915    16252.012    15.863676 
    7770    346.90302   -9189.8577   -9151.1601    1299.1629    16260.294    15.830797 
    7780    335.49449   -9188.3601   -9150.9352    141.78488    16271.108    15.804897 
    7790     336.3939   -9188.2374   -9150.7122   -1267.8914    16282.138    15.791142 
    7800     348.8996   -9189.4084   -9150.4881   -2470.3534    16290.682    15.796723 
    7810    348.60672   -9189.1709   -9150.2832   -2424.4049    16294.576    15.825661 
    7820     347.9483   -9188.9209   -9150.1068   -1688.0872    16293.785     15.87475 
    7830    348.47393   -9188.8218    -9149.949   -1394.8244    16289.565    15.939947 
    7840    339.90397   -9187.7269   -9149.8101   -1077.6773    16282.637    16.017085 
    7850    345.78602    -9188.259   -9149.6861   -894.37513    16273.534    16.097864 
    7860    352.01405   -9188.8409   -9149.5732    141.86936    16262.869    16.171676 
    7870    356.07712   -9189.2072   -9149.4862    1474.9634    16252.552    16.228108 
    7880    365.92588    -9190.271   -9149.4514    2309.2291     16245.02    16.259215 
    7890    358.71122   -9189.5071   -9149.4923    2988.2221    16242.038    16.261861 
    7900    343.83445   -9187.9498   -9149.5945    2589.0599    16244.731    16.236761 
    7910    339.56804   -9187.5905   -9149.7112    846.87966    16252.246    16.190568 
    7920    343.10593   -9188.0928   -9149.8188   -1332.2263     16261.33    16.137944 
    7930    351.86752   -9189.1823    -9149.931   -2908.0301    16267.912    16.099315 
    7940    368.03206   -9191.1472   -9150.0927   -3413.1035    16268.926    16.093852 
    7950    362.21641   -9190.7449   -9150.3391   -2370.0355    16263.515    16.133902 
    7960    345.56121   -9189.2035   -9150.6557   -1018.6128    16253.504    16.220267 
    7970    340.02323   -9188.9091    -9150.979    364.36861    16241.531    16.337599 
    7980    332.65968   -9188.3617    -9151.253    1724.5986    16230.305    16.460128 
    7990    327.46699   -9187.9904    -9151.461    2720.8605    16222.427    16.565106 
    8000    344.93385    -9190.148   -9151.6701    3117.1688    16219.779    16.635945 
    8010    336.59765   -9189.4759   -9151.9279      3159.82    16223.196    16.664905 
    8020     331.0886   -9189.1467   -9152.2133    1909.0914    16232.533    16.653633 
    8030    337.36731   -9190.1217   -9152.4879    347.97297    16245.544     16.61282 
    8040    325.46859   -9189.0271   -9152.7206   -512.30384    16259.336    16.556052 
    8050    328.70113   -9189.5853   -9152.9182   -1806.7023    16271.965     16.49113 
    8060    335.86381   -9190.5604   -9153.0943   -3358.2261    16280.906     16.42162 
    8070    330.10128   -9190.0832   -9153.2599     -3851.75    16283.369    16.355657 
    8080    331.49465   -9190.3932   -9153.4145    -3629.884    16278.317    16.308797 
    8090    347.15762   -9192.3031   -9153.5772   -2756.0917    16266.272    16.298345 
    8100    354.63522   -9193.3392   -9153.7791   -1221.5067    16248.994    16.329952 
    8110    345.62934   -9192.5673   -9154.0118    899.69903    16229.533    16.393651 
    8120    334.00909   -9191.5002    -9154.241    3010.5372    16211.949    16.472134 
    8130    317.69201   -9189.8795   -9154.4405    4451.9378    16200.244    16.548279 
    8140    324.38242   -9190.8027   -9154.6174    4591.4097    16197.064    16.611699 
    8150    332.14644   -9191.8348   -9154.7834     3602.502    16202.632    16.662559 
    8160    324.97376   -9191.1731   -9154.9218    1914.3566    16215.053    16.702437 
    8170    326.28839   -9191.4081   -9155.0101   -842.47038    16230.947    16.729115 
    8180    330.92168   -9191.9693   -9155.0545   -3458.2659    16245.131    16.744552 
    8190    326.30984   -9191.4929   -9155.0925   -4658.9333    16252.673    16.754688 
    8200    321.91604   -9191.0446   -9155.1343   -4855.8065    16251.232    16.765156 
    8210    337.38968   -9192.8238   -9155.1874   -5331.9192    16240.194    16.781148 
    8220    344.57739   -9193.7097   -9155.2716   -4633.7302     16219.04    16.809192 
    8230    330.12253   -9192.1835   -9155.3578   -2246.1469    16189.332    16.851758 
    8240    331.21586   -9192.3291   -9155.3815    1028.3307    16155.692    16.905534 
    8250    336.23241   -9192.8297   -9155.3225    4707.1157    16124.494    16.963903 
    8260    333.08645   -9192.3819   -9155.2256    7443.5612    16102.587    17.015346 
    8270    340.86858   -9193.1951   -9155.1707    8166.2833    16094.907    17.044016 
    8280    335.64215   -9192.6282   -9155.1868    6767.3497    16102.644    17.039393 
    8290    337.61629   -9192.8951   -9155.2335    3258.1359    16122.941     17.00552 
    8300    345.90706   -9193.8311   -9155.2446   -696.81555    16149.255    16.960825 
    8310    338.57321   -9192.9885   -9155.2201   -3675.2557    16174.124    16.929408 
    8320    330.32268   -9192.0421   -9155.1941   -5440.5178    16191.791    16.932218 
    8330     323.0141   -9191.2185   -9155.1858    -5433.434    16199.022    16.979144 
    8340    311.97048   -9189.9753   -9155.1746   -4075.0655     16195.85    17.065373 
    8350    320.03463   -9190.8151   -9155.1147   -2517.3039    16184.866     17.17686 
    8360    336.32399   -9192.5143   -9154.9968   -1028.7555    16169.145    17.299422 
    8370    333.16289    -9192.009   -9154.8442    394.71694    16151.644    17.421525 
    8380    334.36946    -9191.974   -9154.6745    739.64504    16134.978    17.533346 
    8390    347.31639   -9193.2436      -9154.5    486.49028    16119.872    17.630388 
    8400    340.45319   -9192.3126   -9154.3345     1630.411    16106.204    17.709636 
    8410    330.94383   -9191.0935   -9154.1762     2982.061    16095.918     17.76535 
    8420    357.75997   -9193.9364   -9154.0277    2676.1453    16091.181    17.796951 
    8430    361.97472   -9194.2987   -9153.9198     2038.472    16091.602     17.81267 
    8440    336.35535   -9191.3879    -9153.867    1404.6997     16095.94    17.817131 
    8450    329.71834   -9190.6059   -9153.8253    55.914198    16102.768     17.81113 
    8460    324.90432   -9190.0029   -9153.7593   -1345.2469    16109.587    17.800206 
    8470    335.31541   -9191.0802   -9153.6752   -2156.4317    16113.825    17.789043 
    8480    357.32627   -9193.4598   -9153.5995    -2144.443    16114.003    17.777831 
    8490    353.99423   -9193.0488   -9153.5602   -1230.3044    16110.239    17.764085 
    8500    348.12499   -9192.3861   -9153.5522   -173.17944    16104.177      17.7469 
    8510    340.52286   -9191.5405   -9153.5546    866.18884    16097.874    17.725093 
    8520    335.44944   -9190.9787   -9153.5588    987.14323    16093.167     17.69301 
    8530    354.81059   -9193.1546   -9153.5749   -41.938089    16090.236    17.650008 
    8540    357.26591    -9193.477   -9153.6235    -113.8762    16087.482    17.604496 
    8550    341.66505   -9191.8194   -9153.7061    743.62975    16084.704    17.562927 
    8560    343.42703   -9192.1139   -9153.8041    1282.7775    16083.339    17.528318 
    8570    355.75884   -9193.6127   -9153.9273    1019.6073    16084.296    17.501903 
[...]
   22890    329.64622   -9228.7701   -9191.9976   -470.43143    15773.122    25.962863 
   22900    327.24191   -9228.5412   -9192.0369   -1032.7828    15779.916    26.015369 
   22910    325.29865   -9228.3359   -9192.0483   -1535.6942    15784.778    26.072682 
   22920    325.45453    -9228.326   -9192.0211   -1881.0916    15786.812    26.125433 
   22930    332.86786   -9229.0994   -9191.9675   -2379.8663     15785.31    26.165685 
   22940    334.61765   -9229.2544   -9191.9273   -2337.3968    15779.503    26.191313 
   22950    327.40522   -9228.4311   -9191.9085   -1412.7795    15769.531    26.206732 
   22960    328.63853   -9228.5245   -9191.8643    -29.76635    15757.071    26.222173 
   22970    340.78295   -9229.7785   -9191.7636    969.74838    15744.523    26.245776 
   22980    332.79937    -9228.718   -9191.5938    1610.2715    15733.785    26.276328 
   22990    338.63926   -9229.1474   -9191.3716     999.7088    15725.842    26.307242 
   23000    351.79143   -9230.3584   -9191.1155    -35.71617    15719.677    26.339328 
   23010    337.44973   -9228.5065   -9190.8635    140.84022     15713.69    26.381737 
   23020    330.33813   -9227.4878    -9190.638    575.49698    15708.015    26.439438 
   23030    336.89325   -9227.9992   -9190.4182    1075.1704    15703.445    26.507782 
   23040    339.85242   -9228.1029   -9190.1919    1334.2766    15700.825    26.578013 
   23050    351.72049   -9229.1828   -9189.9479    1088.9977    15700.603     26.64389 
   23060    356.86013    -9229.504   -9189.6957    671.38163    15702.333     26.70223 
   23070    348.37012   -9228.3322    -9189.471    867.34732    15705.416     26.74658 
   23080    340.02603   -9227.2018   -9189.2714    605.70457    15709.989    26.766018 
   23090    344.53029   -9227.5209    -9189.088   -149.83372    15715.585    26.753282 
   23100    344.18616   -9227.3333   -9188.9388   -1047.9899    15720.861     26.70908 
   23110    342.19074   -9227.0068   -9188.8349   -2041.8012    15724.196    26.643941 
   23120    348.14761   -9227.5936   -9188.7573   -2989.6302    15723.777    26.576542 
   23130    342.53021   -9226.9073   -9188.6976   -2789.1132     15718.05     26.52519 
   23140    330.74946   -9225.5358   -9188.6402   -1452.0306    15707.442    26.496771 
   23150    340.38813   -9226.5359   -9188.5651    165.35805    15694.295    26.486069 
   23160    348.91224   -9227.3948   -9188.4731    2036.8673    15681.626    26.482248 
   23170    354.42158   -9227.9229   -9188.3866    3350.3868    15672.736    26.478066 
   23180    367.51927   -9229.3472   -9188.3499    3100.4329    15669.746    26.476916 
   23190    361.54804   -9228.7407   -9188.4095    2452.9154    15672.386    26.490184 
   23200    345.81113   -9227.1285   -9188.5527    1536.4686    15679.451    26.524316 
   23210    352.54774   -9228.0693   -9188.7421    154.46708    15689.186    26.579213 
   23220     352.8515   -9228.3347   -9188.9736   -971.44889      15699.2    26.655285 
   23230    346.15687   -9227.8534   -9189.2391    -2146.605    15707.353    26.754146 
   23240    341.09418   -9227.5678   -9189.5182   -3126.6346    15711.551    26.872774 
   23250    329.50699   -9226.5345   -9189.7775   -3142.4128    15710.175    27.003176 
   23260     346.5283   -9228.6812   -9190.0254   -2939.2051    15703.082    27.134084 
   23270     349.5175   -9229.2949   -9190.3057   -1832.3728    15690.855    27.259185 
   23280    325.37463   -9226.8679   -9190.5719    198.84222    15675.602    27.371995 
   23290    331.14269   -9227.7396   -9190.8001    1201.5505    15660.695     27.46029 
   23300    331.83792   -9228.0226   -9191.0055    1706.0945    15648.098    27.516271 
   23310      339.166   -9229.0278   -9191.1933    1585.3588    15638.653    27.538829 
   23320    346.53841   -9230.0293   -9191.3725    1158.7166    15632.143    27.529404 
   23330    328.78872   -9228.2003   -9191.5234    1416.0146    15627.936    27.490009 
   23340    323.28108   -9227.6829   -9191.6204    1343.6868    15626.278    27.424072 
   23350    329.56416   -9228.4223   -9191.6589    629.88011    15626.962    27.343079 
   23360    341.75949    -9229.799   -9191.6752    126.04224    15628.813    27.264092 
   23370    339.40672   -9229.5566   -9191.6953    90.610805    15630.947    27.199558 
   23380    337.25579   -9229.3448   -9191.7234   -94.655797    15633.179    27.154164 
   23390    340.46119   -9229.7286   -9191.7497   -273.81469    15635.227     27.12621 
   23400    342.44751   -9229.9775   -9191.7769   -75.508571    15636.839    27.111145 
   23410    340.25722   -9229.7656   -9191.8094    33.195446    15638.282    27.106133 
   23420    342.53996   -9230.0624   -9191.8515   -74.039252    15639.707    27.112835 
   23430    332.51447   -9228.9837   -9191.8912    584.05564    15641.133    27.133328 
   23440    332.60629   -9229.0227     -9191.92    1007.8804    15643.568    27.161116 
   23450    341.35557   -9230.0272   -9191.9484    632.79833    15647.684     27.18763 
   23460    332.96635    -9229.124   -9191.9811   -218.39775    15652.865    27.211323 
   23470    339.25242   -9229.8538   -9192.0097   -1321.8571    15657.567    27.237752 
   23480    348.52921   -9230.9243   -9192.0453   -1515.7158    15659.969    27.274691 
   23490    334.52872    -9229.414   -9192.0968   -292.65588    15659.829    27.321489 
   23500    332.24615    -9229.202   -9192.1394    761.41694    15659.115     27.36512 
   23510    337.58988    -9229.822   -9192.1633    1155.9401    15659.708    27.391383 
   23520    318.70956   -9227.7142   -9192.1617    1057.0908    15662.341    27.393656 
   23530    322.07623   -9228.0526   -9192.1246   -286.30797    15666.671    27.375721 
   23540    341.23295   -9230.1335   -9192.0685   -1875.6787    15670.408    27.351535 
   23550    319.93639   -9227.7073   -9192.0179   -1895.9156    15670.984    27.334346 
   23560    315.10998   -9227.1083   -9191.9573   -1184.2586     15668.21    27.323698 
   23570    339.32882   -9229.7125   -9191.8599   -154.35413    15663.326    27.307576 
   23580     340.0166   -9229.6681   -9191.7387    1452.7112    15658.308    27.270111 
   23590    341.91912   -9229.7464   -9191.6048    2523.1488    15655.895    27.201606 
   23600    341.15366    -9229.499   -9191.4428    2322.8238    15657.869    27.108782 
   23610    332.29539   -9228.3288   -9191.2608    1415.6143    15663.938    27.008396 
   23620     334.7244   -9228.3932   -9191.0541    26.572983    15672.461     26.91247 
   23630    342.78373     -9229.06    -9190.822   -1173.6876    15681.013    26.828326 
   23640    341.67945   -9228.7006   -9190.5858   -1745.7237    15687.469    26.762544 
   23650    339.00652   -9228.1746    -9190.358    -2255.424    15690.675     26.71962 
   23660    341.97828   -9228.2828   -9190.1347   -2436.2218    15689.797    26.702522 
   23670    353.61704   -9229.3706   -9189.9241   -2120.9673    15684.529    26.712668 
   23680    343.02349   -9228.0001   -9189.7353   -554.89135    15675.644    26.746012 
   23690    340.65534   -9227.5548   -9189.5542    1119.9643     15665.85    26.789243 
   23700    363.37431   -9229.9081   -9189.3731    2276.3838    15658.083    26.826373 
   23710    353.05554   -9228.6073   -9189.2234    4017.7803    15654.631    26.845372 
   23720     341.7265   -9227.2455   -9189.1254      4817.07    15658.363    26.832443 
   23730    359.89647   -9229.2124   -9189.0654     3811.729    15670.513     26.78241 
   23740    351.14642   -9228.2108   -9189.0399    2508.7169    15689.531    26.703862 
   23750    335.97595    -9226.511   -9189.0324    569.62043    15712.938    26.607948 
   23760    341.39583    -9227.083   -9188.9998   -2185.1394    15737.091    26.506624 
   23770     343.1295   -9227.2184   -9188.9418   -4563.0671    15757.167    26.413904 
   23780    347.14301   -9227.6166   -9188.8923   -6424.9524    15768.782    26.342951 
   23790    358.30733   -9228.8739   -9188.9041   -6423.3942    15768.787    26.306579 
   23800    346.91621   -9227.6965   -9188.9975   -4024.3943    15757.342    26.313164 
   23810    341.34767   -9227.2051   -9189.1273   -556.51894    15738.753    26.355576 
   23820    342.29995   -9227.4437   -9189.2596    2777.4826     15719.28     26.41009 
   23830    336.64553    -9226.969   -9189.4157     5377.675    15704.978    26.447531 
   23840    333.59974   -9226.8487   -9189.6351    6304.9063    15700.371     26.44985 
   23850    332.10933    -9226.977   -9189.9297    5263.4258    15707.025    26.415978 
   23860    337.14015   -9227.8755    -9190.267     2326.368    15722.996    26.354834 
   23870    350.72532   -9229.7381   -9190.6142   -1202.1941    15743.046    26.286056 
   23880    348.61968   -9229.8661    -9190.977   -3301.4531    15761.001    26.233695 
   23890    331.31338   -9228.2965    -9191.338   -3697.7517    15773.037    26.210848 
   23900    332.73228   -9228.7876   -9191.6708   -3549.3761    15778.251    26.213915 
   23910    338.38403   -9229.7226   -9191.9754   -3170.9966    15776.919    26.232591 
   23920    341.72296   -9230.3787    -9192.259   -2337.5825    15769.808    26.258771 
   23930    338.38658   -9230.2685    -9192.521   -747.42825    15758.559    26.291329 
   23940    322.12527   -9228.6616   -9192.7281     815.4405    15746.005    26.331086 
   23950     324.4163   -9229.0623   -9192.8732    1463.1434    15734.872    26.371622 
   23960    332.39636   -9230.0577   -9192.9783    1890.0368     15726.47    26.404907 
   23970    331.69584   -9230.0617   -9193.0605    2380.0466    15721.633    26.424309 
   23980    335.05331   -9230.5163   -9193.1406    2249.2199    15721.085    26.420414 
   23990    324.01584   -9229.3615    -9193.217    1935.8317     15724.69    26.386144 
   24000    334.49441   -9230.5899   -9193.2765    991.77108    15731.735    26.326177 
   24010    341.41795   -9231.3964   -9193.3107    146.95391    15740.571    26.258949 
   24020    323.64553   -9229.4225   -9193.3194   -6.5747812    15749.787    26.199459 
   24030    336.97133   -9230.9063   -9193.3166   -825.16593    15758.827    26.149237 
   24040    332.17592   -9230.3693   -9193.3145    -1283.785    15766.383    26.105078 
   24050    324.58977   -9229.5246   -9193.3161   -1411.0866    15771.595    26.065622 
   24060    324.81641   -9229.5249   -9193.2911   -1474.4967    15774.175    26.036912 
   24070    314.97473   -9228.3551   -9193.2192   -786.76268    15774.169    26.028102 
   24080     322.9421   -9229.1204   -9193.0957   -595.76671    15772.633    26.039097 
   24090    335.16726   -9230.3176   -9192.9292   -944.98446    15769.914    26.062243 
   24100     335.8459   -9230.2123   -9192.7481   -1009.2808    15765.525    26.085881 
   24110    332.41734   -9229.6513   -9192.5697   -777.07022     15759.33    26.101187 
   24120    322.36878   -9228.3427   -9192.3819    381.91366    15751.869    26.107002 
   24130    326.03044   -9228.5378   -9192.1686    2048.0358    15745.191    26.103499 
   24140    335.99361   -9229.4103   -9191.9297    3188.5651    15742.213    26.087833 
   24150    338.45289   -9229.4425   -9191.6875    3074.6875    15744.924    26.055858 
   24160    345.86912   -9230.0388   -9191.4566    1964.8803    15753.154    26.002027 
   24170    342.07979   -9229.3979   -9191.2383    517.34318    15764.946     25.92394 
   24180    341.78864   -9229.1632   -9191.0361   -981.35941    15777.614    25.829016 
   24190    340.25822   -9228.8128   -9190.8565    -1549.797    15788.583    25.731354 
   24200    335.52569   -9228.1414    -9190.713   -1507.1825    15796.741    25.639161 
   24210    332.29107   -9227.6622   -9190.5946   -1644.9429    15802.037    25.553235 
   24220    332.25385    -9227.545   -9190.4816   -1969.3649    15804.226     25.47276 
   24230    343.02371   -9228.6352   -9190.3703   -2294.9532    15802.737    25.395325 
   24240    344.86338   -9228.7445   -9190.2744    -1556.941    15797.164    25.317716 
   24250    343.44331   -9228.4934   -9190.1818     403.1569    15788.966     25.23861 
   24260    350.53599   -9229.1801   -9190.0773    1889.0581    15781.459    25.163213 
   24270    341.84151   -9228.1203   -9189.9874    2206.2085    15777.312    25.105395 
   24280    354.42841   -9229.4926   -9189.9555    1023.3971    15777.024    25.076507 
   24290    352.11458   -9229.2671   -9189.9881   -131.46078     15778.61    25.078259 
   24300    333.34985   -9227.2432   -9190.0575    32.527073    15780.172    25.102073 
   24310    336.83791   -9227.6994   -9190.1246    419.00995    15781.794    25.135087 
   24320    336.76534   -9227.7426   -9190.1759    1037.2493    15784.242    25.171063 
   24330    336.78688   -9227.7849   -9190.2158    979.96309    15788.479    25.207689 
   24340    348.78768   -9229.1507   -9190.2429   -51.863236    15794.354    25.242279 
   24350    351.53747   -9229.4849   -9190.2704   -818.14018    15800.168    25.268776 
   24360    340.00482   -9228.2398   -9190.3117   -1373.9407    15804.466    25.279468 
   24370    335.73533   -9227.8174   -9190.3656   -2169.5075    15806.162    25.270319 
   24380    339.11174   -9228.2665    -9190.438   -2579.8901    15803.903     25.24475 
   24390    333.69643   -9227.7504   -9190.5261   -1886.6134    15797.082    25.212601 
   24400    334.17716   -9227.8905   -9190.6125   -466.12258    15786.937    25.178687 
   24410    349.55511   -9229.6883   -9190.6949    1266.3931    15776.065    25.138733 
   24420    346.58945   -9229.4457   -9190.7831    3086.3497    15767.611    25.084477 
   24430      333.005    -9228.011   -9190.8637     4022.838    15764.773    25.009784 
   24440    340.88943   -9228.9651   -9190.9384     3044.424    15769.051    24.920112 
   24450    336.71663   -9228.5693    -9191.008    1302.8173    15778.812    24.831985 
   24460    345.22461   -9229.5991   -9191.0887   -542.94596    15790.923    24.761211 
   24470     346.2687   -9229.8183   -9191.1915   -1777.6024    15802.091    24.716558 
   24480    321.65333    -9227.178   -9191.2971   -2443.9784    15810.015    24.698355 
   24490    326.69771   -9227.8246    -9191.381   -3300.5685    15813.319    24.702183 
   24500    345.69626   -9230.0213   -9191.4584   -3495.3825    15810.581    24.723912 
   24510    346.83801   -9230.2436   -9191.5533   -2084.6658    15801.658    24.758907 
   24520     340.7408   -9229.6701   -9191.6599    46.474251    15789.042    24.801555 
   24530    330.28116   -9228.5975   -9191.7541    2289.6656    15776.621    24.843923 
   24540    330.96397   -9228.7518   -9191.8323    3803.0177     15768.39    24.874269 
   24550    338.08524   -9229.6309    -9191.917    4010.9529    15767.023    24.881646 
   24560     332.7738   -9229.1481   -9192.0267    3456.2813    15772.966    24.860941 
   24570    323.24826   -9228.2008    -9192.142    2089.3925    15785.164    24.814154 
   24580    336.51987   -9229.7876   -9192.2483   -355.00585     15801.01     24.75217 
   24590    338.95737   -9230.1642    -9192.353   -2443.9018    15816.228    24.693327 
   24600    337.70174   -9230.1557   -9192.4845   -4313.0771    15826.882    24.654797 
   24610    336.44595   -9230.2057   -9192.6746   -5131.2494    15829.642    24.652349 
   24620    328.55402   -9229.5921   -9192.9414   -4037.6966    15823.159    24.693494 
   24630    326.91902   -9229.7276   -9193.2593   -1962.1521    15809.332    24.769091 
   24640    329.14297   -9230.3198   -9193.6034    131.65899     15791.94    24.858914 
   24650    327.94747   -9230.5547   -9193.9717     1340.688    15774.751    24.938956 
   24660    324.67117   -9230.5793   -9194.3618    2191.5257    15760.105    24.989815 
   24670    325.89378   -9231.1139     -9194.76     2466.932    15749.496     25.00434 
   24680    323.00599   -9231.1579   -9195.1261    2142.7808    15743.407     24.99174 
   24690    323.50039   -9231.5095   -9195.4225    1251.5037     15741.18    24.968129 
   24700    321.92218   -9231.5523   -9195.6414    182.15795     15741.25    24.944008 
   24710    319.28369   -9231.4041   -9195.7875   -630.86778     15741.71    24.920402 
   24720    320.67404   -9231.6441   -9195.8724    -859.0439    15741.102    24.897582 
   24730    316.79178    -9231.247   -9195.9084   -441.18957    15739.051    24.882114 
   24740    319.69065   -9231.5756   -9195.9137   -413.97282    15736.115    24.878885 
   24750    319.23237   -9231.5046   -9195.8938   -344.35958     15732.48    24.884224 
   24760     321.4614   -9231.7105    -9195.851   -210.71639    15728.241    24.888869 
   24770    327.49465   -9232.3128   -9195.7803    657.95761    15723.772    24.885482 
   24780    327.73487   -9232.2397   -9195.6803    2307.5033    15720.689    24.870622 
   24790    318.09029   -9231.0365   -9195.5531    2976.2496    15721.706    24.845619 
   24800    314.61848   -9230.4887   -9195.3926    1600.9459    15727.862    24.818727 
   24810    323.99999   -9231.3279   -9195.1852   -810.94854     15736.76    24.804933 
   24820    312.57772   -9229.8009   -9194.9324   -2341.9191    15744.301    24.817378 
   24830    319.38847   -9230.2807   -9194.6524   -3351.1349    15747.586    24.858175 
   24840    342.34522   -9232.5453   -9194.3561   -3537.1628    15744.814    24.920867 
   24850    328.38351   -9230.7171   -9194.0855   -2195.2151    15735.797    24.992253 
   24860    321.48345   -9229.6993   -9193.8373   -541.32774    15722.844    25.056182 
   24870    336.69248   -9231.1356    -9193.577    733.00306     15708.89    25.102544 
   24880    333.57883   -9230.5364   -9193.3251    2495.8095    15696.468     25.12762 
   24890    323.97579   -9229.2439   -9193.1039    3896.4641    15688.618    25.128739 
   24900    327.74371   -9229.4669   -9192.9066    3888.7709     15687.73    25.103352 
   24910    329.13129   -9229.4374   -9192.7223    2698.1286    15693.782    25.052376 
   24920    318.88842   -9228.1077   -9192.5352    766.41769    15704.659    24.983776 
   24930    334.15757   -9229.6043   -9192.3285   -1822.0329    15716.804    24.911452 
   24940    342.07521   -9230.2767   -9192.1177    -3641.745    15725.674    24.853734 
   24950    330.58942   -9228.8216   -9191.9438   -3884.9041    15728.096    24.824828 
   24960    330.17996   -9228.6305   -9191.7985   -3592.8702    15723.424    24.827643 
   24970    334.19916    -9228.941   -9191.6605    -2411.401    15712.349    24.858657 
   24980    333.53885   -9228.7269   -9191.5201   -622.94466    15696.989    24.910534 
   24990    336.45281   -9228.9015   -9191.3697     1237.862    15680.546    24.972157 
   25000    341.39902   -9229.3033   -9191.2197     2866.433    15666.403    25.031111 
Loop time of 13522.1 on 16 procs for 20000 steps with 864 atoms

Performance: 0.128 ns/day, 187.807 hours/ns, 1.479 timesteps/s
95.1% CPU use with 16 MPI tasks x 1 OpenMP threads

MPI task timing breakdown:
Section |  min time  |  avg time  |  max time  |%varavg| %total
---------------------------------------------------------------
Pair    | 1925.2     | 8317.4     | 13182      |4672.7 | 61.51
Bond    | 0.0015848  | 0.0032847  | 0.006506   |   2.1 |  0.00
Neigh   | 0.12371    | 0.39033    | 0.63968    |  29.6 |  0.00
Comm    | 70.787     | 4499.3     | 10769      |5798.1 | 33.27
Output  | 1.3507     | 1.3731     | 1.7014     |   7.2 |  0.01
Modify  | 15.821     | 703.59     | 1951.5     |2323.6 |  5.20
Other   |            | 0.1003     |            |       |  0.00

Nlocal:        54.0000 ave          81 max          21 min
Histogram: 4 0 2 0 0 0 1 3 3 3
Nghost:        584.812 ave         809 max         358 min
Histogram: 2 1 1 1 1 3 5 0 0 2
Neighs:         0.00000 ave           0 max           0 min
Histogram: 16 0 0 0 0 0 0 0 0 0
FullNghs:      3184.62 ave        5756 max         563 min
Histogram: 4 2 0 0 0 1 2 4 2 1

Total # of neighbors = 50954
Ave neighs/atom = 58.974537
Ave special neighs/atom = 0.0000000
Neighbor list builds = 2000
Dangerous builds = 2000
Total wall time: 4:40:21
