
     Program PWSCF v.7.0 starts on 11Dec2023 at 14: 6:18 

     This program is part of the open-source Quantum ESPRESSO suite
     for quantum simulation of materials; please cite
         "P. Giannozzi et al., J. Phys.:Condens. Matter 21 395502 (2009);
         "P. Giannozzi et al., J. Phys.:Condens. Matter 29 465901 (2017);
         "P. Giannozzi et al., J. Chem. Phys. 152 154105 (2020);
          URL http://www.quantum-espresso.org", 
     in publications or presentations arising from this work. More details at
     http://www.quantum-espresso.org/quote

     Parallel version (MPI & OpenMP), running on      32 processor cores
     Number of MPI processes:                32
     Threads/MPI process:                     1

     MPI processes distributed on     1 nodes
     R & G space division:  proc/nbgrp/npool/nimage =      32
     213456 MiB available memory on the printing compute node when the environment starts
 
     Waiting for input...
     Reading input from standard input
Warning: card &CELL ignored
Warning: card / ignored

     Current dimensions of program PWSCF are:
     Max number of different atomic species (ntypx) = 10
     Max number of k-points (npk) =  40000
     Max angular momentum in pseudopotentials (lmaxx) =  4
     file K.pbe-spn-kjpaw_psl.1.0.0.UPF: wavefunction(s)  3S renormalized

     Subspace diagonalization in iterative solution of the eigenvalue problem:
     one sub-group per band group will be used
     ELPA distributed-memory algorithm (size of sub-group:  5*  5 procs)

 
     Parallelization info
     --------------------
     sticks:   dense  smooth     PW     G-vecs:    dense   smooth      PW
     Min         367     367     97                29857    29857    4067
     Max         368     368     98                29859    29859    4070
     Sum       11745   11745   3125               955475   955475  130195
 
     Using Slab Decomposition
 


     bravais-lattice index     =            0
     lattice parameter (alat)  =      21.4618  a.u.
     unit-cell volume          =    9885.5542 (a.u.)^3
     number of atoms/cell      =           60
     number of atomic types    =            3
     number of electrons       =       318.00
     number of Kohn-Sham states=          191
     kinetic-energy cutoff     =      80.0000  Ry
     charge density cutoff     =     320.0000  Ry
     scf convergence threshold =      1.0E-06
     mixing beta               =       0.1000
     number of iterations used =            8  plain     mixing
     Exchange-correlation=  SLA  PW   PBX  PBC
                           (   1   4   3   4   0   0   0)

     celldm(1)=  21.461843  celldm(2)=   0.000000  celldm(3)=   0.000000
     celldm(4)=   0.000000  celldm(5)=   0.000000  celldm(6)=   0.000000

     crystal axes: (cart. coord. in units of alat)
               a(1) = (   1.000000   0.000000   0.000000 )  
               a(2) = (   0.000000   1.000000   0.000000 )  
               a(3) = (   0.000000   0.000000   1.000000 )  

     reciprocal axes: (cart. coord. in units 2 pi/alat)
               b(1) = (  1.000000  0.000000  0.000000 )  
               b(2) = (  0.000000  1.000000  0.000000 )  
               b(3) = (  0.000000  0.000000  1.000000 )  


     PseudoPot. # 1 for Cl read from file:
     /ocean/projects/cts180021p/wuziqi/sssp/Cl.pbe-n-rrkjus_psl.1.0.0.UPF
     MD5 check sum: 18cc83b4be324290a879bee3176034ba
     Pseudo is Ultrasoft + core correction, Zval =  7.0
     Generated using "atomic" code by A. Dal Corso  v.5.1
     Using radial grid of 1157 points,  6 beta functions with: 
                l(1) =   0
                l(2) =   0
                l(3) =   1
                l(4) =   1
                l(5) =   2
                l(6) =   2
     Q(r) pseudized with 0 coefficients 


     PseudoPot. # 2 for K  read from file:
     /ocean/projects/cts180021p/wuziqi/sssp/K.pbe-spn-kjpaw_psl.1.0.0.UPF
     MD5 check sum: 7d58810084cac21f60fbe77ea2b688fd
     Pseudo is Projector augmented-wave + core cor, Zval =  9.0
     Generated using "atomic" code by A. Dal Corso  v.5.1
     Shape of augmentation charge: PSQ
     Using radial grid of 1165 points,  6 beta functions with: 
                l(1) =   0
                l(2) =   0
                l(3) =   1
                l(4) =   1
                l(5) =   2
                l(6) =   2
     Q(r) pseudized with 0 coefficients 


     PseudoPot. # 3 for Li read from file:
     /ocean/projects/cts180021p/wuziqi/sssp/li_pbe_v1.4.uspp.F.UPF
     MD5 check sum: e912e257baa3777c20ea3d68f190483c
     Pseudo is Ultrasoft, Zval =  3.0
     Generated by new atomic code, or converted to UPF format
     Using radial grid of  751 points,  5 beta functions with: 
                l(1) =   0
                l(2) =   0
                l(3) =   0
                l(4) =   1
                l(5) =   1
     Q(r) pseudized with 10 coefficients,  rinner =    1.150   1.150   1.150


     atomic species   valence    mass     pseudopotential
        Cl             7.00    35.45000     Cl( 1.00)
        K              9.00    39.09830     K ( 1.00)
        Li             3.00     6.94000     Li( 1.00)

     No symmetry found


                                    s                        frac. trans.

      isym =  1     identity                                     

 cryst.   s( 1) = (     1          0          0      )
                  (     0          1          0      )
                  (     0          0          1      )

 cart.    s( 1) = (  1.0000000  0.0000000  0.0000000 )
                  (  0.0000000  1.0000000  0.0000000 )
                  (  0.0000000  0.0000000  1.0000000 )


   Cartesian axes

     site n.     atom                  positions (alat units)
         1           Cl  tau(   1) = (   0.3629724   0.9686084   0.6624198  )
         2           Cl  tau(   2) = (   0.0074508   0.4295341   0.3604488  )
         3           Cl  tau(   3) = (   0.7373798   0.2933394   0.2372195  )
         4           Cl  tau(   4) = (   0.5499018   0.1542821   0.6902385  )
         5           Cl  tau(   5) = (   0.4173321   0.8488553   0.1901239  )
         6           Cl  tau(   6) = (   0.2637148   0.4452793   0.0957655  )
         7           Cl  tau(   7) = (   0.1282253   0.5350063   0.6251339  )
         8           Cl  tau(   8) = (   0.5788837   0.6004014   0.2267468  )
         9           Cl  tau(   9) = (   0.0905591   0.1867076   0.1546493  )
        10           Cl  tau(  10) = (   0.5376602   0.3817042   0.0229858  )
        11           Cl  tau(  11) = (   0.7805123   0.3673168   0.7160382  )
        12           Cl  tau(  12) = (   0.8203991   0.6397671   0.0690887  )
        13           Cl  tau(  13) = (   0.2850908   0.3350146   0.7582936  )
        14           Cl  tau(  14) = (   0.3324276   0.1151982   0.9809002  )
        15           Cl  tau(  15) = (   0.5922805   0.7653975   0.9152234  )
        16           Cl  tau(  16) = (   0.0723131   0.1595405   0.6305165  )
        17           Cl  tau(  17) = (   0.3766123   0.1219429   0.3828515  )
        18           Cl  tau(  18) = (   0.5513600   0.3637903   0.4445274  )
        19           Cl  tau(  19) = (   0.1565256   0.9285718   0.3838844  )
        20           Cl  tau(  20) = (   0.7587163   0.9862625   0.6489076  )
        21           Cl  tau(  21) = (   0.0240785   0.9282813   0.0695365  )
        22           Cl  tau(  22) = (   0.4923687   0.6039543   0.6311478  )
        23           Cl  tau(  23) = (   0.2392905   0.5214501   0.3385551  )
        24           Cl  tau(  24) = (   0.2597120   0.6799665   0.8638283  )
        25           Cl  tau(  25) = (   0.6114535   0.8231710   0.4765698  )
        26           Cl  tau(  26) = (   0.8097221   0.1358470   0.9433115  )
        27           Cl  tau(  27) = (   0.1005502   0.9337052   0.7849280  )
        28           Cl  tau(  28) = (   0.0340117   0.3356565   0.9490788  )
        29           Cl  tau(  29) = (   0.9177856   0.7882431   0.7197222  )
        30           Cl  tau(  30) = (   0.7712247   0.9376587   0.1983479  )
        31           K   tau(  31) = (   0.5961231   0.0952654   0.1575708  )
        32           K   tau(  32) = (   0.7005518   0.5901673   0.7996228  )
        33           K   tau(  33) = (   0.8223415   0.2967751   0.4961893  )
        34           Li  tau(  34) = (   0.6312068   0.7605627   0.1125057  )
        35           Li  tau(  35) = (   0.1903529   0.9417090   0.6153647  )
        36           Li  tau(  36) = (   0.9535253   0.7407399   0.0436560  )
        37           Li  tau(  37) = (   0.2560852   0.9764361   0.8835076  )
        38           Li  tau(  38) = (   0.3642112   0.5557519   0.0660770  )
        39           Li  tau(  39) = (   0.2170313   0.3007092   0.9895204  )
        40           Li  tau(  40) = (   0.6690025   0.0063625   0.7859943  )
        41           Li  tau(  41) = (   0.7509027   0.8913969   0.4546778  )
        42           Li  tau(  42) = (   0.7595290   0.4832106   0.1803856  )
        43           Li  tau(  43) = (   0.1988832   0.4718732   0.7855769  )
        44           Li  tau(  44) = (   0.9083026   0.2220150   0.1871311  )
        45           Li  tau(  45) = (   0.2707993   0.6866496   0.3237186  )
        46           Li  tau(  46) = (   0.8943202   0.2360423   0.8154983  )
        47           Li  tau(  47) = (   0.1097523   0.3869406   0.1908917  )
        48           Li  tau(  48) = (   0.3783750   0.1518123   0.7569332  )
        49           Li  tau(  49) = (   0.2088567   0.4028187   0.5115365  )
        50           Li  tau(  50) = (   0.0241243   0.5827420   0.5289960  )
        51           Li  tau(  51) = (   0.2289014   0.0447819   0.2389928  )
        52           Li  tau(  52) = (   0.4478909   0.7007685   0.7959916  )
        53           Li  tau(  53) = (   0.5305897   0.3285182   0.6505938  )
        54           Li  tau(  54) = (   0.3944126   0.3108896   0.3511349  )
        55           Li  tau(  55) = (   0.5842266   0.6626391   0.4243673  )
        56           Li  tau(  56) = (   0.6415025   0.2677678   0.9461379  )
        57           Li  tau(  57) = (   0.9512008   0.9414888   0.6337444  )
        58           Li  tau(  58) = (   0.4809257   0.0208626   0.5375193  )
        59           Li  tau(  59) = (   0.0896284   0.7301342   0.7876232  )
        60           Li  tau(  60) = (   0.8607166   0.9823795   0.0401163  )

   Crystallographic axes

     site n.     atom                  positions (cryst. coord.)
         1           Cl  tau(   1) = (  0.3629724  0.9686084  0.6624198  )
         2           Cl  tau(   2) = (  0.0074508  0.4295341  0.3604488  )
         3           Cl  tau(   3) = (  0.7373798  0.2933394  0.2372195  )
         4           Cl  tau(   4) = (  0.5499018  0.1542821  0.6902385  )
         5           Cl  tau(   5) = (  0.4173321  0.8488553  0.1901239  )
         6           Cl  tau(   6) = (  0.2637148  0.4452793  0.0957655  )
         7           Cl  tau(   7) = (  0.1282253  0.5350063  0.6251339  )
         8           Cl  tau(   8) = (  0.5788837  0.6004014  0.2267468  )
         9           Cl  tau(   9) = (  0.0905591  0.1867076  0.1546493  )
        10           Cl  tau(  10) = (  0.5376602  0.3817042  0.0229858  )
        11           Cl  tau(  11) = (  0.7805123  0.3673168  0.7160382  )
        12           Cl  tau(  12) = (  0.8203991  0.6397671  0.0690887  )
        13           Cl  tau(  13) = (  0.2850908  0.3350146  0.7582936  )
        14           Cl  tau(  14) = (  0.3324276  0.1151982  0.9809002  )
        15           Cl  tau(  15) = (  0.5922805  0.7653975  0.9152234  )
        16           Cl  tau(  16) = (  0.0723131  0.1595405  0.6305165  )
        17           Cl  tau(  17) = (  0.3766123  0.1219429  0.3828515  )
        18           Cl  tau(  18) = (  0.5513600  0.3637903  0.4445274  )
        19           Cl  tau(  19) = (  0.1565256  0.9285718  0.3838844  )
        20           Cl  tau(  20) = (  0.7587163  0.9862625  0.6489076  )
        21           Cl  tau(  21) = (  0.0240785  0.9282813  0.0695365  )
        22           Cl  tau(  22) = (  0.4923687  0.6039543  0.6311478  )
        23           Cl  tau(  23) = (  0.2392905  0.5214501  0.3385551  )
        24           Cl  tau(  24) = (  0.2597120  0.6799665  0.8638283  )
        25           Cl  tau(  25) = (  0.6114535  0.8231710  0.4765698  )
        26           Cl  tau(  26) = (  0.8097221  0.1358470  0.9433115  )
        27           Cl  tau(  27) = (  0.1005502  0.9337052  0.7849280  )
        28           Cl  tau(  28) = (  0.0340117  0.3356565  0.9490788  )
        29           Cl  tau(  29) = (  0.9177856  0.7882431  0.7197222  )
        30           Cl  tau(  30) = (  0.7712247  0.9376587  0.1983479  )
        31           K   tau(  31) = (  0.5961231  0.0952654  0.1575708  )
        32           K   tau(  32) = (  0.7005518  0.5901673  0.7996228  )
        33           K   tau(  33) = (  0.8223415  0.2967751  0.4961893  )
        34           Li  tau(  34) = (  0.6312068  0.7605627  0.1125057  )
        35           Li  tau(  35) = (  0.1903529  0.9417090  0.6153647  )
        36           Li  tau(  36) = (  0.9535253  0.7407399  0.0436560  )
        37           Li  tau(  37) = (  0.2560852  0.9764361  0.8835076  )
        38           Li  tau(  38) = (  0.3642112  0.5557519  0.0660770  )
        39           Li  tau(  39) = (  0.2170313  0.3007092  0.9895204  )
        40           Li  tau(  40) = (  0.6690025  0.0063625  0.7859943  )
        41           Li  tau(  41) = (  0.7509027  0.8913969  0.4546778  )
        42           Li  tau(  42) = (  0.7595290  0.4832106  0.1803856  )
        43           Li  tau(  43) = (  0.1988832  0.4718732  0.7855769  )
        44           Li  tau(  44) = (  0.9083026  0.2220150  0.1871311  )
        45           Li  tau(  45) = (  0.2707993  0.6866496  0.3237186  )
        46           Li  tau(  46) = (  0.8943202  0.2360423  0.8154983  )
        47           Li  tau(  47) = (  0.1097523  0.3869406  0.1908917  )
        48           Li  tau(  48) = (  0.3783750  0.1518123  0.7569332  )
        49           Li  tau(  49) = (  0.2088567  0.4028187  0.5115365  )
        50           Li  tau(  50) = (  0.0241243  0.5827420  0.5289960  )
        51           Li  tau(  51) = (  0.2289014  0.0447819  0.2389928  )
        52           Li  tau(  52) = (  0.4478909  0.7007685  0.7959916  )
        53           Li  tau(  53) = (  0.5305897  0.3285182  0.6505938  )
        54           Li  tau(  54) = (  0.3944126  0.3108896  0.3511349  )
        55           Li  tau(  55) = (  0.5842266  0.6626391  0.4243673  )
        56           Li  tau(  56) = (  0.6415025  0.2677678  0.9461379  )
        57           Li  tau(  57) = (  0.9512008  0.9414888  0.6337444  )
        58           Li  tau(  58) = (  0.4809257  0.0208626  0.5375193  )
        59           Li  tau(  59) = (  0.0896284  0.7301342  0.7876232  )
        60           Li  tau(  60) = (  0.8607166  0.9823795  0.0401163  )

     number of k points=     8  Gaussian smearing, width (Ry)=  0.0100
                       cart. coord. in units 2pi/alat
        k(    1) = (   0.0000000   0.0000000   0.0000000), wk =   0.2500000
        k(    2) = (   0.0000000   0.0000000  -0.5000000), wk =   0.2500000
        k(    3) = (   0.0000000  -0.5000000  -0.5000000), wk =   0.2500000
        k(    4) = (  -0.5000000  -0.5000000  -0.5000000), wk =   0.2500000
        k(    5) = (  -0.5000000   0.0000000   0.0000000), wk =   0.2500000
        k(    6) = (   0.0000000  -0.5000000   0.0000000), wk =   0.2500000
        k(    7) = (  -0.5000000   0.0000000   0.5000000), wk =   0.2500000
        k(    8) = (  -0.5000000   0.5000000   0.0000000), wk =   0.2500000

                       cryst. coord.
        k(    1) = (   0.0000000   0.0000000   0.0000000), wk =   0.2500000
        k(    2) = (   0.0000000   0.0000000  -0.5000000), wk =   0.2500000
        k(    3) = (   0.0000000  -0.5000000  -0.5000000), wk =   0.2500000
        k(    4) = (  -0.5000000  -0.5000000  -0.5000000), wk =   0.2500000
        k(    5) = (  -0.5000000   0.0000000   0.0000000), wk =   0.2500000
        k(    6) = (   0.0000000  -0.5000000   0.0000000), wk =   0.2500000
        k(    7) = (  -0.5000000   0.0000000   0.5000000), wk =   0.2500000
        k(    8) = (  -0.5000000   0.5000000   0.0000000), wk =   0.2500000

     Dense  grid:   955475 G-vectors     FFT dimensions: ( 125, 125, 125)

     Dynamical RAM for                 wfc:      10.88 MB

     Dynamical RAM for     wfc (w. buffer):      97.89 MB

     Dynamical RAM for           str. fact:       1.37 MB

     Dynamical RAM for           local pot:       0.00 MB

     Dynamical RAM for          nlocal pot:      47.66 MB

     Dynamical RAM for                qrad:       4.31 MB

     Dynamical RAM for          rho,v,vnew:       2.80 MB

     Dynamical RAM for               rhoin:       0.93 MB

     Dynamical RAM for            rho*nmix:       7.29 MB

     Dynamical RAM for           G-vectors:       1.94 MB

     Dynamical RAM for          h,s,v(r/c):       0.26 MB

     Dynamical RAM for          <psi|beta>:       2.44 MB

     Dynamical RAM for                 psi:      21.75 MB

     Dynamical RAM for                hpsi:      21.75 MB

     Dynamical RAM for                spsi:      21.75 MB

     Dynamical RAM for      wfcinit/wfcrot:      33.56 MB

     Dynamical RAM for           addusdens:      98.41 MB

     Dynamical RAM for          addusforce:     125.18 MB

     Estimated static dynamical RAM per process >     161.10 MB

     Estimated max dynamical RAM per process >     293.57 MB

     Estimated total dynamical RAM >       9.17 GB

     Initial potential from superposition of free atoms

     starting charge     305.7732, renormalised to     318.0000
     Starting wfcs are  279 randomized atomic wfcs
     Checking if some PAW data can be deallocated... 
       PAW data deallocated on   30 nodes for type:  2

     total cpu time spent up to now is       18.6 secs

     Self-consistent Calculation

     iteration #  1     ecut=    80.00 Ry     beta= 0.10
     Davidson diagonalization with overlap

---- Real-time Memory Report at c_bands before calling an iterative solver
           367 MiB given to the printing process from OS
             0 MiB allocation reported by mallinfo(arena+hblkhd)
        197879 MiB available memory on the node where the printing process lives
------------------
     ethr =  1.00E-02,  avg # of iterations =  4.0

     Threshold (ethr) on eigenvalues was too large:
     Diagonalizing with lowered threshold

     Davidson diagonalization with overlap

---- Real-time Memory Report at c_bands before calling an iterative solver
           447 MiB given to the printing process from OS
             0 MiB allocation reported by mallinfo(arena+hblkhd)
        189310 MiB available memory on the node where the printing process lives
------------------
     ethr =  4.55E-04,  avg # of iterations =  4.8

     total cpu time spent up to now is      113.3 secs

     total energy              =   -1774.77513082 Ry
     estimated scf accuracy    <       1.64265186 Ry

     iteration #  2     ecut=    80.00 Ry     beta= 0.10
     Davidson diagonalization with overlap

---- Real-time Memory Report at c_bands before calling an iterative solver
           459 MiB given to the printing process from OS
             0 MiB allocation reported by mallinfo(arena+hblkhd)
        191700 MiB available memory on the node where the printing process lives
------------------
     ethr =  5.17E-04,  avg # of iterations =  1.1

     total cpu time spent up to now is      145.6 secs

     total energy              =   -1774.01487757 Ry
     estimated scf accuracy    <       1.21214654 Ry

     iteration #  3     ecut=    80.00 Ry     beta= 0.10
     Davidson diagonalization with overlap

---- Real-time Memory Report at c_bands before calling an iterative solver
           460 MiB given to the printing process from OS
             0 MiB allocation reported by mallinfo(arena+hblkhd)
        189874 MiB available memory on the node where the printing process lives
------------------
     ethr =  3.81E-04,  avg # of iterations = 11.9

     total cpu time spent up to now is      213.5 secs

     total energy              =   -1774.36590069 Ry
     estimated scf accuracy    <       0.21194036 Ry

     iteration #  4     ecut=    80.00 Ry     beta= 0.10
     Davidson diagonalization with overlap

---- Real-time Memory Report at c_bands before calling an iterative solver
           460 MiB given to the printing process from OS
             0 MiB allocation reported by mallinfo(arena+hblkhd)
        196843 MiB available memory on the node where the printing process lives
------------------
     c_bands:  1 eigenvalues not converged
     ethr =  6.66E-05,  avg # of iterations = 16.4

     total cpu time spent up to now is      273.6 secs

     total energy              =   -1774.33803954 Ry
     estimated scf accuracy    <       0.15709833 Ry

     iteration #  5     ecut=    80.00 Ry     beta= 0.10
     Davidson diagonalization with overlap

---- Real-time Memory Report at c_bands before calling an iterative solver
           460 MiB given to the printing process from OS
             0 MiB allocation reported by mallinfo(arena+hblkhd)
        190217 MiB available memory on the node where the printing process lives
------------------
     ethr =  4.94E-05,  avg # of iterations =  6.0

     total cpu time spent up to now is      317.8 secs

     total energy              =   -1774.33249664 Ry
     estimated scf accuracy    <       0.06535586 Ry

     iteration #  6     ecut=    80.00 Ry     beta= 0.10
     Davidson diagonalization with overlap

---- Real-time Memory Report at c_bands before calling an iterative solver
           466 MiB given to the printing process from OS
             0 MiB allocation reported by mallinfo(arena+hblkhd)
        192689 MiB available memory on the node where the printing process lives
------------------
     ethr =  2.06E-05,  avg # of iterations = 10.6

     total cpu time spent up to now is      379.4 secs

     total energy              =   -1774.34340381 Ry
     estimated scf accuracy    <       0.00697449 Ry

     iteration #  7     ecut=    80.00 Ry     beta= 0.10
     Davidson diagonalization with overlap

---- Real-time Memory Report at c_bands before calling an iterative solver
           466 MiB given to the printing process from OS
             0 MiB allocation reported by mallinfo(arena+hblkhd)
        191617 MiB available memory on the node where the printing process lives
------------------
     c_bands:  2 eigenvalues not converged
     c_bands:  2 eigenvalues not converged
     c_bands:  2 eigenvalues not converged
     c_bands:  2 eigenvalues not converged
     c_bands:  1 eigenvalues not converged
     ethr =  2.19E-06,  avg # of iterations = 19.1

     total cpu time spent up to now is      472.5 secs

     total energy              =   -1774.34068510 Ry
     estimated scf accuracy    <       0.01031170 Ry

     iteration #  8     ecut=    80.00 Ry     beta= 0.10
     Davidson diagonalization with overlap

---- Real-time Memory Report at c_bands before calling an iterative solver
           466 MiB given to the printing process from OS
             0 MiB allocation reported by mallinfo(arena+hblkhd)
        190781 MiB available memory on the node where the printing process lives
------------------
     c_bands:  1 eigenvalues not converged
     c_bands:  1 eigenvalues not converged
     ethr =  2.19E-06,  avg # of iterations = 15.8

     total cpu time spent up to now is      546.8 secs

     total energy              =   -1774.34322277 Ry
     estimated scf accuracy    <       0.00216707 Ry

     iteration #  9     ecut=    80.00 Ry     beta= 0.10
     Davidson diagonalization with overlap

---- Real-time Memory Report at c_bands before calling an iterative solver
           466 MiB given to the printing process from OS
             0 MiB allocation reported by mallinfo(arena+hblkhd)
        193534 MiB available memory on the node where the printing process lives
------------------
     ethr =  6.81E-07,  avg # of iterations =  3.0

     total cpu time spent up to now is      591.4 secs

     total energy              =   -1774.34378799 Ry
     estimated scf accuracy    <       0.00043407 Ry

     iteration # 10     ecut=    80.00 Ry     beta= 0.10
     Davidson diagonalization with overlap

---- Real-time Memory Report at c_bands before calling an iterative solver
           466 MiB given to the printing process from OS
             0 MiB allocation reported by mallinfo(arena+hblkhd)
        195243 MiB available memory on the node where the printing process lives
------------------
     ethr =  1.37E-07,  avg # of iterations =  3.8

     total cpu time spent up to now is      636.9 secs

     total energy              =   -1774.34357086 Ry
     estimated scf accuracy    <       0.00056735 Ry

     iteration # 11     ecut=    80.00 Ry     beta= 0.10
     Davidson diagonalization with overlap

---- Real-time Memory Report at c_bands before calling an iterative solver
           466 MiB given to the printing process from OS
             0 MiB allocation reported by mallinfo(arena+hblkhd)
        193868 MiB available memory on the node where the printing process lives
------------------
     ethr =  1.37E-07,  avg # of iterations =  3.0

     total cpu time spent up to now is      682.4 secs

     total energy              =   -1774.34377374 Ry
     estimated scf accuracy    <       0.00009301 Ry

     iteration # 12     ecut=    80.00 Ry     beta= 0.10
     Davidson diagonalization with overlap

---- Real-time Memory Report at c_bands before calling an iterative solver
           467 MiB given to the printing process from OS
             0 MiB allocation reported by mallinfo(arena+hblkhd)
        190683 MiB available memory on the node where the printing process lives
------------------
     ethr =  2.92E-08,  avg # of iterations =  2.0

     total cpu time spent up to now is      724.4 secs

     total energy              =   -1774.34373349 Ry
     estimated scf accuracy    <       0.00011357 Ry

     iteration # 13     ecut=    80.00 Ry     beta= 0.10
     Davidson diagonalization with overlap

---- Real-time Memory Report at c_bands before calling an iterative solver
           467 MiB given to the printing process from OS
             0 MiB allocation reported by mallinfo(arena+hblkhd)
        191230 MiB available memory on the node where the printing process lives
------------------
     ethr =  2.92E-08,  avg # of iterations =  2.0

     total cpu time spent up to now is      766.4 secs

     total energy              =   -1774.34374230 Ry
     estimated scf accuracy    <       0.00001840 Ry

     iteration # 14     ecut=    80.00 Ry     beta= 0.10
     Davidson diagonalization with overlap

---- Real-time Memory Report at c_bands before calling an iterative solver
           467 MiB given to the printing process from OS
             0 MiB allocation reported by mallinfo(arena+hblkhd)
        191230 MiB available memory on the node where the printing process lives
------------------
     ethr =  5.79E-09,  avg # of iterations =  5.0

     total cpu time spent up to now is      824.5 secs

     total energy              =   -1774.34374874 Ry
     estimated scf accuracy    <       0.00001528 Ry

     iteration # 15     ecut=    80.00 Ry     beta= 0.10
     Davidson diagonalization with overlap

---- Real-time Memory Report at c_bands before calling an iterative solver
           467 MiB given to the printing process from OS
             0 MiB allocation reported by mallinfo(arena+hblkhd)
        192977 MiB available memory on the node where the printing process lives
------------------
     ethr =  4.80E-09,  avg # of iterations =  2.0

     total cpu time spent up to now is      867.1 secs

     total energy              =   -1774.34375090 Ry
     estimated scf accuracy    <       0.00000162 Ry

     iteration # 16     ecut=    80.00 Ry     beta= 0.10
     Davidson diagonalization with overlap

---- Real-time Memory Report at c_bands before calling an iterative solver
           467 MiB given to the printing process from OS
             0 MiB allocation reported by mallinfo(arena+hblkhd)
        192969 MiB available memory on the node where the printing process lives
------------------
     ethr =  5.11E-10,  avg # of iterations =  4.2

     total cpu time spent up to now is      931.1 secs

     total energy              =   -1774.34375101 Ry
     estimated scf accuracy    <       0.00000264 Ry

     iteration # 17     ecut=    80.00 Ry     beta= 0.10
     Davidson diagonalization with overlap

---- Real-time Memory Report at c_bands before calling an iterative solver
           467 MiB given to the printing process from OS
             0 MiB allocation reported by mallinfo(arena+hblkhd)
        190408 MiB available memory on the node where the printing process lives
------------------
     ethr =  5.11E-10,  avg # of iterations =  3.0

     total cpu time spent up to now is      977.4 secs

     End of self-consistent calculation

          k = 0.0000 0.0000 0.0000 (119513 PWs)   bands (ev):

   -45.2605 -45.1538 -44.9052 -44.7229 -44.6296 -44.5142 -44.5062 -44.3831
   -44.2404 -44.2045 -44.1899 -44.1831 -44.1629 -44.1506 -44.0475 -43.9661
   -43.8579 -43.8313 -43.8313 -43.8274 -43.8036 -43.7738 -43.5691 -43.5158
   -43.5010 -43.3657 -43.2608 -28.2299 -27.9799 -27.9386 -14.5528 -14.3961
   -14.3484 -13.9901 -13.8274 -13.6718 -13.5816 -13.5544 -13.5436 -13.4763
   -13.4647 -13.4235 -13.3983 -13.2589 -13.2559 -13.1988 -13.0148 -12.9290
   -12.8478 -12.8229 -12.8077 -12.6439 -12.5758 -12.4886 -12.4353 -12.3222
   -12.1754 -11.8249 -11.8097 -11.6681 -11.5494 -11.5460 -11.4876 -11.4680
   -11.4312 -11.3872 -11.3375 -11.2738 -11.1644  -3.6166  -3.5661  -3.5052
    -3.4025  -3.2031  -3.0861  -3.0789  -3.0203  -3.0009  -2.9071  -2.7559
    -2.7105  -2.6676  -2.5855  -2.5834  -2.5114  -2.5025  -2.4757  -2.4370
    -2.3925  -2.3586  -2.2747  -2.2418  -2.1764  -2.1276  -2.1002  -2.0606
    -2.0143  -1.9844  -1.9670  -1.9307  -1.8979  -1.8780  -1.8351  -1.8235
    -1.8088  -1.7682  -1.7578  -1.7012  -1.6778  -1.6148  -1.5892  -1.5539
    -1.5211  -1.4691  -1.4517  -1.4232  -1.3820  -1.3773  -1.3360  -1.2869
    -1.2689  -1.2096  -1.1828  -1.1506  -1.1273  -1.0940  -1.0455  -1.0262
    -0.9699  -0.9633  -0.9222  -0.8628  -0.8243  -0.8084  -0.7504  -0.7055
    -0.6729  -0.6372  -0.5927  -0.5587  -0.5302  -0.5018  -0.4229  -0.3681
    -0.3037  -0.2824  -0.2321  -0.1863  -0.1043  -0.0822   0.0305   0.2044
     0.2633   0.3198   0.3877   0.4214   0.5881   0.6120   0.6517   3.9389
     4.7178   4.9948   5.1690   5.2511   5.3675   5.5410   5.7138   5.7282
     5.8458   5.9713   6.0871   6.1204   6.2062   6.2747   6.3667   6.4094
     6.4610   6.4810   6.6067   6.7139   6.7489   6.7919   6.8008   6.9151
     6.9758   7.0749   7.1550   7.2648   7.2827   7.3346   7.3784

     occupation numbers 
     1.0000   1.0000   1.0000   1.0000   1.0000   1.0000   1.0000   1.0000
     1.0000   1.0000   1.0000   1.0000   1.0000   1.0000   1.0000   1.0000
     1.0000   1.0000   1.0000   1.0000   1.0000   1.0000   1.0000   1.0000
     1.0000   1.0000   1.0000   1.0000   1.0000   1.0000   1.0000   1.0000
     1.0000   1.0000   1.0000   1.0000   1.0000   1.0000   1.0000   1.0000
     1.0000   1.0000   1.0000   1.0000   1.0000   1.0000   1.0000   1.0000
     1.0000   1.0000   1.0000   1.0000   1.0000   1.0000   1.0000   1.0000
     1.0000   1.0000   1.0000   1.0000   1.0000   1.0000   1.0000   1.0000
     1.0000   1.0000   1.0000   1.0000   1.0000   1.0000   1.0000   1.0000
     1.0000   1.0000   1.0000   1.0000   1.0000   1.0000   1.0000   1.0000
     1.0000   1.0000   1.0000   1.0000   1.0000   1.0000   1.0000   1.0000
     1.0000   1.0000   1.0000   1.0000   1.0000   1.0000   1.0000   1.0000
     1.0000   1.0000   1.0000   1.0000   1.0000   1.0000   1.0000   1.0000
     1.0000   1.0000   1.0000   1.0000   1.0000   1.0000   1.0000   1.0000
     1.0000   1.0000   1.0000   1.0000   1.0000   1.0000   1.0000   1.0000
     1.0000   1.0000   1.0000   1.0000   1.0000   1.0000   1.0000   1.0000
     1.0000   1.0000   1.0000   1.0000   1.0000   1.0000   1.0000   1.0000
     1.0000   1.0000   1.0000   1.0000   1.0000   1.0000   1.0000   1.0000
     1.0000   1.0000   1.0000   1.0000   1.0000   1.0000   1.0000   1.0000
     1.0000   1.0000   1.0000   1.0000   1.0000   1.0000   1.0000   0.0000
     0.0000   0.0000   0.0000   0.0000   0.0000   0.0000   0.0000   0.0000
     0.0000   0.0000   0.0000   0.0000   0.0000   0.0000   0.0000   0.0000
     0.0000   0.0000   0.0000   0.0000   0.0000   0.0000   0.0000   0.0000
     0.0000   0.0000   0.0000   0.0000   0.0000   0.0000   0.0000

          k = 0.0000 0.0000-0.5000 (119478 PWs)   bands (ev):

   -45.2605 -45.1538 -44.9052 -44.7229 -44.6296 -44.5142 -44.5062 -44.3831
   -44.2404 -44.2045 -44.1899 -44.1831 -44.1629 -44.1506 -44.0475 -43.9661
   -43.8579 -43.8313 -43.8313 -43.8274 -43.8036 -43.7738 -43.5691 -43.5158
   -43.5010 -43.3657 -43.2608 -28.2299 -27.9799 -27.9386 -14.5526 -14.3962
   -14.3484 -13.9915 -13.8273 -13.6718 -13.5820 -13.5507 -13.5418 -13.4784
   -13.4643 -13.4227 -13.4003 -13.2593 -13.2562 -13.1993 -13.0142 -12.9300
   -12.8479 -12.8214 -12.8085 -12.6443 -12.5752 -12.4907 -12.4340 -12.3223
   -12.1755 -11.8248 -11.8097 -11.6667 -11.5494 -11.5461 -11.4876 -11.4685
   -11.4334 -11.3873 -11.3380 -11.2704 -11.1655  -3.6182  -3.5584  -3.5033
    -3.4084  -3.1998  -3.0890  -3.0793  -3.0334  -2.9744  -2.9160  -2.7598
    -2.7287  -2.6653  -2.6112  -2.5649  -2.5261  -2.4951  -2.4565  -2.4293
    -2.3787  -2.3588  -2.2925  -2.2120  -2.1622  -2.1377  -2.1301  -2.0808
    -2.0428  -1.9864  -1.9534  -1.9247  -1.9038  -1.8740  -1.8468  -1.8234
    -1.7894  -1.7593  -1.7245  -1.6990  -1.6848  -1.6360  -1.5924  -1.5617
    -1.5147  -1.4774  -1.4549  -1.4175  -1.3826  -1.3633  -1.3220  -1.2884
    -1.2382  -1.2053  -1.1887  -1.1415  -1.1235  -1.0940  -1.0424  -1.0158
    -0.9898  -0.9406  -0.9248  -0.9114  -0.8368  -0.8039  -0.7440  -0.7114
    -0.6772  -0.6334  -0.5950  -0.5465  -0.5160  -0.4918  -0.4619  -0.3463
    -0.3138  -0.2939  -0.2470  -0.1684  -0.0995  -0.0875   0.0534   0.1495
     0.2467   0.3289   0.3655   0.4685   0.5866   0.6253   0.6403   4.1621
     4.5519   4.9615   5.1908   5.2505   5.2871   5.5586   5.6731   5.7268
     5.8475   5.9535   6.0348   6.1433   6.2586   6.2722   6.3098   6.3795
     6.4250   6.4774   6.5707   6.6960   6.7268   6.8233   6.8824   6.9412
     7.0129   7.1352   7.1991   7.2248   7.2644   7.3636   7.4085

     occupation numbers 
     1.0000   1.0000   1.0000   1.0000   1.0000   1.0000   1.0000   1.0000
     1.0000   1.0000   1.0000   1.0000   1.0000   1.0000   1.0000   1.0000
     1.0000   1.0000   1.0000   1.0000   1.0000   1.0000   1.0000   1.0000
     1.0000   1.0000   1.0000   1.0000   1.0000   1.0000   1.0000   1.0000
     1.0000   1.0000   1.0000   1.0000   1.0000   1.0000   1.0000   1.0000
     1.0000   1.0000   1.0000   1.0000   1.0000   1.0000   1.0000   1.0000
     1.0000   1.0000   1.0000   1.0000   1.0000   1.0000   1.0000   1.0000
     1.0000   1.0000   1.0000   1.0000   1.0000   1.0000   1.0000   1.0000
     1.0000   1.0000   1.0000   1.0000   1.0000   1.0000   1.0000   1.0000
     1.0000   1.0000   1.0000   1.0000   1.0000   1.0000   1.0000   1.0000
     1.0000   1.0000   1.0000   1.0000   1.0000   1.0000   1.0000   1.0000
     1.0000   1.0000   1.0000   1.0000   1.0000   1.0000   1.0000   1.0000
     1.0000   1.0000   1.0000   1.0000   1.0000   1.0000   1.0000   1.0000
     1.0000   1.0000   1.0000   1.0000   1.0000   1.0000   1.0000   1.0000
     1.0000   1.0000   1.0000   1.0000   1.0000   1.0000   1.0000   1.0000
     1.0000   1.0000   1.0000   1.0000   1.0000   1.0000   1.0000   1.0000
     1.0000   1.0000   1.0000   1.0000   1.0000   1.0000   1.0000   1.0000
     1.0000   1.0000   1.0000   1.0000   1.0000   1.0000   1.0000   1.0000
     1.0000   1.0000   1.0000   1.0000   1.0000   1.0000   1.0000   1.0000
     1.0000   1.0000   1.0000   1.0000   1.0000   1.0000   1.0000   0.0000
     0.0000   0.0000   0.0000   0.0000   0.0000   0.0000   0.0000   0.0000
     0.0000   0.0000   0.0000   0.0000   0.0000   0.0000   0.0000   0.0000
     0.0000   0.0000   0.0000   0.0000   0.0000   0.0000   0.0000   0.0000
     0.0000   0.0000   0.0000   0.0000   0.0000   0.0000   0.0000

          k = 0.0000-0.5000-0.5000 (119304 PWs)   bands (ev):

   -45.2605 -45.1538 -44.9052 -44.7229 -44.6296 -44.5142 -44.5062 -44.3831
   -44.2404 -44.2045 -44.1899 -44.1831 -44.1629 -44.1506 -44.0475 -43.9661
   -43.8579 -43.8313 -43.8313 -43.8274 -43.8036 -43.7738 -43.5691 -43.5158
   -43.5010 -43.3657 -43.2608 -28.2299 -27.9799 -27.9386 -14.5525 -14.3963
   -14.3484 -13.9915 -13.8271 -13.6711 -13.5831 -13.5510 -13.5413 -13.4778
   -13.4647 -13.4213 -13.4030 -13.2580 -13.2565 -13.1991 -13.0142 -12.9298
   -12.8477 -12.8216 -12.8086 -12.6448 -12.5749 -12.4907 -12.4338 -12.3224
   -12.1754 -11.8248 -11.8098 -11.6683 -11.5493 -11.5466 -11.4840 -11.4711
   -11.4313 -11.3872 -11.3376 -11.2732 -11.1643  -3.6282  -3.5645  -3.5052
    -3.3858  -3.2039  -3.0920  -3.0611  -3.0250  -2.9916  -2.9072  -2.7621
    -2.7113  -2.6711  -2.6173  -2.5655  -2.5324  -2.4983  -2.4804  -2.4339
    -2.3747  -2.3569  -2.3060  -2.2290  -2.1647  -2.1297  -2.0990  -2.0518
    -2.0365  -2.0087  -1.9772  -1.9297  -1.9014  -1.8657  -1.8527  -1.8325
    -1.7682  -1.7626  -1.7108  -1.6930  -1.6499  -1.6357  -1.5841  -1.5757
    -1.5284  -1.5022  -1.4726  -1.4084  -1.3819  -1.3613  -1.3150  -1.2819
    -1.2321  -1.2263  -1.1765  -1.1664  -1.1400  -1.0776  -1.0386  -1.0239
    -0.9963  -0.9630  -0.9075  -0.8853  -0.8365  -0.8122  -0.7295  -0.7029
    -0.6721  -0.6450  -0.5834  -0.5587  -0.5200  -0.4743  -0.4527  -0.3739
    -0.3156  -0.2809  -0.2380  -0.1631  -0.0951  -0.0813   0.0406   0.1433
     0.2455   0.3177   0.3674   0.4629   0.5873   0.6187   0.6442   4.2695
     4.7721   4.7983   4.9186   5.2387   5.3854   5.4447   5.7350   5.8150
     5.8299   5.9419   6.0491   6.0942   6.1710   6.1848   6.3436   6.4238
     6.4263   6.5465   6.6322   6.7064   6.7254   6.7659   6.8350   6.8953
     6.9447   7.0235   7.2081   7.2741   7.2981   7.3951   7.4300

     occupation numbers 
     1.0000   1.0000   1.0000   1.0000   1.0000   1.0000   1.0000   1.0000
     1.0000   1.0000   1.0000   1.0000   1.0000   1.0000   1.0000   1.0000
     1.0000   1.0000   1.0000   1.0000   1.0000   1.0000   1.0000   1.0000
     1.0000   1.0000   1.0000   1.0000   1.0000   1.0000   1.0000   1.0000
     1.0000   1.0000   1.0000   1.0000   1.0000   1.0000   1.0000   1.0000
     1.0000   1.0000   1.0000   1.0000   1.0000   1.0000   1.0000   1.0000
     1.0000   1.0000   1.0000   1.0000   1.0000   1.0000   1.0000   1.0000
     1.0000   1.0000   1.0000   1.0000   1.0000   1.0000   1.0000   1.0000
     1.0000   1.0000   1.0000   1.0000   1.0000   1.0000   1.0000   1.0000
     1.0000   1.0000   1.0000   1.0000   1.0000   1.0000   1.0000   1.0000
     1.0000   1.0000   1.0000   1.0000   1.0000   1.0000   1.0000   1.0000
     1.0000   1.0000   1.0000   1.0000   1.0000   1.0000   1.0000   1.0000
     1.0000   1.0000   1.0000   1.0000   1.0000   1.0000   1.0000   1.0000
     1.0000   1.0000   1.0000   1.0000   1.0000   1.0000   1.0000   1.0000
     1.0000   1.0000   1.0000   1.0000   1.0000   1.0000   1.0000   1.0000
     1.0000   1.0000   1.0000   1.0000   1.0000   1.0000   1.0000   1.0000
     1.0000   1.0000   1.0000   1.0000   1.0000   1.0000   1.0000   1.0000
     1.0000   1.0000   1.0000   1.0000   1.0000   1.0000   1.0000   1.0000
     1.0000   1.0000   1.0000   1.0000   1.0000   1.0000   1.0000   1.0000
     1.0000   1.0000   1.0000   1.0000   1.0000   1.0000   1.0000   0.0000
     0.0000   0.0000   0.0000   0.0000   0.0000   0.0000   0.0000   0.0000
     0.0000   0.0000   0.0000   0.0000   0.0000   0.0000   0.0000   0.0000
     0.0000   0.0000   0.0000   0.0000   0.0000   0.0000   0.0000   0.0000
     0.0000   0.0000   0.0000   0.0000   0.0000   0.0000   0.0000

          k =-0.5000-0.5000-0.5000 (119616 PWs)   bands (ev):

   -45.2605 -45.1538 -44.9052 -44.7229 -44.6296 -44.5142 -44.5062 -44.3831
   -44.2404 -44.2045 -44.1899 -44.1831 -44.1629 -44.1506 -44.0475 -43.9661
   -43.8579 -43.8313 -43.8313 -43.8274 -43.8036 -43.7738 -43.5691 -43.5158
   -43.5010 -43.3657 -43.2608 -28.2299 -27.9799 -27.9386 -14.5525 -14.3954
   -14.3485 -13.9913 -13.8426 -13.6583 -13.5560 -13.5507 -13.5432 -13.4872
   -13.4621 -13.4397 -13.4029 -13.2590 -13.2559 -13.1999 -13.0118 -12.9284
   -12.8498 -12.8202 -12.8098 -12.6437 -12.5760 -12.4907 -12.4335 -12.3229
   -12.1751 -11.8248 -11.8097 -11.6683 -11.5492 -11.5466 -11.4841 -11.4713
   -11.4311 -11.3873 -11.3372 -11.2733 -11.1643  -3.6128  -3.5545  -3.5221
    -3.4139  -3.2060  -3.0852  -3.0488  -3.0231  -2.9671  -2.9289  -2.7692
    -2.7594  -2.6531  -2.6238  -2.5569  -2.5311  -2.4637  -2.4519  -2.4301
    -2.3879  -2.3602  -2.2626  -2.2482  -2.1725  -2.1367  -2.1060  -2.0845
    -2.0548  -2.0086  -1.9545  -1.9177  -1.9025  -1.8655  -1.8451  -1.8220
    -1.8079  -1.7595  -1.7088  -1.6889  -1.6730  -1.6438  -1.5952  -1.5506
    -1.5069  -1.4946  -1.4332  -1.4238  -1.3902  -1.3612  -1.3035  -1.2470
    -1.2344  -1.2110  -1.1851  -1.1571  -1.1400  -1.1185  -1.0906  -1.0237
    -0.9845  -0.9515  -0.9142  -0.8924  -0.8279  -0.8248  -0.7496  -0.6996
    -0.6683  -0.6475  -0.5945  -0.5540  -0.5282  -0.4587  -0.4238  -0.3758
    -0.3156  -0.2637  -0.2262  -0.1618  -0.1032  -0.0931   0.0059   0.1605
     0.2505   0.3228   0.3689   0.4570   0.5825   0.6090   0.6497   4.2930
     4.8250   4.9479   4.9970   5.0949   5.3025   5.3302   5.6608   5.7849
     5.8348   5.8820   5.9547   6.1239   6.2121   6.2702   6.3667   6.3677
     6.4514   6.6031   6.6676   6.7036   6.7484   6.7928   6.9040   6.9208
     6.9573   7.0325   7.1580   7.1917   7.2903   7.3876   7.4148

     occupation numbers 
     1.0000   1.0000   1.0000   1.0000   1.0000   1.0000   1.0000   1.0000
     1.0000   1.0000   1.0000   1.0000   1.0000   1.0000   1.0000   1.0000
     1.0000   1.0000   1.0000   1.0000   1.0000   1.0000   1.0000   1.0000
     1.0000   1.0000   1.0000   1.0000   1.0000   1.0000   1.0000   1.0000
     1.0000   1.0000   1.0000   1.0000   1.0000   1.0000   1.0000   1.0000
     1.0000   1.0000   1.0000   1.0000   1.0000   1.0000   1.0000   1.0000
     1.0000   1.0000   1.0000   1.0000   1.0000   1.0000   1.0000   1.0000
     1.0000   1.0000   1.0000   1.0000   1.0000   1.0000   1.0000   1.0000
     1.0000   1.0000   1.0000   1.0000   1.0000   1.0000   1.0000   1.0000
     1.0000   1.0000   1.0000   1.0000   1.0000   1.0000   1.0000   1.0000
     1.0000   1.0000   1.0000   1.0000   1.0000   1.0000   1.0000   1.0000
     1.0000   1.0000   1.0000   1.0000   1.0000   1.0000   1.0000   1.0000
     1.0000   1.0000   1.0000   1.0000   1.0000   1.0000   1.0000   1.0000
     1.0000   1.0000   1.0000   1.0000   1.0000   1.0000   1.0000   1.0000
     1.0000   1.0000   1.0000   1.0000   1.0000   1.0000   1.0000   1.0000
     1.0000   1.0000   1.0000   1.0000   1.0000   1.0000   1.0000   1.0000
     1.0000   1.0000   1.0000   1.0000   1.0000   1.0000   1.0000   1.0000
     1.0000   1.0000   1.0000   1.0000   1.0000   1.0000   1.0000   1.0000
     1.0000   1.0000   1.0000   1.0000   1.0000   1.0000   1.0000   1.0000
     1.0000   1.0000   1.0000   1.0000   1.0000   1.0000   1.0000   0.0000
     0.0000   0.0000   0.0000   0.0000   0.0000   0.0000   0.0000   0.0000
     0.0000   0.0000   0.0000   0.0000   0.0000   0.0000   0.0000   0.0000
     0.0000   0.0000   0.0000   0.0000   0.0000   0.0000   0.0000   0.0000
     0.0000   0.0000   0.0000   0.0000   0.0000   0.0000   0.0000

          k =-0.5000 0.0000 0.0000 (119478 PWs)   bands (ev):

   -45.2605 -45.1538 -44.9052 -44.7229 -44.6296 -44.5142 -44.5062 -44.3831
   -44.2404 -44.2045 -44.1899 -44.1831 -44.1629 -44.1506 -44.0475 -43.9661
   -43.8579 -43.8313 -43.8313 -43.8274 -43.8036 -43.7738 -43.5691 -43.5158
   -43.5010 -43.3657 -43.2608 -28.2299 -27.9799 -27.9386 -14.5527 -14.3952
   -14.3485 -13.9899 -13.8427 -13.6589 -13.5595 -13.5544 -13.5394 -13.4857
   -13.4642 -13.4398 -13.3994 -13.2589 -13.2562 -13.1995 -13.0124 -12.9278
   -12.8503 -12.8203 -12.8093 -12.6429 -12.5770 -12.4886 -12.4350 -12.3227
   -12.1752 -11.8250 -11.8096 -11.6680 -11.5494 -11.5461 -11.4878 -11.4681
   -11.4310 -11.3872 -11.3371 -11.2739 -11.1644  -3.6261  -3.5700  -3.5217
    -3.3752  -3.2052  -3.0856  -3.0461  -3.0206  -2.9668  -2.9235  -2.7735
    -2.7480  -2.6652  -2.6198  -2.5725  -2.5318  -2.4893  -2.4627  -2.4379
    -2.3933  -2.3480  -2.2673  -2.2177  -2.1866  -2.1511  -2.1043  -2.0756
    -2.0424  -1.9684  -1.9404  -1.9228  -1.9045  -1.8761  -1.8555  -1.8437
    -1.7882  -1.7615  -1.7262  -1.6938  -1.6658  -1.6133  -1.5902  -1.5517
    -1.5251  -1.4740  -1.4427  -1.4314  -1.4077  -1.3831  -1.3221  -1.3111
    -1.2277  -1.1802  -1.1733  -1.1406  -1.1209  -1.1016  -1.0488  -1.0399
    -1.0149  -0.9442  -0.9225  -0.8479  -0.8292  -0.8244  -0.7653  -0.6833
    -0.6688  -0.6196  -0.5978  -0.5845  -0.5230  -0.4835  -0.4599  -0.3710
    -0.3036  -0.2690  -0.2390  -0.1580  -0.1174  -0.0801   0.0619   0.1434
     0.2557   0.3244   0.3839   0.4299   0.5845   0.6157   0.6446   4.1226
     4.5555   4.9711   5.1713   5.2262   5.4152   5.5507   5.6405   5.7530
     5.7973   5.9564   6.0712   6.1389   6.2042   6.3454   6.3585   6.3978
     6.4096   6.4991   6.5414   6.6489   6.7845   6.8059   6.8795   6.9641
     7.0464   7.0876   7.1208   7.1692   7.2628   7.3746   7.4442

     occupation numbers 
     1.0000   1.0000   1.0000   1.0000   1.0000   1.0000   1.0000   1.0000
     1.0000   1.0000   1.0000   1.0000   1.0000   1.0000   1.0000   1.0000
     1.0000   1.0000   1.0000   1.0000   1.0000   1.0000   1.0000   1.0000
     1.0000   1.0000   1.0000   1.0000   1.0000   1.0000   1.0000   1.0000
     1.0000   1.0000   1.0000   1.0000   1.0000   1.0000   1.0000   1.0000
     1.0000   1.0000   1.0000   1.0000   1.0000   1.0000   1.0000   1.0000
     1.0000   1.0000   1.0000   1.0000   1.0000   1.0000   1.0000   1.0000
     1.0000   1.0000   1.0000   1.0000   1.0000   1.0000   1.0000   1.0000
     1.0000   1.0000   1.0000   1.0000   1.0000   1.0000   1.0000   1.0000
     1.0000   1.0000   1.0000   1.0000   1.0000   1.0000   1.0000   1.0000
     1.0000   1.0000   1.0000   1.0000   1.0000   1.0000   1.0000   1.0000
     1.0000   1.0000   1.0000   1.0000   1.0000   1.0000   1.0000   1.0000
     1.0000   1.0000   1.0000   1.0000   1.0000   1.0000   1.0000   1.0000
     1.0000   1.0000   1.0000   1.0000   1.0000   1.0000   1.0000   1.0000
     1.0000   1.0000   1.0000   1.0000   1.0000   1.0000   1.0000   1.0000
     1.0000   1.0000   1.0000   1.0000   1.0000   1.0000   1.0000   1.0000
     1.0000   1.0000   1.0000   1.0000   1.0000   1.0000   1.0000   1.0000
     1.0000   1.0000   1.0000   1.0000   1.0000   1.0000   1.0000   1.0000
     1.0000   1.0000   1.0000   1.0000   1.0000   1.0000   1.0000   1.0000
     1.0000   1.0000   1.0000   1.0000   1.0000   1.0000   1.0000   0.0000
     0.0000   0.0000   0.0000   0.0000   0.0000   0.0000   0.0000   0.0000
     0.0000   0.0000   0.0000   0.0000   0.0000   0.0000   0.0000   0.0000
     0.0000   0.0000   0.0000   0.0000   0.0000   0.0000   0.0000   0.0000
     0.0000   0.0000   0.0000   0.0000   0.0000   0.0000   0.0000

          k = 0.0000-0.5000 0.0000 (119478 PWs)   bands (ev):

   -45.2605 -45.1538 -44.9052 -44.7229 -44.6296 -44.5142 -44.5062 -44.3831
   -44.2404 -44.2045 -44.1899 -44.1831 -44.1629 -44.1506 -44.0475 -43.9661
   -43.8579 -43.8313 -43.8313 -43.8274 -43.8036 -43.7738 -43.5691 -43.5158
   -43.5010 -43.3657 -43.2608 -28.2299 -27.9799 -27.9386 -14.5527 -14.3963
   -14.3484 -13.9900 -13.8272 -13.6713 -13.5814 -13.5541 -13.5445 -13.4802
   -13.4619 -13.4220 -13.3988 -13.2595 -13.2556 -13.1987 -13.0147 -12.9291
   -12.8479 -12.8228 -12.8077 -12.6445 -12.5756 -12.4885 -12.4351 -12.3223
   -12.1754 -11.8249 -11.8098 -11.6675 -11.5494 -11.5466 -11.4842 -11.4715
   -11.4333 -11.3873 -11.3382 -11.2698 -11.1654  -3.6286  -3.5716  -3.5053
    -3.3776  -3.2004  -3.0957  -3.0614  -3.0389  -2.9776  -2.9154  -2.7518
    -2.7176  -2.6563  -2.6121  -2.5577  -2.5339  -2.5142  -2.4841  -2.4386
    -2.3956  -2.3627  -2.2645  -2.2189  -2.1880  -2.1548  -2.0729  -2.0381
    -2.0263  -2.0171  -1.9684  -1.9233  -1.8963  -1.8635  -1.8484  -1.8079
    -1.7981  -1.7639  -1.7286  -1.7204  -1.6631  -1.6241  -1.6072  -1.5399
    -1.5295  -1.4863  -1.4443  -1.4307  -1.4100  -1.3719  -1.2998  -1.2730
    -1.2599  -1.2378  -1.1612  -1.1438  -1.1292  -1.0873  -1.0683  -1.0556
    -0.9838  -0.9667  -0.9207  -0.8611  -0.8364  -0.8018  -0.7155  -0.6981
    -0.6686  -0.6312  -0.6185  -0.5580  -0.5239  -0.4851  -0.4238  -0.3779
    -0.3063  -0.2791  -0.2434  -0.1602  -0.0957  -0.0729   0.0141   0.2030
     0.2563   0.3150   0.3839   0.4179   0.5796   0.6079   0.6522   4.1592
     4.5212   4.9872   5.1517   5.2035   5.4030   5.4344   5.7337   5.8249
     5.8447   5.9314   6.0487   6.1201   6.2181   6.2728   6.3469   6.3788
     6.4451   6.5254   6.5805   6.6981   6.7182   6.7606   6.8729   6.9337
     7.0117   7.0429   7.1168   7.1846   7.2344   7.3852   7.4597

     occupation numbers 
     1.0000   1.0000   1.0000   1.0000   1.0000   1.0000   1.0000   1.0000
     1.0000   1.0000   1.0000   1.0000   1.0000   1.0000   1.0000   1.0000
     1.0000   1.0000   1.0000   1.0000   1.0000   1.0000   1.0000   1.0000
     1.0000   1.0000   1.0000   1.0000   1.0000   1.0000   1.0000   1.0000
     1.0000   1.0000   1.0000   1.0000   1.0000   1.0000   1.0000   1.0000
     1.0000   1.0000   1.0000   1.0000   1.0000   1.0000   1.0000   1.0000
     1.0000   1.0000   1.0000   1.0000   1.0000   1.0000   1.0000   1.0000
     1.0000   1.0000   1.0000   1.0000   1.0000   1.0000   1.0000   1.0000
     1.0000   1.0000   1.0000   1.0000   1.0000   1.0000   1.0000   1.0000
     1.0000   1.0000   1.0000   1.0000   1.0000   1.0000   1.0000   1.0000
     1.0000   1.0000   1.0000   1.0000   1.0000   1.0000   1.0000   1.0000
     1.0000   1.0000   1.0000   1.0000   1.0000   1.0000   1.0000   1.0000
     1.0000   1.0000   1.0000   1.0000   1.0000   1.0000   1.0000   1.0000
     1.0000   1.0000   1.0000   1.0000   1.0000   1.0000   1.0000   1.0000
     1.0000   1.0000   1.0000   1.0000   1.0000   1.0000   1.0000   1.0000
     1.0000   1.0000   1.0000   1.0000   1.0000   1.0000   1.0000   1.0000
     1.0000   1.0000   1.0000   1.0000   1.0000   1.0000   1.0000   1.0000
     1.0000   1.0000   1.0000   1.0000   1.0000   1.0000   1.0000   1.0000
     1.0000   1.0000   1.0000   1.0000   1.0000   1.0000   1.0000   1.0000
     1.0000   1.0000   1.0000   1.0000   1.0000   1.0000   1.0000   0.0000
     0.0000   0.0000   0.0000   0.0000   0.0000   0.0000   0.0000   0.0000
     0.0000   0.0000   0.0000   0.0000   0.0000   0.0000   0.0000   0.0000
     0.0000   0.0000   0.0000   0.0000   0.0000   0.0000   0.0000   0.0000
     0.0000   0.0000   0.0000   0.0000   0.0000   0.0000   0.0000

          k =-0.5000 0.0000 0.5000 (119304 PWs)   bands (ev):

   -45.2605 -45.1538 -44.9052 -44.7229 -44.6296 -44.5142 -44.5062 -44.3831
   -44.2404 -44.2045 -44.1899 -44.1831 -44.1629 -44.1506 -44.0475 -43.9661
   -43.8579 -43.8313 -43.8313 -43.8274 -43.8036 -43.7738 -43.5691 -43.5158
   -43.5010 -43.3657 -43.2608 -28.2299 -27.9799 -27.9386 -14.5526 -14.3953
   -14.3485 -13.9913 -13.8425 -13.6586 -13.5617 -13.5480 -13.5400 -13.4868
   -13.4626 -13.4402 -13.4012 -13.2589 -13.2568 -13.2001 -13.0119 -12.9283
   -12.8507 -12.8195 -12.8095 -12.6432 -12.5763 -12.4907 -12.4337 -12.3228
   -12.1752 -11.8248 -11.8096 -11.6666 -11.5493 -11.5461 -11.4878 -11.4687
   -11.4332 -11.3873 -11.3374 -11.2707 -11.1655  -3.6252  -3.5639  -3.5209
    -3.3841  -3.2044  -3.0851  -3.0623  -3.0052  -2.9520  -2.9327  -2.7757
    -2.7434  -2.6743  -2.6278  -2.5658  -2.5387  -2.4750  -2.4495  -2.4424
    -2.3891  -2.3410  -2.2834  -2.2363  -2.1890  -2.1499  -2.1186  -2.1160
    -2.0138  -1.9739  -1.9580  -1.8990  -1.8914  -1.8652  -1.8599  -1.8256
    -1.8018  -1.7521  -1.7153  -1.6817  -1.6635  -1.6374  -1.5976  -1.5565
    -1.5095  -1.4663  -1.4468  -1.4318  -1.3815  -1.3763  -1.3543  -1.2764
    -1.2328  -1.2079  -1.1829  -1.1447  -1.1156  -1.0973  -1.0347  -1.0264
    -0.9826  -0.9411  -0.9279  -0.9060  -0.8272  -0.8034  -0.7572  -0.7164
    -0.6600  -0.6485  -0.6085  -0.5828  -0.5178  -0.4669  -0.4026  -0.3810
    -0.3241  -0.2885  -0.2377  -0.1462  -0.1061  -0.0921   0.0015   0.1643
     0.2472   0.3337   0.3708   0.4607   0.5864   0.6157   0.6460   4.2464
     4.7117   4.8540   5.0114   5.2389   5.3486   5.5354   5.6332   5.6403
     5.8445   5.9381   6.1071   6.1271   6.2028   6.2426   6.3585   6.4046
     6.4182   6.4500   6.5758   6.7459   6.7692   6.8188   6.8404   7.0088
     7.1004   7.1202   7.1342   7.2351   7.3147   7.3760   7.4086

     occupation numbers 
     1.0000   1.0000   1.0000   1.0000   1.0000   1.0000   1.0000   1.0000
     1.0000   1.0000   1.0000   1.0000   1.0000   1.0000   1.0000   1.0000
     1.0000   1.0000   1.0000   1.0000   1.0000   1.0000   1.0000   1.0000
     1.0000   1.0000   1.0000   1.0000   1.0000   1.0000   1.0000   1.0000
     1.0000   1.0000   1.0000   1.0000   1.0000   1.0000   1.0000   1.0000
     1.0000   1.0000   1.0000   1.0000   1.0000   1.0000   1.0000   1.0000
     1.0000   1.0000   1.0000   1.0000   1.0000   1.0000   1.0000   1.0000
     1.0000   1.0000   1.0000   1.0000   1.0000   1.0000   1.0000   1.0000
     1.0000   1.0000   1.0000   1.0000   1.0000   1.0000   1.0000   1.0000
     1.0000   1.0000   1.0000   1.0000   1.0000   1.0000   1.0000   1.0000
     1.0000   1.0000   1.0000   1.0000   1.0000   1.0000   1.0000   1.0000
     1.0000   1.0000   1.0000   1.0000   1.0000   1.0000   1.0000   1.0000
     1.0000   1.0000   1.0000   1.0000   1.0000   1.0000   1.0000   1.0000
     1.0000   1.0000   1.0000   1.0000   1.0000   1.0000   1.0000   1.0000
     1.0000   1.0000   1.0000   1.0000   1.0000   1.0000   1.0000   1.0000
     1.0000   1.0000   1.0000   1.0000   1.0000   1.0000   1.0000   1.0000
     1.0000   1.0000   1.0000   1.0000   1.0000   1.0000   1.0000   1.0000
     1.0000   1.0000   1.0000   1.0000   1.0000   1.0000   1.0000   1.0000
     1.0000   1.0000   1.0000   1.0000   1.0000   1.0000   1.0000   1.0000
     1.0000   1.0000   1.0000   1.0000   1.0000   1.0000   1.0000   0.0000
     0.0000   0.0000   0.0000   0.0000   0.0000   0.0000   0.0000   0.0000
     0.0000   0.0000   0.0000   0.0000   0.0000   0.0000   0.0000   0.0000
     0.0000   0.0000   0.0000   0.0000   0.0000   0.0000   0.0000   0.0000
     0.0000   0.0000   0.0000   0.0000   0.0000   0.0000   0.0000

          k =-0.5000 0.5000 0.0000 (119304 PWs)   bands (ev):

   -45.2605 -45.1538 -44.9052 -44.7229 -44.6296 -44.5142 -44.5062 -44.3831
   -44.2404 -44.2045 -44.1899 -44.1831 -44.1629 -44.1506 -44.0475 -43.9661
   -43.8579 -43.8313 -43.8313 -43.8274 -43.8036 -43.7738 -43.5691 -43.5158
   -43.5010 -43.3657 -43.2608 -28.2299 -27.9799 -27.9386 -14.5527 -14.3953
   -14.3485 -13.9899 -13.8427 -13.6582 -13.5606 -13.5524 -13.5412 -13.4845
   -13.4662 -13.4402 -13.3980 -13.2592 -13.2562 -13.1994 -13.0123 -12.9278
   -12.8498 -12.8206 -12.8096 -12.6434 -12.5767 -12.4885 -12.4348 -12.3228
   -12.1751 -11.8250 -11.8097 -11.6674 -11.5493 -11.5466 -11.4843 -11.4718
   -11.4331 -11.3874 -11.3375 -11.2701 -11.1654  -3.6113  -3.5624  -3.5228
    -3.4082  -3.2063  -3.0910  -3.0482  -3.0244  -2.9560  -2.9281  -2.7825
    -2.7387  -2.6519  -2.5901  -2.5792  -2.5538  -2.4800  -2.4424  -2.4240
    -2.4121  -2.3723  -2.2409  -2.2121  -2.1762  -2.1491  -2.1189  -2.0849
    -2.0403  -1.9960  -1.9556  -1.9204  -1.9039  -1.8708  -1.8637  -1.8328
    -1.7787  -1.7767  -1.7093  -1.6938  -1.6487  -1.6217  -1.5872  -1.5411
    -1.5131  -1.4787  -1.4504  -1.4419  -1.4168  -1.3631  -1.3018  -1.2811
    -1.2357  -1.2080  -1.1685  -1.1587  -1.1302  -1.1144  -1.0741  -1.0556
    -1.0153  -0.9526  -0.9366  -0.8594  -0.8322  -0.7959  -0.7449  -0.6898
    -0.6663  -0.6274  -0.5897  -0.5579  -0.5224  -0.4648  -0.4604  -0.3790
    -0.3168  -0.2579  -0.2325  -0.1614  -0.1086  -0.0813   0.0669   0.1439
     0.2527   0.3207   0.3800   0.4263   0.5829   0.6070   0.6442   4.2199
     4.6865   4.9001   5.0108   5.1773   5.3602   5.5144   5.6922   5.8036
     5.8511   5.9253   5.9810   6.1161   6.2325   6.2777   6.3383   6.4050
     6.5026   6.5310   6.5727   6.6612   6.7407   6.7464   6.8886   6.9016
     6.9753   7.0433   7.1825   7.2058   7.2613   7.3817   7.4407

     occupation numbers 
     1.0000   1.0000   1.0000   1.0000   1.0000   1.0000   1.0000   1.0000
     1.0000   1.0000   1.0000   1.0000   1.0000   1.0000   1.0000   1.0000
     1.0000   1.0000   1.0000   1.0000   1.0000   1.0000   1.0000   1.0000
     1.0000   1.0000   1.0000   1.0000   1.0000   1.0000   1.0000   1.0000
     1.0000   1.0000   1.0000   1.0000   1.0000   1.0000   1.0000   1.0000
     1.0000   1.0000   1.0000   1.0000   1.0000   1.0000   1.0000   1.0000
     1.0000   1.0000   1.0000   1.0000   1.0000   1.0000   1.0000   1.0000
     1.0000   1.0000   1.0000   1.0000   1.0000   1.0000   1.0000   1.0000
     1.0000   1.0000   1.0000   1.0000   1.0000   1.0000   1.0000   1.0000
     1.0000   1.0000   1.0000   1.0000   1.0000   1.0000   1.0000   1.0000
     1.0000   1.0000   1.0000   1.0000   1.0000   1.0000   1.0000   1.0000
     1.0000   1.0000   1.0000   1.0000   1.0000   1.0000   1.0000   1.0000
     1.0000   1.0000   1.0000   1.0000   1.0000   1.0000   1.0000   1.0000
     1.0000   1.0000   1.0000   1.0000   1.0000   1.0000   1.0000   1.0000
     1.0000   1.0000   1.0000   1.0000   1.0000   1.0000   1.0000   1.0000
     1.0000   1.0000   1.0000   1.0000   1.0000   1.0000   1.0000   1.0000
     1.0000   1.0000   1.0000   1.0000   1.0000   1.0000   1.0000   1.0000
     1.0000   1.0000   1.0000   1.0000   1.0000   1.0000   1.0000   1.0000
     1.0000   1.0000   1.0000   1.0000   1.0000   1.0000   1.0000   1.0000
     1.0000   1.0000   1.0000   1.0000   1.0000   1.0000   1.0000   0.0000
     0.0000   0.0000   0.0000   0.0000   0.0000   0.0000   0.0000   0.0000
     0.0000   0.0000   0.0000   0.0000   0.0000   0.0000   0.0000   0.0000
     0.0000   0.0000   0.0000   0.0000   0.0000   0.0000   0.0000   0.0000
     0.0000   0.0000   0.0000   0.0000   0.0000   0.0000   0.0000

     the Fermi energy is     1.8901 ev

!    total energy              =   -1774.34375171 Ry
     estimated scf accuracy    <       0.00000030 Ry
     smearing contrib. (-TS)   =      -0.00000000 Ry
     internal energy E=F+TS    =   -1774.34375171 Ry

     The total energy is F=E-TS. E is the sum of the following terms:
     one-electron contribution =    -737.63999409 Ry
     hartree contribution      =     428.89567124 Ry
     xc contribution           =    -454.33542638 Ry
     ewald contribution        =    -845.00756321 Ry
     one-center paw contrib.   =    -166.25643928 Ry
      -> PAW hartree energy AE =       0.00000000 Ry
      -> PAW hartree energy PS =       0.00000000 Ry
      -> PAW xc energy AE      =       0.00000000 Ry
      -> PAW xc energy PS      =       0.00000000 Ry
      -> total E_H with PAW    =     428.89567124 Ry
      -> total E_XC with PAW   =    -454.33542638 Ry

     convergence has been achieved in  17 iterations

     Forces acting on atoms (cartesian axes, Ry/au):

     atom    1 type  1   force =     0.00049961   -0.03451020    0.05292291
     atom    2 type  1   force =    -0.05364197   -0.00251558    0.01668410
     atom    3 type  1   force =     0.01581001   -0.00186974   -0.00364911
     atom    4 type  1   force =     0.04265936   -0.01451785    0.01927218
     atom    5 type  1   force =    -0.00899151   -0.00629846   -0.00175298
     atom    6 type  1   force =    -0.12386650   -0.13615742    0.02350010
     atom    7 type  1   force =     0.14710995   -0.04322690    0.15858284
     atom    8 type  1   force =     0.00505023   -0.00851304    0.01623229
     atom    9 type  1   force =     0.03087751   -0.00756117    0.04101710
     atom   10 type  1   force =    -0.02573990    0.03731578    0.00775471
     atom   11 type  1   force =    -0.01601939    0.00342865    0.03505611
     atom   12 type  1   force =    -0.04623299   -0.05524143    0.00267399
     atom   13 type  1   force =     0.08699713   -0.09716074   -0.02594320
     atom   14 type  1   force =     0.02401326    0.01644155   -0.00132169
     atom   15 type  1   force =    -0.01886649    0.04549506    0.00394460
     atom   16 type  1   force =    -0.02514953    0.00509164   -0.01846307
     atom   17 type  1   force =     0.00451114    0.00335190   -0.01014647
     atom   18 type  1   force =     0.00410958    0.00832432    0.02748126
     atom   19 type  1   force =    -0.01633820   -0.03780222    0.03105192
     atom   20 type  1   force =     0.06640175    0.00906645   -0.11279032
     atom   21 type  1   force =     0.05980271   -0.05200059   -0.00437658
     atom   22 type  1   force =     0.00234941   -0.01249226    0.00072625
     atom   23 type  1   force =     0.03541287   -0.06601268    0.04624262
     atom   24 type  1   force =     0.00890281   -0.01949950    0.01971863
     atom   25 type  1   force =    -0.14387856    0.00304103    0.03418126
     atom   26 type  1   force =    -0.05946836   -0.01056259    0.01171013
     atom   27 type  1   force =     0.02204575    0.01069591    0.01892056
     atom   28 type  1   force =    -0.03411833    0.03798100   -0.03837946
     atom   29 type  1   force =    -0.05179976   -0.12572252   -0.00340775
     atom   30 type  1   force =    -0.01066196   -0.02623770    0.03709706
     atom   31 type  2   force =    -0.05258232    0.00363345    0.00416491
     atom   32 type  2   force =     0.02729647   -0.01284050   -0.00911789
     atom   33 type  2   force =     0.00867817   -0.02266924   -0.03094531
     atom   34 type  3   force =    -0.00906070    0.00501143    0.01729874
     atom   35 type  3   force =    -0.02756745    0.02037880   -0.04453859
     atom   36 type  3   force =     0.07039126    0.06399028   -0.00108498
     atom   37 type  3   force =    -0.00296479   -0.02079841    0.00519743
     atom   38 type  3   force =     0.16684555    0.16396674   -0.04501993
     atom   39 type  3   force =     0.00775140   -0.04636156   -0.02291747
     atom   40 type  3   force =    -0.05603071    0.01111620    0.08755699
     atom   41 type  3   force =     0.14756418    0.08209649   -0.02738363
     atom   42 type  3   force =    -0.02194163    0.00816438    0.00157885
     atom   43 type  3   force =    -0.04970376    0.08562647    0.05176782
     atom   44 type  3   force =    -0.00081781   -0.00429925   -0.00543650
     atom   45 type  3   force =     0.02807767    0.11631973   -0.01441565
     atom   46 type  3   force =     0.05104601    0.02562055   -0.02935435
     atom   47 type  3   force =    -0.01445321   -0.00444682    0.00850750
     atom   48 type  3   force =    -0.04485896    0.00258806    0.02345521
     atom   49 type  3   force =    -0.00652390   -0.01422391   -0.00443232
     atom   50 type  3   force =    -0.18096611    0.07235329   -0.18086685
     atom   51 type  3   force =     0.00234686   -0.00757193    0.00123384
     atom   52 type  3   force =    -0.01075599    0.00793704   -0.00926563
     atom   53 type  3   force =    -0.00244791    0.06362820   -0.02515976
     atom   54 type  3   force =     0.00624512    0.00890305   -0.01379999
     atom   55 type  3   force =    -0.02918616   -0.08425761   -0.02348229
     atom   56 type  3   force =     0.04443717   -0.02861803   -0.03749633
     atom   57 type  3   force =     0.02127997    0.06055194   -0.00363008
     atom   58 type  3   force =     0.02446166    0.00976888   -0.04378765
     atom   59 type  3   force =     0.00318099    0.01099899   -0.00605000
     atom   60 type  3   force =    -0.02152067    0.00110260   -0.00711611
     The non-local contrib.  to forces
     atom    1 type  1   force =    -0.01641811    0.01072459    0.03558911
     atom    2 type  1   force =    -0.05568823    0.00623868    0.01827337
     atom    3 type  1   force =     0.10376565   -0.00484733   -0.04348015
     atom    4 type  1   force =    -0.02162090    0.01272486    0.04980090
     atom    5 type  1   force =    -0.00756492   -0.02373675   -0.00469490
     atom    6 type  1   force =    -0.10319986   -0.10005550   -0.01430688
     atom    7 type  1   force =     0.07708210   -0.03663806    0.08867194
     atom    8 type  1   force =     0.05144695    0.02731238    0.03412486
     atom    9 type  1   force =     0.00910106    0.05379816    0.10525642
     atom   10 type  1   force =     0.03103773   -0.01241378   -0.05242559
     atom   11 type  1   force =    -0.01701677   -0.02436726    0.04634311
     atom   12 type  1   force =     0.00879281   -0.03801136    0.00791897
     atom   13 type  1   force =     0.08803886   -0.04417936   -0.01438157
     atom   14 type  1   force =     0.00125730   -0.00466575   -0.07327997
     atom   15 type  1   force =    -0.03640624    0.02310703   -0.01031071
     atom   16 type  1   force =    -0.06565940   -0.01481392   -0.03595265
     atom   17 type  1   force =     0.03261720    0.05870306   -0.02208756
     atom   18 type  1   force =    -0.05263350   -0.02379564    0.06426280
     atom   19 type  1   force =     0.00038438   -0.04909718    0.04248535
     atom   20 type  1   force =     0.06947496    0.00197281   -0.08560341
     atom   21 type  1   force =    -0.03916465   -0.10523433   -0.04508249
     atom   22 type  1   force =     0.02652084    0.01346602    0.05449779
     atom   23 type  1   force =     0.05979264   -0.02382092    0.08699349
     atom   24 type  1   force =    -0.00170244   -0.04319042   -0.01918249
     atom   25 type  1   force =    -0.04537797    0.00141205   -0.01539274
     atom   26 type  1   force =    -0.10643088   -0.02015409   -0.00719772
     atom   27 type  1   force =     0.09808012   -0.03399340   -0.04576480
     atom   28 type  1   force =    -0.00243000    0.03899556   -0.05100838
     atom   29 type  1   force =     0.02265932   -0.12878003   -0.03936974
     atom   30 type  1   force =    -0.03487516    0.00406569   -0.01318933
     atom   31 type  2   force =    -0.05092258    0.02631970   -0.03433741
     atom   32 type  2   force =     0.03087510   -0.02024769   -0.00394280
     atom   33 type  2   force =     0.00231464   -0.03646289   -0.03278096
     atom   34 type  3   force =     0.04196318    0.05205059    0.00204678
     atom   35 type  3   force =    -0.05725552   -0.05288546   -0.06910247
     atom   36 type  3   force =     0.11661455   -0.00964105   -0.06110197
     atom   37 type  3   force =     0.05415635   -0.08219110   -0.00405660
     atom   38 type  3   force =     0.13810697    0.17860340   -0.04736947
     atom   39 type  3   force =     0.05984088   -0.03749502   -0.01572592
     atom   40 type  3   force =    -0.09540820   -0.00590575    0.17664762
     atom   41 type  3   force =     0.24167675    0.08958377   -0.05536870
     atom   42 type  3   force =     0.05230810   -0.00326014    0.00677095
     atom   43 type  3   force =    -0.07197637    0.10427576    0.07965582
     atom   44 type  3   force =    -0.02638002   -0.02427219   -0.00550230
     atom   45 type  3   force =     0.00850149    0.14299817   -0.00289536
     atom   46 type  3   force =     0.02217465   -0.03144814   -0.04567810
     atom   47 type  3   force =    -0.03388158    0.03468649   -0.00245020
     atom   48 type  3   force =    -0.04652243   -0.01167037    0.02339017
     atom   49 type  3   force =     0.05739864   -0.10314918   -0.01118339
     atom   50 type  3   force =    -0.18166969    0.12400461   -0.13492920
     atom   51 type  3   force =     0.04099643    0.02130869   -0.08290565
     atom   52 type  3   force =    -0.01484638    0.02797032    0.02503169
     atom   53 type  3   force =    -0.02543171    0.08963182    0.06499830
     atom   54 type  3   force =    -0.11575837    0.08494425   -0.08888204
     atom   55 type  3   force =     0.00552868   -0.11437730    0.01500108
     atom   56 type  3   force =     0.08689277   -0.13580928   -0.09074917
     atom   57 type  3   force =     0.05138048    0.04886152   -0.11670660
     atom   58 type  3   force =     0.10913806    0.00067202   -0.05705187
     atom   59 type  3   force =    -0.00612763   -0.08406571    0.00882089
     atom   60 type  3   force =    -0.10489910    0.01072209   -0.08421031
     The ionic contribution  to forces
     atom    1 type  1   force =     0.22910323   -3.82410950   -0.44295774
     atom    2 type  1   force =    -2.05570328    2.50817108   -0.05802662
     atom    3 type  1   force =     0.09310363    0.89041916    1.26538386
     atom    4 type  1   force =     1.54036494   -0.03195927   -0.07887914
     atom    5 type  1   force =    -2.29183339   -0.63097996    0.22094667
     atom    6 type  1   force =    -0.61146849    1.95106568    0.94146986
     atom    7 type  1   force =    -0.34981929    2.11295779    0.15725970
     atom    8 type  1   force =    -0.47249515    0.01255624    1.69010744
     atom    9 type  1   force =     0.47203227   -2.40378315    2.69970834
     atom   10 type  1   force =    -0.88946823    1.81867301    0.33613151
     atom   11 type  1   force =     1.05286555    2.40797815    0.17694761
     atom   12 type  1   force =     2.56576343   -1.13924528    1.45740781
     atom   13 type  1   force =     1.06140413   -0.07000929   -1.39030747
     atom   14 type  1   force =     1.50746580   -1.51122577    2.32171420
     atom   15 type  1   force =    -1.02563932    2.56330337    0.59913412
     atom   16 type  1   force =    -0.38372591    1.01725928   -2.76479538
     atom   17 type  1   force =    -1.00932530   -0.99741655   -0.55594819
     atom   18 type  1   force =     0.41068256    2.09774857   -0.63928395
     atom   19 type  1   force =    -2.82738748   -3.16188239   -0.33014744
     atom   20 type  1   force =     1.18665942   -0.52201341   -2.89835756
     atom   21 type  1   force =     3.50428648   -2.93844549    2.80829694
     atom   22 type  1   force =    -1.28810973    0.09293372   -2.45136964
     atom   23 type  1   force =     0.27037226    2.28100319    0.58058069
     atom   24 type  1   force =    -0.19577117    0.65356941    2.45064913
     atom   25 type  1   force =    -1.02733891   -0.89806578   -0.55168967
     atom   26 type  1   force =    -0.16724691   -0.40388564   -0.01852576
     atom   27 type  1   force =    -0.55167164   -0.03809837    1.48995550
     atom   28 type  1   force =    -2.56608222    3.29878654   -1.00223432
     atom   29 type  1   force =    -1.96854259   -4.06797520   -1.52983475
     atom   30 type  1   force =     1.95373861   -2.84738674    4.55196927
     atom   31 type  2   force =    -2.91236784   -1.27138160    0.98142105
     atom   32 type  2   force =     2.70588916   -0.32615101   -1.28578205
     atom   33 type  2   force =     1.71733010   -0.66903478   -1.64392836
     atom   34 type  3   force =     0.02702574    0.66122609    0.76660201
     atom   35 type  3   force =    -0.70633766   -1.31595229   -2.49646608
     atom   36 type  3   force =     2.19724282   -0.72677906    0.60775134
     atom   37 type  3   force =     0.66152571   -1.51734287    1.28567009
     atom   38 type  3   force =     1.28758776    3.08638129   -0.25010934
     atom   39 type  3   force =     0.72617398   -0.56071825   -0.44532245
     atom   40 type  3   force =    -1.03674000   -1.11697954    2.21235978
     atom   41 type  3   force =     3.38445968    0.11283711   -1.65181301
     atom   42 type  3   force =     1.26962050    0.73150075    0.62638594
     atom   43 type  3   force =    -1.04254260    1.61608577    1.16635532
     atom   44 type  3   force =    -0.00942264   -0.38520751    0.95892782
     atom   45 type  3   force =    -0.48543500    2.50648696    0.07607368
     atom   46 type  3   force =     1.10986158    0.31661591   -1.03195265
     atom   47 type  3   force =    -1.17278420    1.18498071    0.52893214
     atom   48 type  3   force =    -0.83121544    0.12699072    0.53488624
     atom   49 type  3   force =     0.65549591   -1.35298273   -0.38952438
     atom   50 type  3   force =    -3.03571228    2.63979923   -2.25810534
     atom   51 type  3   force =     0.03177877   -0.84742703   -0.32662250
     atom   52 type  3   force =    -0.66564371    0.62022476   -0.14492876
     atom   53 type  3   force =    -0.44236280    2.00890606    0.11866550
     atom   54 type  3   force =    -1.00262437    0.73716974   -0.84681173
     atom   55 type  3   force =     0.38303520   -1.37069711   -0.13628894
     atom   56 type  3   force =     0.30398724   -0.17807913   -0.83367402
     atom   57 type  3   force =     0.45351311    0.42393791   -3.00476088
     atom   58 type  3   force =     0.92790050   -0.80365398   -1.99598860
     atom   59 type  3   force =    -0.32340994   -1.54035980    0.31057416
     atom   60 type  3   force =    -0.34204260   -1.01033967   -0.46783101
     The local contribution  to forces
     atom    1 type  1   force =    -0.21290344    3.77745573    0.46460502
     atom    2 type  1   force =     2.05380329   -2.51613038    0.05750254
     atom    3 type  1   force =    -0.17729018   -0.88731203   -1.22710470
     atom    4 type  1   force =    -1.47448637    0.00353095    0.05084099
     atom    5 type  1   force =     2.28926430    0.64689325   -0.21810576
     atom    6 type  1   force =     0.58202754   -1.99601876   -0.90293898
     atom    7 type  1   force =     0.42912453   -2.12215151   -0.07763044
     atom    8 type  1   force =     0.42747278   -0.04793250   -1.70630767
     atom    9 type  1   force =    -0.44824244    2.34355377   -2.75876151
     atom   10 type  1   force =     0.83129610   -1.76633490   -0.27697470
     atom   11 type  1   force =    -1.05318282   -2.38088505   -0.18466795
     atom   12 type  1   force =    -2.62280958    1.11786785   -1.46194385
     atom   13 type  1   force =    -1.05515763    0.01091126    1.37714452
     atom   14 type  1   force =    -1.48329905    1.53323146   -2.25209509
     atom   15 type  1   force =     1.04080940   -2.53714577   -0.58494216
     atom   16 type  1   force =     0.42077763   -0.99756954    2.78010589
     atom   17 type  1   force =     0.98237779    0.94355671    0.56735429
     atom   18 type  1   force =    -0.35554489   -2.06587349    0.60616433
     atom   19 type  1   force =     2.80985565    3.16926077    0.32200557
     atom   20 type  1   force =    -1.18398258    0.52909479    2.86272010
     atom   21 type  1   force =    -3.40293641    2.98569423   -2.76893210
     atom   22 type  1   force =     1.26465729   -0.11909011    2.39905196
     atom   23 type  1   force =    -0.29140404   -2.32830494   -0.61636505
     atom   24 type  1   force =     0.20671952   -0.63236012   -2.41128027
     atom   25 type  1   force =     0.91977826    0.90054783    0.60265389
     atom   26 type  1   force =     0.20767215    0.41220297    0.03781249
     atom   27 type  1   force =     0.47929998    0.08266092   -1.42641538
     atom   28 type  1   force =     2.53233362   -3.29648562    1.01145242
     atom   29 type  1   force =     1.89287768    4.06118135    1.56441633
     atom   30 type  1   force =    -1.93091218    2.81526025   -4.49964830
     atom   31 type  2   force =     2.90901839    1.24991648   -0.94504295
     atom   32 type  2   force =    -2.70853165    0.33271472    1.28074633
     atom   33 type  2   force =    -1.71070529    0.68118821    1.64466441
     atom   34 type  3   force =    -0.07804501   -0.70827658   -0.75134937
     atom   35 type  3   force =     0.73602873    1.38923639    2.52101951
     atom   36 type  3   force =    -2.24344430    0.80040595   -0.54771380
     atom   37 type  3   force =    -0.71863025    1.57874168   -1.27644282
     atom   38 type  3   force =    -1.25884095   -3.10101166    0.25243772
     atom   39 type  3   force =    -0.77827974    0.55184111    0.43811391
     atom   40 type  3   force =     1.07609634    1.13399186   -2.30147008
     atom   41 type  3   force =    -3.47850769   -0.12029720    1.67978069
     atom   42 type  3   force =    -1.34384421   -0.72008625   -0.63160443
     atom   43 type  3   force =     1.06482049   -1.63473627   -1.19426882
     atom   44 type  3   force =     0.03500139    0.40520166   -0.95891039
     atom   45 type  3   force =     0.50501646   -2.53312420   -0.08761261
     atom   46 type  3   force =    -1.08098068   -0.25955031    1.04825774
     atom   47 type  3   force =     1.19222811   -1.22409937   -0.51800075
     atom   48 type  3   force =     0.83286057   -0.11274096   -0.53485276
     atom   49 type  3   force =    -0.71939288    1.44189600    0.39625437
     atom   50 type  3   force =     3.03646332   -2.69140915    2.21209220
     atom   51 type  3   force =    -0.07043988    0.81851678    0.41074596
     atom   52 type  3   force =     0.66968600   -0.64022230    0.11060937
     atom   53 type  3   force =     0.46527810   -2.03491822   -0.20884576
     atom   54 type  3   force =     1.12461373   -0.81317110    0.92190665
     atom   55 type  3   force =    -0.41780645    1.40082609    0.09777678
     atom   56 type  3   force =    -0.34641107    0.28526159    0.88686299
     atom   57 type  3   force =    -0.48357312   -0.41225959    3.11786463
     atom   58 type  3   force =    -1.01259370    0.81274965    2.00924848
     atom   59 type  3   force =     0.33275611    1.63545217   -0.32546729
     atom   60 type  3   force =     0.42546296    1.00068325    0.54492784
     The core correction contribution to forces
     atom    1 type  1   force =     0.00046418    0.00154882   -0.00428235
     atom    2 type  1   force =     0.00426447   -0.00068287   -0.00129402
     atom    3 type  1   force =    -0.00360076    0.00005209    0.00130771
     atom    4 type  1   force =    -0.00191013    0.00105248   -0.00245812
     atom    5 type  1   force =     0.00097969    0.00134591    0.00009559
     atom    6 type  1   force =     0.00858765    0.00883189   -0.00076476
     atom    7 type  1   force =    -0.00888603    0.00266476   -0.00969246
     atom    8 type  1   force =    -0.00150294   -0.00027986   -0.00176924
     atom    9 type  1   force =    -0.00191208   -0.00105531   -0.00544031
     atom   10 type  1   force =     0.00116796   -0.00245934    0.00094921
     atom   11 type  1   force =     0.00144866    0.00049606   -0.00329522
     atom   12 type  1   force =     0.00219371    0.00424933   -0.00051265
     atom   13 type  1   force =    -0.00744962    0.00594288    0.00159255
     atom   14 type  1   force =    -0.00163376   -0.00087486    0.00205752
     atom   15 type  1   force =     0.00216827   -0.00363688    0.00015129
     atom   16 type  1   force =     0.00373761    0.00008501    0.00227650
     atom   17 type  1   force =    -0.00140185   -0.00151682    0.00081024
     atom   18 type  1   force =     0.00121557    0.00029051   -0.00364038
     atom   19 type  1   force =     0.00086172    0.00388623   -0.00320635
     atom   20 type  1   force =    -0.00562568   -0.00007730    0.00853700
     atom   21 type  1   force =    -0.00229776    0.00590613    0.00138215
     atom   22 type  1   force =    -0.00106727    0.00024848   -0.00153668
     atom   23 type  1   force =    -0.00350966    0.00507999   -0.00496231
     atom   24 type  1   force =    -0.00040419    0.00252118   -0.00055709
     atom   25 type  1   force =     0.00877838   -0.00087872   -0.00138091
     atom   26 type  1   force =     0.00675081    0.00128734   -0.00051228
     atom   27 type  1   force =    -0.00362294    0.00015289    0.00096389
     atom   28 type  1   force =     0.00229357   -0.00337283    0.00344631
     atom   29 type  1   force =     0.00148822    0.01015147    0.00134665
     atom   30 type  1   force =     0.00168026    0.00152746   -0.00209983
     atom   31 type  2   force =     0.00151949   -0.00127671    0.00187728
     atom   32 type  2   force =    -0.00103436    0.00079257    0.00009902
     atom   33 type  2   force =     0.00000108    0.00142572    0.00111337
     atom   34 type  3   force =     0.00000000    0.00000000    0.00000000
     atom   35 type  3   force =     0.00000000    0.00000000    0.00000000
     atom   36 type  3   force =     0.00000000    0.00000000    0.00000000
     atom   37 type  3   force =     0.00000000    0.00000000    0.00000000
     atom   38 type  3   force =     0.00000000    0.00000000    0.00000000
     atom   39 type  3   force =     0.00000000    0.00000000    0.00000000
     atom   40 type  3   force =     0.00000000    0.00000000    0.00000000
     atom   41 type  3   force =     0.00000000    0.00000000    0.00000000
     atom   42 type  3   force =     0.00000000    0.00000000    0.00000000
     atom   43 type  3   force =     0.00000000    0.00000000    0.00000000
     atom   44 type  3   force =     0.00000000    0.00000000    0.00000000
     atom   45 type  3   force =     0.00000000    0.00000000    0.00000000
     atom   46 type  3   force =     0.00000000    0.00000000    0.00000000
     atom   47 type  3   force =     0.00000000    0.00000000    0.00000000
     atom   48 type  3   force =     0.00000000    0.00000000    0.00000000
     atom   49 type  3   force =     0.00000000    0.00000000    0.00000000
     atom   50 type  3   force =     0.00000000    0.00000000    0.00000000
     atom   51 type  3   force =     0.00000000    0.00000000    0.00000000
     atom   52 type  3   force =     0.00000000    0.00000000    0.00000000
     atom   53 type  3   force =     0.00000000    0.00000000    0.00000000
     atom   54 type  3   force =     0.00000000    0.00000000    0.00000000
     atom   55 type  3   force =     0.00000000    0.00000000    0.00000000
     atom   56 type  3   force =     0.00000000    0.00000000    0.00000000
     atom   57 type  3   force =     0.00000000    0.00000000    0.00000000
     atom   58 type  3   force =     0.00000000    0.00000000    0.00000000
     atom   59 type  3   force =     0.00000000    0.00000000    0.00000000
     atom   60 type  3   force =     0.00000000    0.00000000    0.00000000
     The Hubbard contrib.    to forces
     atom    1 type  1   force =     0.00000000    0.00000000    0.00000000
     atom    2 type  1   force =     0.00000000    0.00000000    0.00000000
     atom    3 type  1   force =     0.00000000    0.00000000    0.00000000
     atom    4 type  1   force =     0.00000000    0.00000000    0.00000000
     atom    5 type  1   force =     0.00000000    0.00000000    0.00000000
     atom    6 type  1   force =     0.00000000    0.00000000    0.00000000
     atom    7 type  1   force =     0.00000000    0.00000000    0.00000000
     atom    8 type  1   force =     0.00000000    0.00000000    0.00000000
     atom    9 type  1   force =     0.00000000    0.00000000    0.00000000
     atom   10 type  1   force =     0.00000000    0.00000000    0.00000000
     atom   11 type  1   force =     0.00000000    0.00000000    0.00000000
     atom   12 type  1   force =     0.00000000    0.00000000    0.00000000
     atom   13 type  1   force =     0.00000000    0.00000000    0.00000000
     atom   14 type  1   force =     0.00000000    0.00000000    0.00000000
     atom   15 type  1   force =     0.00000000    0.00000000    0.00000000
     atom   16 type  1   force =     0.00000000    0.00000000    0.00000000
     atom   17 type  1   force =     0.00000000    0.00000000    0.00000000
     atom   18 type  1   force =     0.00000000    0.00000000    0.00000000
     atom   19 type  1   force =     0.00000000    0.00000000    0.00000000
     atom   20 type  1   force =     0.00000000    0.00000000    0.00000000
     atom   21 type  1   force =     0.00000000    0.00000000    0.00000000
     atom   22 type  1   force =     0.00000000    0.00000000    0.00000000
     atom   23 type  1   force =     0.00000000    0.00000000    0.00000000
     atom   24 type  1   force =     0.00000000    0.00000000    0.00000000
     atom   25 type  1   force =     0.00000000    0.00000000    0.00000000
     atom   26 type  1   force =     0.00000000    0.00000000    0.00000000
     atom   27 type  1   force =     0.00000000    0.00000000    0.00000000
     atom   28 type  1   force =     0.00000000    0.00000000    0.00000000
     atom   29 type  1   force =     0.00000000    0.00000000    0.00000000
     atom   30 type  1   force =     0.00000000    0.00000000    0.00000000
     atom   31 type  2   force =     0.00000000    0.00000000    0.00000000
     atom   32 type  2   force =     0.00000000    0.00000000    0.00000000
     atom   33 type  2   force =     0.00000000    0.00000000    0.00000000
     atom   34 type  3   force =     0.00000000    0.00000000    0.00000000
     atom   35 type  3   force =     0.00000000    0.00000000    0.00000000
     atom   36 type  3   force =     0.00000000    0.00000000    0.00000000
     atom   37 type  3   force =     0.00000000    0.00000000    0.00000000
     atom   38 type  3   force =     0.00000000    0.00000000    0.00000000
     atom   39 type  3   force =     0.00000000    0.00000000    0.00000000
     atom   40 type  3   force =     0.00000000    0.00000000    0.00000000
     atom   41 type  3   force =     0.00000000    0.00000000    0.00000000
     atom   42 type  3   force =     0.00000000    0.00000000    0.00000000
     atom   43 type  3   force =     0.00000000    0.00000000    0.00000000
     atom   44 type  3   force =     0.00000000    0.00000000    0.00000000
     atom   45 type  3   force =     0.00000000    0.00000000    0.00000000
     atom   46 type  3   force =     0.00000000    0.00000000    0.00000000
     atom   47 type  3   force =     0.00000000    0.00000000    0.00000000
     atom   48 type  3   force =     0.00000000    0.00000000    0.00000000
     atom   49 type  3   force =     0.00000000    0.00000000    0.00000000
     atom   50 type  3   force =     0.00000000    0.00000000    0.00000000
     atom   51 type  3   force =     0.00000000    0.00000000    0.00000000
     atom   52 type  3   force =     0.00000000    0.00000000    0.00000000
     atom   53 type  3   force =     0.00000000    0.00000000    0.00000000
     atom   54 type  3   force =     0.00000000    0.00000000    0.00000000
     atom   55 type  3   force =     0.00000000    0.00000000    0.00000000
     atom   56 type  3   force =     0.00000000    0.00000000    0.00000000
     atom   57 type  3   force =     0.00000000    0.00000000    0.00000000
     atom   58 type  3   force =     0.00000000    0.00000000    0.00000000
     atom   59 type  3   force =     0.00000000    0.00000000    0.00000000
     atom   60 type  3   force =     0.00000000    0.00000000    0.00000000
     The SCF correction term to forces
     atom    1 type  1   force =     0.00025935   -0.00013146   -0.00004683
     atom    2 type  1   force =    -0.00031260   -0.00011371    0.00021312
     atom    3 type  1   force =    -0.00016271   -0.00018324    0.00022845
     atom    4 type  1   force =     0.00031745    0.00013152   -0.00004815
     atom    5 type  1   force =     0.00016842    0.00017747   -0.00001028
     atom    6 type  1   force =     0.00019227    0.00001765    0.00002516
     atom    7 type  1   force =    -0.00038575   -0.00006150   -0.00004161
     atom    8 type  1   force =     0.00013421   -0.00017092    0.00006120
     atom    9 type  1   force =    -0.00009568   -0.00007626    0.00023846
     atom   10 type  1   force =     0.00023216   -0.00015084    0.00005857
     atom   11 type  1   force =    -0.00012839    0.00020512   -0.00028715
     atom   12 type  1   force =    -0.00016774   -0.00010359   -0.00021199
     atom   13 type  1   force =     0.00016701    0.00017214   -0.00000695
     atom   14 type  1   force =     0.00022858   -0.00002514    0.00026594
     atom   15 type  1   force =     0.00020700   -0.00013431   -0.00010364
     atom   16 type  1   force =    -0.00027385    0.00012919   -0.00011314
     atom   17 type  1   force =     0.00024891    0.00002389   -0.00029096
     atom   18 type  1   force =     0.00039546   -0.00004724   -0.00003723
     atom   19 type  1   force =    -0.00004686    0.00002873   -0.00010091
     atom   20 type  1   force =    -0.00011875    0.00008793   -0.00010216
     atom   21 type  1   force =    -0.00007933    0.00007725   -0.00005679
     atom   22 type  1   force =     0.00035389   -0.00005198    0.00006712
     atom   23 type  1   force =     0.00016729    0.00002838   -0.00001990
     atom   24 type  1   force =     0.00006670   -0.00004117    0.00007365
     atom   25 type  1   force =     0.00028728    0.00002404   -0.00002501
     atom   26 type  1   force =    -0.00020791   -0.00001480    0.00011769
     atom   27 type  1   force =    -0.00003416   -0.00002774    0.00016565
     atom   28 type  1   force =    -0.00022770    0.00005573   -0.00005119
     atom   29 type  1   force =    -0.00027678   -0.00030173    0.00001806
     atom   30 type  1   force =    -0.00028787    0.00029403    0.00004956
     atom   31 type  2   force =     0.00017583    0.00005396    0.00023125
     atom   32 type  2   force =     0.00010383    0.00004929   -0.00025409
     atom   33 type  2   force =    -0.00025675    0.00021289   -0.00002948
     atom   34 type  3   force =     0.00000100    0.00000971   -0.00001639
     atom   35 type  3   force =     0.00000262   -0.00002146   -0.00000525
     atom   36 type  3   force =    -0.00001621    0.00000283   -0.00003625
     atom   37 type  3   force =    -0.00001100   -0.00000774    0.00001105
     atom   38 type  3   force =    -0.00000261   -0.00000791    0.00000546
     atom   39 type  3   force =     0.00002189    0.00000899    0.00000128
     atom   40 type  3   force =     0.00002677    0.00000800    0.00000396
     atom   41 type  3   force =    -0.00005895   -0.00002882    0.00000169
     atom   42 type  3   force =    -0.00002040    0.00000841    0.00001069
     atom   43 type  3   force =     0.00000033   -0.00000041    0.00000980
     atom   44 type  3   force =    -0.00001093   -0.00002282    0.00003266
     atom   45 type  3   force =     0.00000034   -0.00004282    0.00000293
     atom   46 type  3   force =    -0.00000393    0.00000147    0.00000294
     atom   47 type  3   force =    -0.00000992   -0.00001626    0.00001061
     atom   48 type  3   force =     0.00002395    0.00000705    0.00001585
     atom   49 type  3   force =    -0.00001996    0.00001038    0.00000537
     atom   50 type  3   force =    -0.00004183   -0.00004302    0.00005978
     atom   51 type  3   force =     0.00001716    0.00002800    0.00000032
     atom   52 type  3   force =     0.00005372   -0.00003735    0.00000637
     atom   53 type  3   force =     0.00007410    0.00000692    0.00000649
     atom   54 type  3   force =     0.00001975   -0.00004146   -0.00002857
     atom   55 type  3   force =     0.00006202   -0.00001090    0.00001308
     atom   56 type  3   force =    -0.00002616    0.00000717    0.00004817
     atom   57 type  3   force =    -0.00003488    0.00001048   -0.00004295
     atom   58 type  3   force =     0.00002241   -0.00000043   -0.00001137
     atom   59 type  3   force =    -0.00003193   -0.00002930    0.00000654
     atom   60 type  3   force =    -0.00003631    0.00003531   -0.00001833

     Total force =     0.680646     Total SCF correction =     0.001718
 
     init_run     :     17.81s CPU     18.32s WALL (       1 calls)
     electrons    :    941.65s CPU    958.84s WALL (       1 calls)
     forces       :      9.99s CPU     10.30s WALL (       1 calls)

     Called by init_run:
     wfcinit      :     16.73s CPU     17.06s WALL (       1 calls)
     wfcinit:atom :      0.17s CPU      0.17s WALL (       8 calls)
     wfcinit:wfcr :     15.93s CPU     16.22s WALL (       8 calls)
     potinit      :      0.26s CPU      0.28s WALL (       1 calls)
     hinit0       :      0.15s CPU      0.19s WALL (       1 calls)

     Called by electrons:
     c_bands      :    848.86s CPU    861.16s WALL (      18 calls)
     sum_band     :     81.78s CPU     84.94s WALL (      18 calls)
     v_of_rho     :      0.85s CPU      1.10s WALL (      18 calls)
     v_h          :      0.07s CPU      0.11s WALL (      18 calls)
     v_xc         :      0.82s CPU      1.04s WALL (      19 calls)
     newd         :      7.32s CPU      8.82s WALL (      18 calls)
     PAW_pot      :      2.86s CPU      2.87s WALL (      18 calls)
     mix_rho      :      0.49s CPU      0.56s WALL (      18 calls)

     Called by c_bands:
     init_us_2    :     12.17s CPU     12.36s WALL (     304 calls)
     init_us_2:cp :     12.17s CPU     12.36s WALL (     304 calls)
     cegterg      :    824.67s CPU    836.56s WALL (     144 calls)

     Called by sum_band:
     sum_band:wei :      0.00s CPU      0.00s WALL (      18 calls)
     sum_band:loo :     74.86s CPU     75.88s WALL (      18 calls)
     sum_band:buf :      1.70s CPU      1.78s WALL (     144 calls)
     sum_band:ini :      5.75s CPU      5.82s WALL (     144 calls)
     sum_band:cal :     31.40s CPU     32.04s WALL (     144 calls)
     sum_band:bec :      0.23s CPU      0.24s WALL (     144 calls)
     addusdens    :      6.57s CPU      8.67s WALL (      18 calls)
     addusd:skk   :      0.30s CPU      0.31s WALL (      54 calls)
     addusd:dgemm :      3.50s CPU      5.51s WALL (      54 calls)
     addusd:qvan2 :      2.62s CPU      2.64s WALL (      54 calls)

     Called by *egterg:
     cdiaghg      :     23.83s CPU     24.65s WALL (    1077 calls)
     cegterg:over :     68.79s CPU     69.40s WALL (     941 calls)
     cegterg:upda :     69.09s CPU     69.69s WALL (     941 calls)
     cegterg:last :    118.14s CPU    119.29s WALL (     332 calls)
     cdiaghg:chol :      1.82s CPU      1.83s WALL (    1077 calls)
     cdiaghg:inve :      1.71s CPU      1.72s WALL (    1077 calls)
     cdiaghg:para :      2.59s CPU      3.10s WALL (    2154 calls)
     h_psi        :    422.30s CPU    428.65s WALL (    1093 calls)
     s_psi        :    108.14s CPU    108.85s WALL (    1093 calls)
     g_psi        :      1.14s CPU      1.16s WALL (     941 calls)

     Called by h_psi:
     h_psi:calbec :    110.35s CPU    112.37s WALL (    1093 calls)
     vloc_psi     :    191.18s CPU    192.58s WALL (    1093 calls)
     add_vuspsi   :    117.48s CPU    118.47s WALL (    1093 calls)

     General routines
     calbec       :    148.62s CPU    151.42s WALL (    1269 calls)
     fft          :      0.74s CPU      1.07s WALL (     210 calls)
     ffts         :      0.04s CPU      0.07s WALL (      18 calls)
     fftw         :    208.37s CPU    209.92s WALL (  181612 calls)
 
     Parallel routines

     PAW routines
     PAW_pot      :      2.86s CPU      2.87s WALL (      18 calls)
 
     PWSCF        :  16m 9.68s CPU  16m27.79s WALL

 
   This run was terminated on:  14:22:46  11Dec2023            

=------------------------------------------------------------------------------=
   JOB DONE.
=------------------------------------------------------------------------------=
