ITEM: TIMESTEP
5000
ITEM: NUMBER OF ATOMS
432
ITEM: BOX BOUNDS pp pp pp
0.1590491104 15.0936849239
0.1474081327 15.1053259015
0.3115133877 30.1939546809
ITEM: ATOMS type x y z
1 2.63253 2.78659 2.83444
2 2.65503 2.6996 0.31501
2 2.73735 0.222856 2.67345
2 0.196813 2.51305 2.72843
2 5.25219 2.66316 2.90333
1 5.22816 0.17165 2.78058
1 5.1759 2.73575 0.418557
1 7.74751 2.58509 2.75249
2 7.631 0.202342 2.7315
2 7.63372 2.65778 0.37148
2 10.1237 2.58081 2.87605
1 10.2337 2.63222 0.359188
2 10.1349 0.207141 0.387249
1 12.5561 2.61395 2.85241
1 12.7163 0.187889 0.360468
2 2.58371 5.0719 2.87164
1 2.67376 5.07756 0.399399
1 2.53731 7.56102 2.89308
1 0.195879 5.03622 2.71439
1 5.03965 5.0554 2.9079
2 7.57718 5.1673 2.74755
2 5.12812 5.15649 0.353719
1 7.66054 5.02118 0.36165
1 10.1497 5.14413 2.81628
2 10.1288 7.55436 2.81257
2 10.1492 5.11532 0.428628
2 7.63649 7.59619 0.324203
1 7.63967 7.60315 2.91989
2 12.6336 5.18369 2.94304
1 12.6432 5.1801 0.333354
2 2.77924 10.1215 2.69828
1 0.350772 10.0509 2.7979
2 0.194417 7.63948 2.84127
1 2.66163 10.0363 0.348113
2 5.29413 7.65348 2.82423
1 5.12215 7.69362 0.450437
1 5.23513 10.1457 2.75251
2 7.76019 10.0744 2.8117
1 10.193 10.033 2.83407
2 10.2224 10.1296 0.36567
1 10.0559 7.68718 0.546581
1 7.75897 10.1283 0.364206
1 12.7484 7.6406 2.75067
2 15.0526 9.99187 0.321141
2 12.5798 9.98419 2.91478
1 0.301939 15.0273 2.79158
2 0.24384 14.9387 0.417778
1 2.67383 12.4813 2.94153
1 0.194024 12.4841 0.356679
2 2.48693 12.4433 0.387028
2 5.21657 12.5153 2.78265
1 4.90672 12.5465 0.323377
1 10.0875 15.0238 2.88086
1 7.68847 12.5521 2.78948
2 10.1024 12.6003 2.7944
2 7.66143 12.5368 0.321614
2 15.072 12.4714 2.93259
2 12.5276 15.038 2.73453
1 12.5161 12.4577 2.82697
2 2.68068 2.50482 5.17697
1 0.255678 2.74894 5.39797
1 5.23411 2.52316 5.28234
2 7.61972 2.49222 5.21543
1 10.0817 2.71761 5.31551
2 12.6021 2.55997 5.30152
1 2.72755 5.25311 5.27218
2 0.195568 5.04446 5.2792
2 2.68849 7.5695 5.33495
2 5.31809 5.1814 5.20068
1 7.5733 5.20076 5.292
2 7.70993 7.55952 5.4023
2 10.1098 5.09327 5.28562
1 10.3112 7.51665 5.24523
1 12.6561 5.2084 5.36432
1 2.61981 9.99897 5.3523
1 0.191379 7.81006 5.37062
2 0.188479 10.1256 5.31631
1 5.21329 7.62804 5.26797
2 5.08502 10.0072 5.25427
1 7.77556 9.92252 5.22896
2 10.1794 9.98043 5.29344
2 12.6765 7.65646 5.41534
1 12.6272 10.0991 5.29132
1 2.60604 14.9726 5.20851
2 0.25333 15.0242 5.22713
2 2.69999 12.5555 5.26901
2 5.22014 14.9717 5.16656
1 5.20399 12.5234 5.39142
1 7.66527 15.0989 5.20958
2 7.63929 12.598 5.18702
2 10.1005 15.0229 5.23431
1 10.1441 12.5814 5.32297
1 14.9238 12.4501 5.32906
1 12.6976 15.0976 5.07989
2 12.5838 12.4831 5.35109
1 2.66975 2.62697 7.73508
2 2.71182 2.57664 10.1728
2 5.18568 2.60142 7.85155
1 5.24479 0.16164 7.68645
2 7.60128 0.171036 7.60911
1 7.77383 2.63722 7.84735
2 10.1602 2.69988 7.67985
1 9.95089 2.62704 10.1926
1 10.1627 0.255892 7.65967
2 7.65317 2.58618 10.1251
2 15.0887 2.6043 7.74913
1 12.499 2.54174 7.84744
1 15.0736 2.65326 10.2373
1 15.0602 0.163808 7.65472
2 2.72591 5.04126 7.85667
2 0.252224 7.61837 7.82131
1 0.207588 5.00448 7.97506
1 0.370906 7.61442 10.2623
1 5.15969 5.11065 7.82969
2 7.6023 5.096 7.82791
2 5.13214 5.11437 10.2585
2 5.23002 7.57763 7.85263
1 10.0096 5.17186 7.69091
2 10.0892 5.17558 10.2481
1 7.6347 7.58352 7.92666
1 7.68145 4.95399 10.228
2 12.733 5.19553 7.70015
1 12.6557 7.59807 7.82545
2 12.6309 7.58685 10.2597
1 12.4992 5.15949 10.2491
1 2.73075 7.65879 7.87401
2 2.66674 10.0401 7.83626
1 2.71702 10.1314 10.2279
1 5.24231 10.0844 7.79946
2 5.14166 10.225 10.2197
2 7.62669 10.075 7.66954
2 10.1248 7.63853 7.87926
1 10.0999 10.0013 7.92463
2 10.1116 10.104 10.2355
1 15.0422 10.1659 7.91169
2 12.6751 9.96767 7.69968
1 12.6627 9.95147 10.2309
2 2.62297 15.037 7.63161
1 2.62795 12.5498 7.70477
1 2.71659 15.0814 10.0989
2 5.10135 12.5805 7.69717
1 7.5737 12.5638 7.88247
2 5.16534 15.0613 10.1623
1 4.98113 12.6139 10.1534
2 10.1279 12.6829 7.74277
2 10.1033 15.0686 10.1204
1 7.69689 15.0799 9.98585
2 12.5227 15.0436 7.69478
2 15.0279 12.6403 7.95291
1 12.5468 12.6375 7.86554
2 12.5353 12.561 10.2633
1 2.43995 2.59667 12.7064
2 0.184718 2.64797 12.6992
1 5.05588 2.68488 10.3213
2 5.11693 2.57267 12.6982
2 7.62183 0.231888 12.8199
1 7.64132 2.7369 12.7448
2 10.0611 2.61991 12.8019
2 12.5439 2.77508 10.3035
2 15.0293 0.176994 10.3104
1 12.4319 2.75851 12.7141
2 2.62645 7.51014 10.4272
2 0.290256 5.02556 10.3216
1 2.70562 5.0237 10.3259
2 2.62572 5.04119 12.7775
1 0.217005 5.14319 12.7064
1 5.13673 5.22353 12.7947
1 5.31281 7.50471 10.2929
1 10.0897 7.53509 10.3358
2 7.64666 5.06906 12.654
1 10.0002 5.16171 12.7656
2 12.5292 5.0515 12.823
1 12.5487 7.55884 12.8139
2 15.0543 7.5757 12.8313
2 0.192706 10.1521 10.2923
1 2.6904 7.83048 12.7828
2 2.68068 10.1153 12.7844
1 0.20237 10.1466 12.6097
2 5.21976 7.70572 12.741
1 5.03888 10.2712 12.6642
2 7.52619 10.2299 12.739
2 7.6807 7.66121 10.2817
1 7.62716 7.66826 12.7918
2 10.0826 7.65839 12.7305
1 7.73641 10.2137 10.3585
1 10.2656 10.108 12.7043
2 12.5392 10.1275 12.6243
2 2.59998 14.9566 12.6197
2 2.75052 12.5199 10.3023
1 2.58703 12.5787 12.6872
1 0.2275 14.952 12.7389
2 7.53662 12.5937 10.2986
1 5.12759 15.046 12.6335
2 5.05637 12.7644 12.8833
1 10.0967 15.0952 12.8553
1 7.63681 12.602 12.6694
1 10.0891 12.6052 10.3106
2 10.0589 12.6651 12.8352
1 12.5233 15.0748 10.3538
1 15.0099 12.5707 10.3502
2 12.4613 15.0516 12.6423
2 15.0136 12.6098 12.707
1 12.6047 12.6368 12.7232
2 2.61684 2.57725 15.1605
1 2.60722 0.15022 15.3725
1 5.11236 2.63129 15.4567
2 5.14423 0.269683 15.479
1 7.5836 0.161845 15.2258
2 7.69914 2.75559 15.2834
1 10.1257 2.76612 15.3406
1 14.965 2.50152 15.2556
2 12.6884 2.66311 15.2626
1 12.5186 0.225465 15.3884
2 15.0911 0.152339 15.1995
1 2.56799 5.10583 15.0785
2 0.209063 5.26372 15.2128
1 0.263391 7.62579 15.1603
2 5.07987 5.22642 15.4159
1 7.63262 5.12679 15.3336
2 10.0712 5.14107 15.2373
1 12.6312 5.1094 15.2334
2 12.6896 7.57474 15.2489
2 2.63239 7.65236 15.2139
1 2.5152 10.096 15.1888
2 0.249435 10.1176 15.0587
1 4.97628 7.71637 15.2258
2 5.13384 10.0915 15.4045
1 10.0294 7.76898 15.1766
2 7.6296 7.77025 15.3359
1 7.67242 10.1573 15.2949
2 10.0704 10.2686 15.1068
1 12.727 10.0694 15.2418
2 2.65199 12.5066 15.3107
1 0.21081 12.6735 15.1128
1 5.19204 12.6849 15.2651
2 7.58617 12.5817 15.3109
2 10.0418 15.0056 15.3034
1 10.2385 12.5449 15.2055
2 12.7152 12.6442 15.2747
2 2.7013 0.337219 17.6903
1 2.6532 2.62052 17.8167
2 0.180947 2.62417 17.7693
1 0.325577 2.71465 20.085
2 5.06003 2.76642 17.8323
1 5.14581 0.295181 17.8666
2 7.61536 0.298121 17.8379
1 5.33329 2.76729 20.2213
1 7.78477 2.57416 17.8594
2 10.2675 2.63456 17.6573
1 10.0758 2.5537 20.2106
1 12.631 2.70563 17.7501
1 12.7406 0.192153 20.1103
2 12.5508 2.6657 20.1669
2 2.78968 5.2096 17.8972
1 0.166753 5.23689 17.8053
2 0.203667 5.10361 20.1552
1 5.05538 5.25464 17.7664
2 7.65948 5.12786 17.8438
1 10.0164 5.12525 17.6245
1 10.1178 7.53914 20.1923
2 12.6589 5.20627 17.6811
1 12.5778 7.52575 17.6083
1 15.0474 7.61784 20.1959
2 12.6528 7.60167 20.2052
2 0.312579 7.67942 17.6697
1 2.61908 7.65834 17.731
2 2.61528 10.0538 17.8659
1 2.69462 10.1463 20.1972
1 0.182969 10.1318 17.832
2 5.06363 7.80733 17.7173
1 5.05792 10.2502 17.7729
2 7.5599 10.2988 17.874
1 7.63397 7.85284 17.6848
2 9.9235 7.66115 17.6551
1 9.97046 10.1686 17.7938
2 10.1177 10.0772 20.1695
2 12.528 10.0848 17.6851
1 12.4693 10.042 20.0067
1 0.266639 14.9521 17.6753
1 2.57222 12.6641 17.7509
2 0.239383 15.0687 20.1427
2 2.68897 12.6905 20.212
2 5.115 12.5682 17.929
1 7.58469 12.6601 17.7501
1 10.1109 15.0716 17.6244
2 10.0874 12.6426 17.7382
2 10.0814 15.0498 20.2164
2 12.5586 15.0021 17.6752
2 15.0101 12.5528 17.6269
1 12.719 12.5715 17.7816
2 12.5125 12.5349 20.1946
1 2.67642 0.153557 20.324
2 2.67974 2.66697 20.3026
1 2.64202 2.5577 22.7144
1 0.330556 0.197542 22.9055
2 2.67326 0.215439 22.7541
2 7.61748 2.72767 20.3132
2 5.16515 2.64315 22.6545
2 7.59747 0.185002 22.7881
1 4.99927 0.303528 22.6636
2 5.18136 0.284238 20.2805
1 7.68001 2.69501 22.7365
2 10.1052 2.67207 22.6348
2 14.9245 2.68378 22.7527
1 12.5614 2.49415 22.4393
2 12.4897 0.160099 22.7343
2 2.52971 5.29542 22.743
1 2.80011 5.1698 20.3302
1 0.164169 5.00606 22.8034
1 2.64049 7.62414 22.6339
2 5.13236 5.28142 20.3719
1 7.58332 5.14239 20.3618
1 4.96606 5.16481 22.7365
2 10.159 5.21471 20.2461
2 7.6886 5.20024 22.669
1 10.0764 5.37189 22.6245
1 12.5197 5.29777 20.3587
2 12.52 5.22347 22.627
1 12.6783 7.54747 22.7084
2 2.69602 7.71101 20.2827
2 2.5798 10.1509 22.7117
2 7.61658 7.70524 20.3012
2 5.06438 10.0712 20.2519
1 5.13512 7.82301 20.2981
1 7.60074 7.7759 22.7528
2 5.12491 7.76057 22.8434
1 5.20613 10.2425 22.8437
1 7.53058 10.2009 20.2987
2 10.1205 7.6989 22.6541
2 7.65447 10.1749 22.717
1 10.0366 10.1703 22.8208
2 15.0496 10.1269 20.3387
2 15.0198 7.63456 22.6281
1 14.8644 10.0719 22.6653
2 12.5372 10.1398 22.7588
1 2.53995 12.5069 22.5597
1 5.04571 12.7053 20.4412
2 5.13073 12.7125 22.8089
1 7.49892 12.7067 22.7805
1 7.69603 15.0889 20.2972
2 7.63872 12.6903 20.3398
1 10.0512 12.4767 20.2648
1 10.02 15.0603 22.7708
2 9.95974 12.6286 22.835
1 14.9481 12.4217 20.3159
2 15.0385 12.5696 22.6422
1 12.4792 12.7208 22.5367
2 2.58594 2.72678 25.192
1 2.72391 0.194566 25.3042
1 5.0048 2.76312 25.1355
2 5.06434 0.340221 25.2274
1 7.60111 0.212204 25.2248
2 7.63498 2.70083 25.1695
1 10.0851 2.62898 25.2978
1 15.0064 2.59823 25.2494
2 12.4872 2.61701 25.3297
1 12.483 0.207583 25.1903
1 2.55867 5.20561 25.2661
2 2.70237 7.60177 25.0583
2 5.11841 5.19527 25.1283
1 7.49889 5.03387 25.2493
2 10.1128 5.18089 25.2376
2 15.0345 5.14054 25.2966
1 12.5145 5.25197 25.0075
1 0.210316 7.62777 25.2818
1 2.71808 10.2443 25.0854
2 0.267303 10.161 25.1826
1 5.16432 7.75937 25.2028
2 5.26215 10.1193 25.2118
2 7.62101 7.6939 25.1378
1 7.51 10.1546 25.2075
1 10.0695 7.73019 25.1038
2 10.2184 10.1608 25.3394
2 12.6432 7.6398 25.191
1 12.6533 10.1916 25.215
2 2.70371 12.7147 25.3008
2 0.244781 15.1007 25.2774
1 5.12832 12.6483 25.2204
2 7.56634 12.4409 25.1163
2 10.0406 15.0198 25.2154
1 10.0293 12.4647 25.3607
1 14.92 12.7324 25.1404
2 12.6652 12.6614 25.35
1 2.70371 0.339305 30.1588
1 2.77994 2.62926 27.7919
2 2.4939 0.238702 27.8054
2 0.190198 2.63595 27.7984
2 5.1206 2.59602 27.7035
1 5.05218 0.22495 27.6246
1 7.6309 2.51161 27.7477
2 7.75861 0.197578 27.5636
2 10.0737 2.78839 27.6999
1 15.0151 2.72058 30.1281
2 12.6367 2.61874 30.1854
1 12.5029 2.61214 27.5919
2 2.65971 7.62025 30.107
2 2.68747 5.07769 27.6526
1 0.199885 7.61302 30.0438
1 0.200963 5.09856 27.7336
1 5.10729 5.04986 27.5544
2 5.08948 7.5217 27.7216
2 7.67659 5.1568 27.7113
1 10.0433 5.08633 27.6585
2 15.0861 5.2181 30.0208
2 15.0098 7.58998 27.6363
2 12.6516 5.12127 27.6644
1 12.5919 7.52511 27.6412
1 2.83019 7.70334 27.7595
2 2.69291 10.1508 27.7833
1 0.18035 10.1877 27.6246
2 5.20117 10.0509 30.1119
1 5.18722 10.1666 27.7307
2 10.1063 7.76557 27.5549
2 7.66224 10.1621 27.6855
1 7.6683 7.62817 27.7008
1 10.1637 10.1685 27.6401
2 12.6145 7.68882 30.1333
1 12.6761 9.96819 30.0646
2 12.5996 9.94732 27.6859
1 2.4616 12.5932 27.7574
2 0.160694 12.6187 27.8135
2 5.17998 15.0215 30.1431
2 5.12008 12.6471 27.6828
1 7.70182 15.0275 30.0571
1 10.2348 12.6176 30.0818
1 10.1743 14.9854 27.5058
1 7.63636 12.6385 27.8657
2 10.227 12.5116 27.8113
1 14.9641 14.8718 27.7665
2 12.6232 12.5674 30.1626
2 12.66 15.0881 27.744
1 12.5786 12.5222 27.7853
