LAMMPS (29 Sep 2021 - Update 3)
OMP_NUM_THREADS environment is not set. Defaulting to 1 thread. (src/comm.cpp:98)
  using 1 OpenMP thread(s) per MPI task
Reading data file ...
  orthogonal box = (0.0000000 0.0000000 0.0000000) to (14.934386 14.958024 69.402279)
  1 by 2 by 8 MPI processor grid
  reading atoms ...
  864 atoms
Finding 1-2 1-3 1-4 neighbors ...
  special bond factors lj:    0        0        0       
  special bond factors coul:  0        0        0       
     0 = max # of 1-2 neighbors
     0 = max # of 1-3 neighbors
     0 = max # of 1-4 neighbors
     1 = max # of special neighbors
  special bonds CPU = 0.001 seconds
  read_data CPU = 0.016 seconds
Neighbor list info ...
  update every 1 steps, delay 10 steps, check yes
  max neighbors/atom: 2000, page size: 100000
  master list distance cutoff = 6.22
  ghost atom cutoff = 6.22
  binsize = 3.11, bins = 5 5 23
  1 neighbor lists, perpetual/occasional/extra = 1 0 0
  (1) pair quip, perpetual
      attributes: full, newton on
      pair build: full/bin
      stencil: full/bin/3d
      bin: standard
Setting up Verlet run ...
  Unit style    : metal
  Current step  : 0
  Time step     : 0.001
Per MPI rank memory allocation (min/avg/max) = 8.899 | 8.909 | 8.915 Mbytes
Step Temp PotEng TotEng Press Volume c_msd[4] 
       0            0   -6172.5374   -6172.5374   -7082.6594    15503.698            0 
      10     119.0518   -6185.8373   -6172.5569    -9934.496    15503.698 0.0010071496 
      20    261.33204   -6201.7236   -6172.5716   -11295.094    15503.698  0.011565216 
      30    255.25791   -6201.0293   -6172.5549   -7123.0934    15503.698  0.034561857 
      40    264.42457   -6202.0531   -6172.5561   -5862.3924    15503.698  0.056650094 
      50    312.68329   -6207.4417   -6172.5614   -8677.8799    15503.698  0.070921244 
      60    325.67352   -6208.8908   -6172.5615   -10844.072    15503.698  0.082468217 
      70    295.31701      -6205.5    -6172.557   -10469.186    15503.698  0.097559999 
      80     271.8645   -6202.8841   -6172.5572   -9026.4225    15503.698   0.11664668 
      90    265.91321   -6202.2182   -6172.5552   -8317.7174    15503.698   0.13792772 
     100     287.1964   -6204.5961   -6172.5589   -8346.2512    15503.698   0.15949482 
     110    302.68865   -6206.3257   -6172.5603   -7330.7252    15503.698   0.18154576 
     120    297.65715   -6205.7608   -6172.5567   -6310.0558    15503.698   0.20233128 
     130     308.5729   -6206.9825   -6172.5607   -7014.1109    15503.698   0.21603749 
     140    308.49663   -6206.9739   -6172.5606   -8254.7053    15503.698   0.22639086 
     150    300.11731   -6206.0386   -6172.5601   -9257.3775    15503.698   0.23678646 
     160    287.85788   -6204.6691   -6172.5581   -9955.8958    15503.698   0.24792738 
     170    289.66466   -6204.8731   -6172.5606   -10583.255    15503.698   0.25945006 
     180    289.75654   -6204.8819   -6172.5591   -10712.363    15503.698    0.2718679 
     190    295.13609   -6205.4836   -6172.5607   -10488.456    15503.698   0.28444874 
     200    294.99607   -6205.4677   -6172.5604   -10129.942    15503.698   0.29609877 
     210    286.95916   -6204.5707     -6172.56   -9663.0674    15503.698   0.30649264 
     220    275.72988   -6203.3179   -6172.5599   -9177.9183    15503.698   0.31608118 
     230    270.50861   -6202.7358   -6172.5602   -8672.5656    15503.698   0.32607004 
     240     272.7294   -6202.9827   -6172.5593   -8853.0275    15503.698   0.33522232 
     250    279.60122   -6203.7491   -6172.5591   -10041.178    15503.698   0.34187187 
     260    292.08827   -6205.1435   -6172.5606   -11551.724    15503.698   0.34819423 
     270    296.23245   -6205.6053   -6172.5602   -12576.966    15503.698   0.35504368 
     280    290.59525   -6204.9758   -6172.5595   -13159.977    15503.698   0.36200476 
     290    286.39853   -6204.5075   -6172.5593   -12930.633    15503.698   0.36806237 
     300    285.16596    -6204.371   -6172.5603    -12383.94    15503.698   0.37260207 
     310     276.3618   -6203.3874   -6172.5589   -11854.298    15503.698   0.37624334 
     320    275.40717   -6203.2805   -6172.5584   -11896.916    15503.698   0.38034324 
     330    285.09748   -6204.3645   -6172.5614   -12353.811    15503.698   0.38651832 
     340      285.616    -6204.421   -6172.5601   -12511.793    15503.698   0.39499421 
     350    284.89791    -6204.341   -6172.5602   -12689.242    15503.698   0.40459174 
     360    282.95249   -6204.1225   -6172.5588   -13170.846    15503.698   0.41246598 
     370     288.0353   -6204.6912   -6172.5604   -13564.963    15503.698   0.41769002 
     380    287.28249    -6204.606   -6172.5592   -13378.283    15503.698   0.42278811 
     390    286.02871   -6204.4671   -6172.5602   -13125.251    15503.698   0.42882483 
     400    278.58412   -6203.6357   -6172.5592   -12733.019    15503.698   0.43546846 
     410    278.85156   -6203.6642   -6172.5579   -12725.177    15503.698   0.44118431 
     420    295.44173    -6205.519   -6172.5621   -12919.137    15503.698   0.44580202 
     430    288.38426     -6204.73   -6172.5603   -12292.067    15503.698   0.45184932 
     440     275.0948   -6203.2448   -6172.5576   -11576.148    15503.698    0.4597765 
     450    284.42439   -6204.2884   -6172.5604   -11635.475    15503.698   0.46872177 
     460    290.54397   -6204.9708   -6172.5602   -11458.018    15503.698   0.47890159 
     470    292.27935   -6205.1639   -6172.5597   -11047.279    15503.698   0.48981965 
     480    296.29192   -6205.6126   -6172.5608    -11053.89    15503.698   0.50144177 
     490    293.83397   -6205.3377   -6172.5601   -10910.875    15503.698   0.51477503 
     500    290.42176   -6204.9561   -6172.5592   -10882.616    15503.698   0.52864067 
     510    294.71216   -6205.4358   -6172.5602   -11048.423    15503.698   0.54096764 
     520    300.63857   -6206.0957    -6172.559   -11015.275    15503.698   0.55107936 
     530    313.42009   -6207.5237   -6172.5612   -10936.323    15503.698   0.55907812 
     540    312.92089   -6207.4677   -6172.5609   -10452.207    15503.698   0.56684223 
     550    300.99117   -6206.1344   -6172.5584   -9517.9446    15503.698   0.57402283 
     560    302.90044   -6206.3497   -6172.5607   -8993.9278    15503.698   0.57911723 
     570    299.50947   -6205.9709   -6172.5601   -8662.1184    15503.698   0.58313152 
     580    295.81191   -6205.5583     -6172.56   -8542.5542    15503.698   0.58726222 
     590    298.86152   -6205.8988   -6172.5604   -8965.8336    15503.698   0.59231809 
     600    300.33785   -6206.0635   -6172.5604   -9037.6184    15503.698   0.59853829 
     610    299.59534   -6205.9801   -6172.5598   -8371.2403    15503.698   0.60481665 
     620    303.65017   -6206.4328   -6172.5602   -7934.1068    15503.698   0.60844579 
     630     310.3803   -6207.1838   -6172.5604   -7992.0375    15503.698    0.6082619 
     640    314.29708   -6207.6215   -6172.5612   -8062.2161    15503.698   0.60580975 
     650    306.12162   -6206.7094   -6172.5611   -7405.6951    15503.698   0.60391606 
     660    291.75553   -6205.1049   -6172.5592   -6325.4283    15503.698    0.6045726 
     670    291.74021   -6205.1042   -6172.5602   -5867.2382    15503.698   0.60858321 
     680    296.82247   -6205.6718   -6172.5608   -6353.8899    15503.698   0.61618731 
     690    294.97725   -6205.4661   -6172.5609   -6662.3101    15503.698   0.62550238 
     700    286.97788    -6204.572   -6172.5592   -6616.0858    15503.698   0.63468815 
     710    286.63209   -6204.5347   -6172.5604   -6895.7828    15503.698   0.64319605 
     720    286.56031   -6204.5259   -6172.5596   -7285.3623    15503.698   0.65049549 
     730    293.20359   -6205.2674   -6172.5601   -7851.0094    15503.698   0.65568367 
     740    300.27034   -6206.0564   -6172.5608    -8274.995    15503.698   0.65946026 
     750    300.05685   -6206.0319   -6172.5601   -8184.0951    15503.698   0.66343273 
     760    299.10417   -6205.9256   -6172.5601   -8091.5591    15503.698   0.66885484 
     770    298.48137   -6205.8564   -6172.5604   -8384.8598    15503.698   0.67752626 
     780    296.34645   -6205.6175   -6172.5596   -8914.1283    15503.698   0.69090215 
     790     300.5212   -6206.0841   -6172.5605   -9695.9101    15503.698   0.70830553 
     800    302.31484   -6206.2847    -6172.561   -9986.7534    15503.698   0.72733815 
     810    294.97177   -6205.4649   -6172.5603   -9788.8775    15503.698   0.74437354 
     820     293.9212   -6205.3466   -6172.5592   -10145.009    15503.698   0.75557997 
     830    306.06744   -6206.7043    -6172.562   -11121.711    15503.698   0.76034898 
     840    304.44992   -6206.5222   -6172.5604   -11386.671    15503.698   0.76099165 
     850    301.98739    -6206.247   -6172.5598   -11215.463    15503.698   0.75927071 
     860    307.80247   -6206.8965   -6172.5607   -11228.553    15503.698   0.75750628 
     870    309.83215   -6207.1239   -6172.5617   -11151.874    15503.698   0.75886791 
     880    299.41573   -6205.9598   -6172.5595   -10730.834    15503.698   0.76520132 
     890    300.36042   -6206.0655   -6172.5598    -10683.96    15503.698   0.77522034 
     900    311.77593   -6207.3403   -6172.5613   -10758.155    15503.698   0.78644376 
     910    315.99675   -6207.8108   -6172.5609   -10638.959    15503.698   0.79743278 
     920    314.15059    -6207.605    -6172.561   -10767.654    15503.698   0.80852246 
     930    307.53752    -6206.867   -6172.5608    -10698.33    15503.698   0.82057803 
     940     303.9545   -6206.4657   -6172.5591   -10673.594    15503.698   0.83272237 
     950    315.55545   -6207.7625   -6172.5618   -10985.253    15503.698   0.84367931 
     960    314.10987   -6207.6014   -6172.5619   -10894.557    15503.698   0.85299466 
     970    301.16419   -6206.1543    -6172.559   -10416.525    15503.698   0.85903246 
     980     308.2504   -6206.9471   -6172.5613   -10639.037    15503.698   0.86167882 
     990    312.94011   -6207.4711   -6172.5622   -11165.921    15503.698    0.8636759 
    1000    301.96747   -6206.2445   -6172.5596   -11241.512    15503.698   0.86586818 
    1010    300.61614   -6206.0948   -6172.5606   -11044.825    15503.698   0.86653935 
    1020    302.77876   -6206.3368   -6172.5614   -10173.016    15503.698   0.86594544 
    1030    299.21901   -6205.9387   -6172.5604   -9568.0249    15503.698   0.86577348 
    1040    303.27626   -6206.3913   -6172.5604   -9668.3301    15503.698   0.86795209 
    1050    311.27436   -6207.2857   -6172.5626   -9746.7712    15503.698   0.87468285 
    1060    305.20995   -6206.6064   -6172.5598   -9153.5585    15503.698   0.88502989 
    1070    311.29573   -6207.2863   -6172.5608   -9189.6446    15503.698    0.8942313 
    1080    322.44853    -6208.532   -6172.5624   -9605.9463    15503.698   0.89934301 
    1090    319.52235   -6208.2053   -6172.5621   -9453.8625    15503.698   0.89981604 
    1100    306.22248   -6206.7208   -6172.5613   -8468.1547    15503.698   0.89715132 
    1110    296.30205    -6205.613   -6172.5601    -7650.171    15503.698   0.89433263 
    1120    300.99444   -6206.1381   -6172.5617   -7521.4311    15503.698   0.89425009 
    1130    303.00562   -6206.3625   -6172.5618   -7250.5408    15503.698   0.89988551 
    1140    301.43418   -6206.1853   -6172.5599    -7085.438    15503.698   0.91163073 
    1150    311.96544   -6207.3626   -6172.5623   -7736.7346    15503.698    0.9268416 
    1160     312.5856   -6207.4304    -6172.561   -7839.2347    15503.698   0.94242274 
    1170    312.06024   -6207.3717   -6172.5609   -7435.8113    15503.698   0.95568522 
    1180    313.23796   -6207.5041    -6172.562   -7597.0074    15503.698   0.96595677 
    1190    304.81245   -6206.5631   -6172.5608   -7511.6145    15503.698   0.97359152 
    1200     299.0979   -6205.9251   -6172.5603   -7251.8311    15503.698   0.97805041 
    1210    305.15455   -6206.6011   -6172.5607    -7450.478    15503.698   0.97875856 
    1220    315.76305   -6207.7851   -6172.5613   -7721.2495    15503.698   0.97613125 
    1230    323.52085   -6208.6506   -6172.5614   -8298.0615    15503.698   0.97208704 
    1240    323.92258   -6208.6961    -6172.562   -8905.0264    15503.698   0.96947127 
    1250    314.21066   -6207.6112   -6172.5605   -8803.1488    15503.698   0.96950769 
    1260    310.48588   -6207.1962   -6172.5611   -8633.2414    15503.698   0.97168554 
    1270    312.14219   -6207.3806   -6172.5607   -8954.9044    15503.698   0.97601337 
    1280    318.00741   -6208.0362    -6172.562   -9703.4995    15503.698   0.98273502 
    1290    313.40704   -6207.5223   -6172.5613   -9709.8303    15503.698   0.99069247 
    1300    308.27437   -6206.9483   -6172.5599   -9084.9158    15503.698   0.99712643 
    1310    318.66184   -6208.1092    -6172.562   -8966.3518    15503.698    1.0004123 
    1320    322.68718    -6208.559   -6172.5627     -9092.73    15503.698    1.0011762 
    1330    315.12259   -6207.7131   -6172.5607   -9357.7266    15503.698    1.0005657 
    1340    312.67589    -6207.441   -6172.5616   -9635.4368    15503.698    1.0005228 
    1350    310.17176   -6207.1606   -6172.5605   -9416.0855    15503.698    1.0028772 
    1360    314.49055   -6207.6425   -6172.5606   -9164.6541    15503.698    1.0079702 
    1370    323.50129    -6208.649   -6172.5619   -9193.9683    15503.698    1.0153714 
    1380    326.37912   -6208.9696   -6172.5616   -9039.2041    15503.698    1.0248913 
    1390    323.92279   -6208.6957   -6172.5616   -8869.5163    15503.698    1.0364229 
    1400    319.34103   -6208.1833   -6172.5603   -8983.1353    15503.698    1.0490487 
    1410    321.61238   -6208.4383   -6172.5619   -9724.0908    15503.698    1.0614227 
    1420    313.62116   -6207.5462   -6172.5613   -9953.0368    15503.698    1.0731437 
    1430    300.52334   -6206.0835   -6172.5597   -9720.0447    15503.698    1.0830064 
    1440    300.36192   -6206.0665   -6172.5607    -9614.744    15503.698      1.08962 
    1450    306.73861   -6206.7776   -6172.5605   -9656.3094    15503.698     1.093293 
    1460    316.85349   -6207.9069   -6172.5614   -10025.839    15503.698    1.0957017 
    1470    320.74713   -6208.3419   -6172.5621   -10258.291    15503.698    1.0988536 
    1480    312.81785   -6207.4563    -6172.561    -9699.673    15503.698    1.1032374 
    1490    307.07992    -6206.815   -6172.5597   -9345.4725    15503.698    1.1078283 
    1500    314.94947   -6207.6952   -6172.5621   -10109.293    15503.698      1.11197 
    1510    312.15384   -6207.3831   -6172.5618   -10499.296    15503.698    1.1158975 
    1520    300.86994   -6206.1223   -6172.5598   -10154.793    15503.698    1.1187148 
    1530    304.63017   -6206.5423   -6172.5604   -10286.491    15503.698     1.120074 
    1540     316.6053   -6207.8803   -6172.5625   -10577.908    15503.698    1.1224081 
    1550    314.19679   -6207.6105   -6172.5614   -10225.585    15503.698     1.127527 
    1560    307.50491   -6206.8633   -6172.5607   -9981.2278    15503.698    1.1335146 
    1570    307.92574   -6206.9114   -6172.5618   -9797.2276    15503.698    1.1386182 
    1580    304.47423   -6206.5253   -6172.5608   -9231.0918    15503.698    1.1428585 
    1590    304.75818    -6206.557   -6172.5608   -9046.6425    15503.698     1.146434 
    1600    309.29518   -6207.0641   -6172.5617   -9089.5807    15503.698    1.1506592 
    1610    312.11475   -6207.3779    -6172.561   -9064.6157    15503.698    1.1564872 
    1620    317.92765   -6208.0276   -6172.5623   -9093.4548    15503.698    1.1626775 
    1630    316.46787   -6207.8641   -6172.5616   -8992.9119    15503.698    1.1682704 
    1640    314.04151    -6207.593   -6172.5612   -8900.7429    15503.698    1.1726064 
    1650    318.50503   -6208.0919   -6172.5622    -8542.242    15503.698    1.1748846 
    1660    316.60134   -6207.8799   -6172.5626   -7886.4206    15503.698    1.1745515 
    1670    308.69714   -6206.9957   -6172.5601   -7568.5249    15503.698    1.1711308 
    1680    316.93876   -6207.9176   -6172.5626   -8340.0367    15503.698    1.1653881 
    1690    319.15454   -6208.1638   -6172.5616   -9190.5276    15503.698    1.1592781 
    1700    322.43619   -6208.5294   -6172.5612   -9889.3018    15503.698    1.1530101 
    1710    329.18953   -6209.2845   -6172.5629   -10150.234    15503.698    1.1474958 
    1720    325.77678   -6208.9015   -6172.5606   -9516.3401    15503.698    1.1452333 
    1730    331.29454   -6209.5188   -6172.5624   -9155.7339    15503.698    1.1475308 
    1740    330.35608   -6209.4144   -6172.5627   -8888.6931    15503.698    1.1546423 
    1750    317.78506   -6208.0107   -6172.5613   -7939.8954    15503.698    1.1652477 
    1760     313.1009   -6207.4877   -6172.5608   -7063.6644    15503.698    1.1772564 
    1770    321.67088   -6208.4454   -6172.5625   -7023.5784    15503.698    1.1893408 
    1780    324.29279   -6208.7378   -6172.5625   -7153.9414    15503.698    1.2002526 
    1790    317.86621     -6208.02   -6172.5616   -6704.4499    15503.698    1.2084419 
    1800    312.64233    -6207.437   -6172.5613   -6458.5525    15503.698    1.2133333 
    1810    313.63482   -6207.5476   -6172.5611   -6837.7233    15503.698    1.2153402 
    1820    320.76249   -6208.3436   -6172.5621   -7424.7523    15503.698    1.2163716 
    1830    323.69246   -6208.6704   -6172.5621   -7655.5418    15503.698    1.2199147 
    1840    320.70012   -6208.3358   -6172.5612   -7675.0009    15503.698    1.2273463 
    1850    320.85656   -6208.3534   -6172.5613    -7994.814    15503.698    1.2362593 
    1860    322.53929    -6208.542   -6172.5623   -8199.3485    15503.698    1.2440189 
    1870    318.16027   -6208.0522   -6172.5609   -7977.1631    15503.698    1.2495611 
    1880    318.87076   -6208.1326    -6172.562   -7862.9105    15503.698    1.2525522 
    1890    316.76722   -6207.8976   -6172.5617   -7681.9854    15503.698    1.2534537 
    1900    315.73302   -6207.7812   -6172.5607   -7756.5226    15503.698    1.2533187 
    1910     323.8924   -6208.6936   -6172.5629   -8279.2539    15503.698    1.2538785 
    1920     321.2693   -6208.4004   -6172.5623   -8195.6393    15503.698    1.2564932 
    1930    313.40197   -6207.5214   -6172.5609   -7832.1304    15503.698    1.2602449 
    1940    315.43195   -6207.7487   -6172.5618    -7837.936    15503.698    1.2639341 
    1950    316.02421    -6207.815    -6172.562   -7999.0172    15503.698    1.2669873 
    1960    312.57749   -6207.4298   -6172.5613   -8182.2094    15503.698    1.2689421 
    1970    312.49232   -6207.4211   -6172.5621   -7924.5303    15503.698    1.2699253 
    1980    311.31231   -6207.2889   -6172.5615   -7681.6797    15503.698    1.2706159 
    1990    315.97456   -6207.8084    -6172.561   -7981.4275    15503.698    1.2709612 
    2000    328.15449   -6209.1691    -6172.563   -8517.2812    15503.698    1.2709699 
Loop time of 1276.28 on 16 procs for 2000 steps with 864 atoms

Performance: 0.135 ns/day, 177.261 hours/ns, 1.567 timesteps/s
96.1% CPU use with 16 MPI tasks x 1 OpenMP threads

MPI task timing breakdown:
Section |  min time  |  avg time  |  max time  |%varavg| %total
---------------------------------------------------------------
Pair    | 646.66     | 955.22     | 1271.8     | 527.6 | 74.84
Bond    | 0.00017548 | 0.00049777 | 0.0013545  |   0.0 |  0.00
Neigh   | 0.026169   | 0.036262   | 0.048935   |   3.2 |  0.00
Comm    | 2.7827     | 292.27     | 628.36     | 939.7 | 22.90
Output  | 0.29145    | 18.534     | 42.706     | 400.5 |  1.45
Modify  | 0.0083697  | 0.0099577  | 0.012583   |   1.2 |  0.00
Other   |            | 10.21      |            |       |  0.80

Nlocal:        54.0000 ave          72 max          38 min
Histogram: 1 1 4 1 3 2 0 2 0 2
Nghost:        591.625 ave         728 max         498 min
Histogram: 2 0 1 7 3 1 0 0 0 2
Neighs:         0.00000 ave           0 max           0 min
Histogram: 16 0 0 0 0 0 0 0 0 0
FullNghs:      3308.38 ave        5371 max        1872 min
Histogram: 1 5 3 1 0 0 2 2 0 2

Total # of neighbors = 52934
Ave neighs/atom = 61.266204
Ave special neighs/atom = 0.0000000
Neighbor list builds = 199
Dangerous builds = 198
Setting up Verlet run ...
  Unit style    : metal
  Current step  : 2000
  Time step     : 0.001
Per MPI rank memory allocation (min/avg/max) = 8.903 | 8.910 | 8.916 Mbytes
Step Temp PotEng TotEng Press Volume c_msd[4] 
    2000         1200   -6209.1691   -6075.3073   -1816.9116    15503.698    1.2709699 
    2010    975.10178    -6183.999    -6075.225    7761.3264     15503.64    1.2907318 
    2020     730.4374   -6156.3597   -6074.8783    18359.132    15507.499    1.3216915 
    2030    764.68085   -6159.4103    -6074.109    16187.497    15519.998     1.342905 
    2040     725.1695   -6153.7185   -6072.8247    15842.066    15540.822    1.3654294 
    2050    663.22989   -6145.5626   -6071.5783    17651.459    15569.801    1.3942508 
    2060    705.10181   -6149.1901   -6070.5349    15704.852    15607.616    1.4239118 
    2070    740.11449   -6152.0992   -6069.5384    12355.555    15653.422     1.454373 
    2080    742.71026   -6151.3247   -6068.4743    9299.6265    15705.531    1.4868263 
    2090    765.89782   -6152.6316   -6067.1946    6144.0505    15762.233    1.5204905 
    2100     768.1314   -6151.3212    -6065.635    3972.9878    15821.783    1.5551621 
    2110    754.01954   -6148.0295   -6063.9175    2066.8201    15882.772    1.5902884 
    2120    749.52986   -6145.6663   -6062.0551   -401.17781    15943.922    1.6260267 
    2130    792.76737   -6148.4393   -6060.0049   -3314.7637    16003.687    1.6615141 
    2140    813.80413   -6148.5445   -6057.7634   -5372.1619    16060.371    1.6980713 
    2150    805.20595   -6145.2983   -6055.4764   -6384.7123     16112.74    1.7372068 
    2160    789.55172   -6141.2664   -6053.1907   -6764.2733    16160.161    1.7784409 
    2170    767.50365   -6136.5439   -6050.9278   -6161.5573    16202.452    1.8182216 
    2180    754.85475   -6132.9039   -6048.6987   -4752.8898    16239.988     1.851608 
    2190    763.25251   -6131.6111   -6046.4692   -3346.7394    16273.593    1.8778318 
    2200    773.98864   -6130.5428   -6044.2032   -2820.8284    16304.082    1.9008066 
    2210     779.5204   -6128.8602   -6041.9035   -3056.4215    16331.846    1.9240374 
    2220    807.69082   -6129.6383   -6039.5392    -4418.174     16356.79    1.9497788 
    2230    816.91563   -6128.2208   -6037.0927   -4640.0627    16378.386    1.9791587 
    2240      822.711   -6126.4296    -6034.655   -4801.6224    16396.574    2.0102225 
    2250    843.42417   -6126.2618   -6032.1766   -6878.9276    16411.283    2.0393923 
    2260    854.30488   -6124.9668   -6029.6678   -8195.9843    16421.652    2.0647383 
    2270    851.22268   -6122.1262    -6027.171   -7412.1845    16427.182    2.0857414 
    2280    844.26316   -6118.8921   -6024.7132   -6101.2115    16428.418    2.1006438 
    2290    872.09298   -6119.4974   -6022.2141   -5833.9375    16426.171    2.1091155 
    2300      879.249   -6117.7588   -6019.6773   -5639.3478    16420.784    2.1184602 
    2310    874.50735   -6114.7128   -6017.1602   -4893.8798    16412.516     2.132855 
    2320    901.29773   -6115.1643   -6014.6231   -4202.3056    16401.838    2.1516496 
    2330    932.94602   -6116.0762   -6012.0047    -2503.658    16389.291    2.1720378 
    2340    921.84963    -6112.211   -6009.3773    367.29745    16375.887    2.1936646 
    2350     917.3282   -6109.1254   -6006.7961    2687.3116    16363.151    2.2168653 
    2360    935.64139   -6108.5526   -6004.1804    2946.6143    16352.229    2.2422308 
    2370     949.1587   -6107.4056   -6001.5256     2765.869    16343.272    2.2715326 
    2380    939.14925   -6103.6455    -5998.882    3635.4781    16336.198    2.3028559 
    2390    964.14267   -6103.8071   -5996.2555    4260.6035    16331.331    2.3342218 
    2400    989.59104   -6103.9737   -5993.5833    4194.5311    16328.923    2.3686569 
    2410     1004.877   -6103.0047   -5990.9091    3817.0618    16328.901    2.4066188 
    2420     1030.082    -6103.148   -5988.2408    2526.3733    16330.927     2.445965 
    2430    1039.3284   -6101.5285   -5985.5899    1887.3886    16334.315    2.4821667 
    2440    1008.9667   -6095.5644   -5983.0126    2951.1551    16338.745    2.5122873 
    2450    1009.4096   -6093.0918   -5980.4907     3262.504    16344.662    2.5385257 
    2460    1056.4743   -6095.7276   -5977.8763     2761.106    16352.188    2.5663275 
    2470    1062.0067   -6093.7155    -5975.247    3692.8031    16361.125    2.6030526 
    2480    1071.5431   -6092.2236   -5972.6913    4539.5174    16371.886    2.6506839 
    2490    1089.1614   -6091.6754   -5970.1778    5107.9231      16384.9    2.7043957 
    2500    1069.3896   -6087.0287   -5967.7366    6376.7779    16400.523    2.7556923 
    2510    1080.1652   -6085.8655   -5965.3715    5828.7226    16419.263    2.8012853 
    2520    1090.4946   -6084.6193    -5962.973    4934.7334    16440.861    2.8420869 
    2530    1104.7129   -6083.8322   -5960.5998    4222.5078    16464.782    2.8793036 
    2540    1119.2054    -6083.076    -5958.227    3436.0884    16490.549    2.9145981 
    2550    1119.9141   -6080.8356   -5955.9074    3653.4599    16517.794    2.9490036 
    2560    1160.9838    -6083.114   -5953.6045    3154.2847    16546.506    2.9782003 
    2570    1141.7386   -6078.7205   -5951.3579    3681.3577    16576.499    3.0090407 
    2580    1169.1239   -6079.6284   -5949.2108    3116.3429    16607.887    3.0426497 
    2590    1176.2637   -6078.3049   -5947.0909    3168.2504    16640.441    3.0865532 
    2600    1180.9838   -6076.8169   -5945.0764    2987.2497      16674.1    3.1475718 
    2610    1178.7826   -6074.6216   -5943.1266    2456.3909     16708.76    3.2150642 
    2620    1175.7609   -6072.3942   -5941.2363    1672.3297    16744.056    3.2843001 
    2630    1165.4091   -6069.3994   -5939.3963    2031.2294    16779.619    3.3592654 
    2640    1173.4395   -6068.4956   -5937.5966    1922.0134    16815.543    3.4398251 
    2650     1183.284   -6067.8121    -5935.815    2194.6294    16851.799    3.5219339 
    2660    1192.6656   -6067.1376    -5934.094    2295.3151    16888.501    3.5993055 
    2670    1183.4155   -6064.4182   -5932.4064    1305.5287    16925.619    3.6740969 
    2680     1167.201    -6060.962    -5930.759    346.24855    16962.624    3.7505923 
    2690    1165.9959   -6059.1648   -5929.0962    -425.1525    16998.947    3.8238104 
    2700    1171.1355   -6058.0442   -5927.4023   -1114.4768    17034.097    3.8889733 
    2710    1209.0438   -6060.5569   -5925.6863   -1015.7892    17067.722    3.9460587 
    2720    1196.6482   -6057.5151   -5924.0272   -496.53601    17099.889    4.0015509 
    2730    1176.1283   -6053.6519    -5922.453   -972.43821    17130.864    4.0579046 
    2740    1198.4203    -6054.574   -5920.8885   -1838.0694    17160.433    4.1176946 
    2750    1190.4552   -6052.1366   -5919.3396   -1611.2276    17188.188    4.1824502 
    2760    1208.9175   -6052.6913   -5917.8348   -1067.5516    17214.247     4.246653 
    2770    1231.6622   -6053.7617   -5916.3679   -526.62054    17238.965    4.3127815 
    2780    1229.4664   -6052.1571   -5915.0083      443.802    17262.763    4.3807787 
    2790    1236.6928   -6051.7208   -5913.7659   -186.57685    17286.124    4.4408468 
    2800    1245.7623   -6051.5701   -5912.6035   -1063.4376    17308.776    4.4950437 
    2810    1238.9287   -6049.7366   -5911.5323   -1561.3474    17330.231    4.5474038 
    2820    1272.3596   -6052.5032   -5910.5695   -2436.7158     17350.16    4.5966558 
    2830     1281.568   -6052.7082   -5909.7474   -3209.5409    17368.078    4.6466563 
    2840    1271.2915    -6050.934   -5909.1196   -3124.1012    17383.619     4.701759 
    2850    1265.6677   -6049.8713   -5908.6841   -2510.0582     17396.86    4.7660922 
    2860    1221.8233   -6044.6987   -5908.4024   -1282.8522     17408.28    4.8352981 
    2870    1233.2545   -6045.7704    -5908.199   -2037.0817    17418.521    4.8988074 
    2880     1232.374   -6045.5347   -5908.0615   -3164.6461    17427.233    4.9617488 
    2890    1226.0709   -6044.7608   -5907.9907   -4163.4814    17433.785    5.0351497 
    2900    1263.4404   -6048.9436    -5908.005   -5404.6799    17437.557     5.119748 
    2910    1257.2446   -6048.4179   -5908.1704    -4906.409    17437.936    5.2126659 
    2920    1223.4905   -6044.9489   -5908.4667   -3470.0597    17435.269    5.3139657 
    2930    1229.0063   -6045.9384   -5908.8409   -2568.0066    17430.446    5.4090312 
    2940    1202.8561   -6043.4251   -5909.2447   -1765.1614    17424.115    5.4876406 
    2950    1214.8306    -6045.187   -5909.6708    -1317.401    17416.787    5.5541719 
    2960    1201.6853    -6044.149   -5910.0992   -1221.5241    17408.771    5.6119112 
    2970    1192.8305   -6043.5888   -5910.5268     -1599.49    17400.114    5.6581464 
    2980    1224.0981   -6047.5172   -5910.9672   -1975.0501    17390.624    5.6920968 
    2990    1217.8624   -6047.3159   -5911.4615   -1776.2645    17380.096    5.7257756 
    3000    1183.4697   -6043.9795   -5911.9617   -1061.4875    17368.698    5.7671168 
    3010    1237.7321    -6050.555   -5912.4841   -2431.0834    17356.695     5.810734 
    3020     1238.727   -6051.2619     -5913.08   -2190.2269    17343.513    5.8677685 
    3030    1215.9014   -6049.3927   -5913.7571   -1327.9715    17329.226    5.9362036 
    3040    1201.5273    -6048.485   -5914.4528   -1055.1288    17314.336    5.9958597 
    3050    1190.9968   -6047.9913   -5915.1338   -803.74521    17299.065    6.0422132 
    3060    1206.4907    -6050.397   -5915.8112   -1063.1323    17283.536    6.0855539 
    3070    1212.5555   -6051.7556   -5916.4932   -838.63856    17267.666    6.1290817 
    3080    1225.8459   -6053.9619    -5917.217   -519.55078    17251.569    6.1680385 
    3090    1223.5755   -6054.4761   -5917.9844   -867.92085    17235.401    6.2069721 
    3100    1220.8412   -6055.0083   -5918.8216   -1174.3263    17218.971    6.2550642 
    3110    1166.9791   -6049.8193    -5919.641    59.398672    17202.191    6.3102412 
    3120     1164.505   -6050.2733   -5920.3711    905.11493    17185.693    6.3579184 
    3130    1175.9387   -6052.2047   -5921.0269    943.78232    17169.985     6.395283 
    3140    1182.1061   -6053.5085   -5921.6428    303.54348    17155.063    6.4308988 
    3150    1173.2036   -6053.0821   -5922.2095    52.039218    17140.615    6.4750173 
    3160    1184.2788   -6054.8509   -5922.7429   -361.58993    17126.417    6.5333514 
    3170    1159.7571   -6052.5832   -5923.2106    369.10154      17112.3    6.6052647 
    3180    1185.1425   -6055.8091   -5923.6047    314.91253    17098.581    6.6829234 
    3190    1216.2267   -6059.6533   -5923.9814   -372.60555    17085.232    6.7625289 
    3200    1207.7662    -6059.119   -5924.3909   -301.38143    17071.906    6.8399197 
    3210    1223.0818   -6061.2819   -5924.8453   -475.34268     17058.58    6.9064647 
    3220     1235.359   -6063.1788   -5925.3727   -254.72153    17045.188    6.9622858 
    3230     1199.876   -6059.7816   -5925.9336    760.00385    17031.886    7.0083928 
    3240    1197.9436    -6060.111   -5926.4786    1069.2782    17019.199     7.041392 
    3250    1194.1879   -6060.2278   -5927.0144    710.40774    17007.307    7.0607747 
    3260     1178.076   -6058.9402   -5927.5241    15.845416    16996.002    7.0725896 
    3270    1196.8185   -6061.5178   -5928.0109   -806.44883    16984.854    7.0888679 
    3280    1209.7932   -6063.4541   -5928.4998   -651.95379    16973.434    7.1210629 
    3290    1200.3862   -6062.9014   -5928.9965    480.82451    16961.845    7.1732515 
    3300    1162.7207   -6059.1712    -5929.468    2404.9396    16950.754    7.2382263 
    3310     1142.449   -6057.2785   -5929.8366    3821.9008     16941.22    7.3075165 
    3320    1156.8194    -6059.144   -5930.0991    3926.3288    16934.026    7.3789679 
    3330    1173.9267   -6061.2413    -5930.288    3114.4162    16929.206    7.4457609 
    3340    1166.4302   -6060.5283   -5930.4113    2660.4814    16926.331    7.5050625 
    3350    1167.1846   -6060.6742   -5930.4729      1629.23    16925.056    7.5598521 
    3360     1165.758    -6060.504   -5930.4619   -30.941616    16924.726    7.6066673 
    3370    1170.3298   -6060.9397   -5930.3876    50.365552    16924.489    7.6430765 
    3380    1176.3236   -6061.4681   -5930.2474    791.29699    16924.326    7.6788859 
    3390    1168.1326   -6060.3525   -5930.0455    1377.6075    16924.632    7.7222967 
    3400    1170.2575   -6060.3175   -5929.7735    1488.1535    16925.725    7.7719514 
    3410     1195.796   -6062.8338   -5929.4409    1444.3298    16927.689    7.8275865 
    3420    1190.7874   -6061.9143   -5929.0801    2027.8393    16930.525    7.8856396 
    3430    1178.4982   -6060.1591   -5928.6959    2075.6235    16934.525    7.9332879 
    3440    1211.7691   -6063.4458   -5928.2712    976.89647    16939.658     7.966844 
    3450    1224.7365   -6064.4844   -5927.8632    1573.9947    16945.426    7.9963902 
    3460    1203.4542   -6061.7595   -5927.5124    2956.8193    16952.139    8.0308054 
    3470    1189.8603   -6059.9188   -5927.1881    2127.4373    16960.438    8.0595002 
    3480    1179.5194   -6058.4111   -5926.8339    1126.6679    16969.952    8.0809338 
    3490     1172.276    -6057.202   -5926.4328    1137.1266    16980.128    8.1064052 
    3500    1198.2201   -6059.6449   -5925.9816    688.46088    16990.877    8.1487387 
    3510    1229.1585   -6062.6352   -5925.5207    142.51063    17001.955    8.2136045 
    3520    1222.5278   -6061.4752   -5925.1004   -187.60291    17013.027    8.2867767 
    3530     1185.652    -6056.982   -5924.7207    299.81737    17023.949    8.3556569 
    3540    1184.0625   -6056.4145   -5924.3305    317.00666    17034.928    8.4198328 
    3550    1174.5195   -6054.9231   -5923.9037    900.88093    17046.061    8.4862662 
    3560    1160.6542    -6052.914   -5923.4413    1806.4346    17057.689    8.5602399 
    3570    1168.5847   -6053.2599   -5922.9025    1656.9774    17070.265    8.6359519 
    3580    1198.9522   -6056.0391   -5922.2942    1242.3974    17083.735    8.7040192 
    3590    1188.0002   -6054.1698   -5921.6466    1293.3326    17097.907    8.7658646 
    3600    1209.2186   -6055.8764   -5920.9863    -88.74591    17112.677    8.8190863 
    3610    1207.1721   -6054.9732   -5920.3113   -745.12401    17127.329    8.8690627 
    3620    1202.2193   -6053.7725   -5919.6631   -785.59911    17141.456    8.9181893 
    3630    1216.6931   -6054.7562   -5919.0323   -512.56289    17155.005    8.9673457 
    3640    1191.7153   -6051.3574   -5918.4197    475.47218     17168.18    9.0294066 
    3650    1175.4652    -6048.954   -5917.8291    691.27291    17181.483    9.1057188 
    3660    1160.5382   -6046.6498     -5917.19    1084.2868    17195.139    9.1823773 
    3670    1182.8678   -6048.4392   -5916.4885    995.24407    17209.331    9.2478911 
    3680    1172.5005   -6046.5195   -5915.7253    355.07211    17223.999    9.3071129 
    3690    1183.1492    -6046.895    -5914.913   -753.42601    17238.755    9.3679897 
    3700     1195.167   -6047.3735   -5914.0508   -1368.9681    17252.963    9.4359653 
    3710    1197.1236   -6046.7177   -5913.1767   -1366.6364    17266.254    9.5138663 
    3720    1228.1048   -6049.3044   -5912.3075   -2000.8844    17278.559    9.6036796 
    3730    1250.7963   -6051.0038   -5911.4756   -2890.7754    17289.503     9.689541 
    3740    1259.3092   -6051.2397   -5910.7619   -2674.3868    17298.625    9.7496114 
    3750    1259.1703   -6050.6605   -5910.1982   -1690.6207     17306.04    9.7902371 
    3760    1237.6428   -6047.8273   -5909.7664   -592.52503    17312.362    9.8216613 
    3770    1241.0937   -6047.8918   -5909.4459   -486.94501    17318.221    9.8457917 
    3780    1233.0705   -6046.7612   -5909.2103   -2060.0428    17323.613    9.8740536 
    3790    1196.3001   -6042.4818   -5909.0327   -3021.4261    17327.733    9.9112343 
    3800    1184.1612   -6040.9588   -5908.8638   -3375.0052    17329.979    9.9547363 
    3810     1216.223   -6044.3467   -5908.6752   -3740.4585    17330.093     10.01004 
    3820    1211.8134   -6043.6854   -5908.5058   -2116.7216    17327.987    10.077602 
    3830    1192.4721   -6041.3741   -5908.3521   -152.88774     17324.59    10.144897 
    3840    1212.4094   -6043.4478   -5908.2017    231.37318    17321.031       10.198 
    3850    1229.3163   -6045.2038   -5908.0717   -77.361574    17317.618    10.239897 
    3860    1239.8791   -6046.3319   -5908.0215   -865.59801    17314.159    10.285162 
    3870    1222.9167   -6044.4718   -5908.0536   -563.29795    17310.248    10.332571 
    3880    1190.4156   -6040.9141   -5908.1214    482.81543     17306.05    10.383802 
    3890    1199.0678   -6041.9415   -5908.1837   -14.595135    17302.099     10.44539 
    3900    1207.4245   -6042.9147   -5908.2247   -812.31157    17298.168    10.512348 
    3910    1221.4313   -6044.5511   -5908.2986   -841.20465    17293.792    10.583107 
    3920    1187.6416   -6040.8939   -5908.4107     103.9592    17288.972    10.653005 
    3930    1177.8703   -6039.8909   -5908.4976    246.70921    17284.193    10.710012 
    3940    1222.3495   -6044.9189    -5908.564   -807.09531    17279.522    10.746894 
    3950    1197.7264   -6042.2597   -5908.6515   -243.08592    17274.489    10.771028 
    3960    1181.7685   -6040.5589   -5908.7308    717.73544    17269.368    10.785367 
    3970    1236.1528   -6046.6882   -5908.7935   -167.47982    17264.606    10.792224 
    3980    1291.7464   -6053.0483   -5908.9521   -1309.6314    17259.749     10.79647 
    3990    1266.4458   -6050.5742   -5909.3003   -904.88551      17254.2    10.799192 
    4000    1242.1934   -6048.3825    -5909.814   -1075.1473    17248.058    10.804608 
    4010    1209.6814   -6045.3501   -5910.4083   -449.42844    17241.326    10.830027 
    4020    1188.7279   -6043.6196   -5911.0152    674.62125    17234.364    10.874764 
    4030    1219.8078   -6047.6718   -5911.6004    463.41881    17227.771    10.914703 
    4040    1250.2662   -6051.7297   -5912.2606   -93.883651    17221.458    10.947073 
    4050    1216.8585   -6048.7451   -5913.0027    731.67928     17215.21    10.976954 
    4060    1234.8362   -6051.5596   -5913.8118    350.03489    17209.373    11.003469 
    4070    1213.2051   -6050.0096   -5914.6748     382.2764    17203.813    11.036412 
    4080    1187.6845   -6048.0184   -5915.5304    503.89281    17198.495    11.076802 
    4090    1194.6094   -6049.6298   -5916.3693    262.01029    17193.477    11.119292 
    4100    1160.1016   -6046.5405   -5917.1294    741.29288    17188.697    11.162296 
    4110    1172.4426   -6048.5894   -5917.8016    243.09548    17184.316     11.19908 
    4120     1183.371   -6050.4176   -5918.4108   -908.09346     17180.07    11.230784 
    4130    1198.9378   -6052.7469   -5919.0036   -1969.6471    17175.282    11.258961 
    4140    1179.6935   -6051.1838   -5919.5872   -1273.8844    17169.399    11.286277 
    4150     1157.184   -6049.1928   -5920.1071   -444.04861    17162.768    11.312606 
    4160    1188.1326   -6053.0843   -5920.5463   -1153.3599    17155.793    11.337556 
    4170    1190.2894   -6053.7293   -5920.9507   -812.02096    17148.208    11.366319 
    4180    1182.9609    -6053.274   -5921.3129    64.123361    17140.192    11.398699 
    4190    1223.4894   -6058.1604   -5921.6784     6.184098    17132.178    11.430978 
    4200    1177.4039   -6053.3752    -5922.034    1689.5132    17124.329    11.467321 
    4210    1171.4956   -6053.0502   -5922.3681    2468.4697    17117.479    11.500816 
    4220    1157.7275   -6051.7667   -5922.6205    2476.8259     17112.14    11.533986 
    4230    1172.4994   -6053.6197   -5922.8256    1773.2344    17108.286     11.56443 
    4240    1198.6806   -6056.6907   -5922.9761    1021.8281    17105.533    11.583289 
    4250    1214.5404   -6058.6061   -5923.1223    759.23802    17103.451    11.596222 
    4260    1226.8827   -6060.1669   -5923.3063    240.60448    17101.821     11.61394 
    4270    1209.9415   -6058.5196   -5923.5488    339.86538    17100.371    11.653347 
    4280    1165.5197      -6053.8   -5923.7845    1409.5332    17099.207    11.723424 
    4290    1185.5968   -6056.2204   -5923.9653    1226.9329    17098.841    11.812143 
    4300     1182.553   -6056.0083   -5924.0928    807.83602    17099.218    11.902009 
    4310    1178.9982   -6055.7217   -5924.2027    883.96057    17100.121    11.967993 
    4320    1158.6004   -6053.4977   -5924.2541     1803.219    17101.645    12.000363 
    4330    1177.9561   -6055.6475   -5924.2447    1177.6114    17104.184      12.0086 
    4340     1216.255   -6059.8667   -5924.1917   -372.70437    17107.406    12.011275 
    4350    1202.7407   -6058.3145    -5924.147   -830.39456    17110.478    12.025229 
    4360    1192.3462   -6057.1263   -5924.1183   -1109.6239    17113.053    12.055276 
    4370    1187.5756   -6056.5441   -5924.0682    -1509.113    17114.946    12.100644 
    4380    1175.9575   -6055.1727   -5923.9929   -1437.5505    17115.944    12.169901 
    4390    1167.2203   -6054.0675   -5923.8624   -457.26556    17116.124    12.256447 
    4400    1173.5654   -6054.5788   -5923.6658    329.36633    17116.011    12.344658 
    4410    1187.1002    -6055.829   -5923.4062    640.24483    17116.083    12.430663 
    4420    1213.5336    -6058.493   -5923.1214    758.22376    17116.545    12.498233 
    4430    1222.9681   -6059.2721   -5922.8482     967.0917    17117.479    12.540135 
    4440    1223.2214   -6059.0831   -5922.6309    1581.0724    17119.039    12.567369 
    4450    1220.6369   -6058.6279    -5922.464    1586.7961    17121.539    12.594239 
    4460    1214.9089   -6057.8713   -5922.3464    1260.0037    17124.995    12.637474 
    4470    1189.0095     -6054.88   -5922.2442    876.96229    17129.235    12.699225 
    4480    1224.4143   -6058.7243   -5922.1391   -50.216534    17133.992    12.771162 
    4490    1225.1419   -6058.7317   -5922.0653   -533.16019    17138.758    12.857854 
    4500    1179.0147   -6053.5447   -5922.0239   -72.322288    17143.263    12.959879 
    4510    1131.4791   -6048.1473   -5921.9291    -63.87769    17147.713     13.04889 
    4520    1145.4152   -6049.4929   -5921.7201    -1350.454    17152.059    13.101401 
    4530    1160.5937   -6050.8498   -5921.3839   -1655.7184    17155.651    13.136177 
    4540    1183.5312   -6052.9876    -5920.963   -1418.6623    17158.262     13.17501 
    4550    1208.3617    -6055.282   -5920.4874    -1256.254    17160.019    13.222365 
    4560    1200.9208   -6053.9687   -5920.0042   -788.93801    17161.048    13.280698 
    4570    1183.8237   -6051.5903    -5919.533   -342.20404    17161.592    13.343583 
    4580    1188.7606   -6051.6418   -5919.0338    125.45628    17161.937     13.40317 
    4590    1225.9851   -6055.2707   -5918.5103   -349.74996    17162.297     13.46166 
    4600    1209.7705   -6052.9678    -5918.016   -593.50192    17162.474    13.531053 
    4610    1189.5499   -6050.2542   -5917.5581   -1633.7491    17162.236    13.606149 
    4620    1191.3199   -6049.9799   -5917.0864   -3046.9489    17160.972    13.663943 
    4630    1199.0232   -6050.3475   -5916.5947   -3317.8123     17157.88    13.696955 
    4640    1214.4965   -6051.5745   -5916.0955     -2729.69    17152.746     13.72385 
    4650    1208.9458   -6050.4659   -5915.6062   -1331.7078    17145.948    13.762967 
    4660     1243.674   -6053.8936   -5915.1599   -686.42949    17138.229    13.817885 
    4670    1246.3755   -6053.8002   -5914.7651    427.12736    17130.082    13.887125 
    4680    1227.6558   -6051.4238    -5914.477    1529.6728    17122.158    13.964372 
    4690    1230.2734   -6051.4987   -5914.2599    1966.8199    17115.096    14.026166 
    4700    1235.0859   -6051.8827    -5914.107    1099.6841    17109.114    14.060694 
    4710    1248.8942   -6053.3698   -5914.0538    172.70834    17103.777    14.092807 
    4720    1236.2595    -6052.001   -5914.0944    502.29687    17098.613    14.145766 
    4730    1223.6954   -6050.7379   -5914.2328    944.19708    17093.725    14.215603 
    4740    1206.3537   -6048.9874   -5914.4169    1147.9073    17089.372    14.292651 
    4750    1195.3472   -6047.9675   -5914.6247    913.86659    17085.654    14.367972 
    4760    1174.8874    -6045.881   -5914.8205     1813.156    17082.536    14.444409 
    4770    1169.2486   -6045.3878   -5914.9564     2127.662    17080.467    14.533312 
    4780    1186.9571   -6047.4563   -5915.0494    2160.5806    17079.662    14.635828 
    4790    1171.5817    -6045.794   -5915.1023     2792.351    17080.217    14.740805 
    4800    1185.8562   -6047.4056   -5915.1216    2844.9617    17082.462    14.831315 
    4810     1197.486    -6048.686   -5915.1047    2543.1465    17086.456    14.903843 
    4820    1200.7849   -6049.0278   -5915.0784    2546.6121    17092.092    14.965571 
    4830    1211.7432   -6050.2364   -5915.0646    2452.1729    17099.352    15.019868 
    4840    1196.1928   -6048.4981    -5915.061    2324.4451    17108.208    15.065738 
    4850    1190.7437   -6047.8862   -5915.0569    1524.2454    17118.562    15.107801 
    4860    1200.5038   -6048.9386   -5915.0206    910.19147    17129.997    15.153094 
    4870    1217.9419   -6050.8521   -5914.9888    774.76014    17142.143     15.20087 
    4880    1232.4468   -6052.4732   -5914.9919    641.14151    17154.925    15.235829 
    4890    1241.3221   -6053.5461   -5915.0747    466.46017    17168.269    15.255811 
    4900    1211.2981   -6050.3634   -5915.2412    157.40771     17182.06     15.28204 
    4910    1186.0663   -6047.7361   -5915.4287   -590.66012    17196.093    15.337355 
    4920    1191.6967   -6048.5367   -5915.6011    -1814.881     17209.89    15.422584 
    4930    1196.4885   -6049.2208   -5915.7507   -2296.3501    17222.777    15.513682 
    4940    1193.6029   -6049.0496   -5915.9014   -1945.3135    17234.436    15.596078 
    4950    1200.3562   -6049.9595   -5916.0579   -2062.7705    17244.979    15.668879 
    4960    1204.1343   -6050.5465   -5916.2235   -1985.3792    17254.378    15.734309 
    4970    1195.7645     -6049.79   -5916.4007   -2083.4024     17262.63    15.804394 
    4980    1195.9439   -6049.9952   -5916.5858   -2231.1968    17269.673    15.876177 
    4990    1179.3402   -6048.3242   -5916.7671   -1808.3607    17275.432    15.951139 
    5000    1158.8279   -6046.1836   -5916.9146   -764.03197    17280.174     16.03707 
Loop time of 1973.55 on 16 procs for 3000 steps with 864 atoms

Performance: 0.131 ns/day, 182.736 hours/ns, 1.520 timesteps/s
95.1% CPU use with 16 MPI tasks x 1 OpenMP threads

MPI task timing breakdown:
Section |  min time  |  avg time  |  max time  |%varavg| %total
---------------------------------------------------------------
Pair    | 1435.6     | 1698.3     | 1937.1     | 349.1 | 86.05
Bond    | 0.0004034  | 0.00084111 | 0.0017276  |   0.0 |  0.00
Neigh   | 0.043097   | 0.048164   | 0.058162   |   2.0 |  0.00
Comm    | 32.694     | 215.04     | 451.21     | 882.2 | 10.90
Output  | 0.16643    | 0.16902    | 0.20679    |   2.4 |  0.01
Modify  | 2.4634     | 59.973     | 143.11     | 701.4 |  3.04
Other   |            | 0.01652    |            |       |  0.00

Nlocal:        54.0000 ave          62 max          47 min
Histogram: 2 0 2 2 3 2 2 0 2 1
Nghost:        546.188 ave         597 max         506 min
Histogram: 2 1 3 3 1 1 2 0 2 1
Neighs:         0.00000 ave           0 max           0 min
Histogram: 16 0 0 0 0 0 0 0 0 0
FullNghs:      2720.75 ave        3528 max        2148 min
Histogram: 2 0 5 2 0 3 2 1 0 1

Total # of neighbors = 43532
Ave neighs/atom = 50.384259
Ave special neighs/atom = 0.0000000
Neighbor list builds = 300
Dangerous builds = 300
Setting up Verlet run ...
  Unit style    : metal
  Current step  : 5000
  Time step     : 0.001
Per MPI rank memory allocation (min/avg/max) = 8.909 | 8.912 | 8.918 Mbytes
Step Temp PotEng TotEng Press Volume c_msd[4] 
    5000    1158.8279   -6046.1836   -5916.9146   -764.03197    17280.174     16.03707 
    5010    1159.9462   -6046.2648    -5916.871   -356.20452    17279.995    16.129337 
    5020     1157.818   -6045.8909   -5916.7346   -926.69203    17279.543    16.227674 
    5030    1163.9172   -6046.3416   -5916.5049   -2141.2172    17278.486     16.31195 
    5040    1211.2215   -6051.3204   -5916.2068   -3391.7316    17276.085    16.377955 
    5050    1221.2049   -6052.1269   -5915.8996    -2443.234    17271.704    16.441376 
    5060    1194.5647   -6048.8674   -5915.6119    132.66893    17265.879    16.506141 
    5070    1197.4364   -6048.8837   -5915.3079    1613.1763    17260.058    16.573215 
    5080    1216.4318    -6050.673   -5914.9782    1241.2199    17255.139    16.647418 
    5090    1232.2435   -6052.1205   -5914.6619    64.295615    17250.939    16.730853 
    5100    1226.0948   -6051.1525   -5914.3798   -603.79434    17246.807     16.82082 
    5110    1213.2087   -6049.4759   -5914.1406   -1095.1861     17242.29    16.907387 
    5120    1205.4068   -6048.3727   -5913.9077   -1366.1851    17237.094    16.983496 
    5130    1244.6282   -6052.5258   -5913.6856   -1541.7621     17231.03    17.051482 
    5140    1230.9089   -6050.7971   -5913.4873    345.51291    17224.143    17.107069 
    5150    1212.2355   -6048.5707    -5913.344     1711.141    17217.412    17.141578 
    5160    1214.5407   -6048.6811   -5913.1973    1656.6505    17211.645    17.171331 
    5170    1240.3694   -6051.4267   -5913.0616    1442.4958    17206.884    17.216696 
    5180    1221.8204   -6049.2778   -5912.9819    910.78838    17202.988     17.27524 
    5190    1208.3303   -6047.7532   -5912.9622    33.828091    17199.625    17.337435 
    5200    1179.5759   -6044.5313   -5912.9479     731.9991    17196.368    17.399263 
    5210    1174.3232   -6043.8854   -5912.8878    1933.9483    17193.585    17.456436 
    5220    1184.9612   -6044.9294   -5912.7452    2599.1941    17191.958     17.49939 
    5230    1208.1913   -6047.3257   -5912.5501    2448.2282    17191.888    17.527443 
    5240    1172.3316   -6043.0906   -5912.3152    2276.2716    17193.348    17.548558 
    5250    1173.8497   -6042.9772   -5912.0325     1493.155    17196.188    17.568518 
    5260    1195.0637   -6044.9593   -5911.6482    652.62899    17199.987    17.591934 
    5270    1202.4176   -6045.3301   -5911.1986    419.48729    17204.255    17.620421 
    5280    1220.2387   -6046.8191   -5910.6997    298.02636    17208.826    17.659719 
    5290    1254.0013   -6050.0977    -5910.212   -74.918414    17213.586    17.714243 
    5300    1229.4274   -6046.9321   -5909.7876    618.01315    17218.388    17.781954 
    5310    1198.5249   -6043.1227   -5909.4255    1617.1027    17223.626    17.844197 
    5320    1207.5001   -6043.7517   -5909.0533     1183.688    17229.822    17.888311 
    5330    1237.8838    -6046.767   -5908.6792    207.11938    17236.785    17.912518 
    5340     1250.683   -6047.8922   -5908.3766   -860.83554    17243.923    17.928494 
    5350    1236.2016   -6046.0666   -5908.1665   -1685.1824    17250.583     17.95622 
    5360    1228.9054   -6045.1045   -5908.0182    -2101.717    17256.258    18.011529 
    5370    1250.0442   -6047.3753    -5907.931   -2307.6988    17260.655     18.08344 
    5380    1273.4081   -6049.9966    -5907.946   -2122.7105    17263.664    18.151468 
    5390    1282.6648   -6051.2469   -5908.1637   -1641.8594    17265.368    18.204135 
    5400    1231.2732   -6045.9298   -5908.5794   -310.81381    17266.106    18.248273 
    5410    1200.9876    -6043.085   -5909.1131    284.95611    17266.632    18.282005 
    5420    1200.8463   -6043.6474   -5909.6912   -708.56667    17267.256    18.301429 
    5430    1193.5531   -6043.4112   -5910.2686   -1839.0838    17267.439    18.313299 
    5440    1183.5137   -6042.8634   -5910.8407   -2005.1507    17266.541    18.325332 
    5450    1194.4569   -6044.6583   -5911.4149   -2236.2881    17264.389    18.341809 
    5460    1212.1582   -6047.2235   -5912.0054   -2622.9796    17260.828    18.359877 
    5470    1201.8716   -6046.6915   -5912.6209   -2311.2262    17255.648    18.369072 
    5480    1181.2528   -6044.9952   -5913.2246   -1590.8827    17249.035    18.373808 
    5490    1202.1728   -6047.9235   -5913.8193   -1605.6338    17241.371    18.395511 
    5500    1209.1632   -6049.3085   -5914.4245   -1426.3872    17232.696     18.43629 
    5510    1191.8665   -6048.0113   -5915.0568   -904.64954    17223.124    18.477731 
    5520    1200.0537   -6049.5664   -5915.6986   -996.01187    17212.923    18.523144 
    5530    1195.7104   -6049.7314   -5916.3481   -715.46347    17202.102     18.57996 
    5540    1165.0838   -6046.9394   -5916.9725   -248.13926    17190.818    18.640487 
    5550     1150.459   -6045.8332   -5917.4978   -576.14604    17179.313    18.696391 
    5560     1158.462   -6047.1473   -5917.9191   -1098.6624    17167.419    18.749133 
    5570    1159.5165   -6047.5941   -5918.2482   -1082.8048    17154.852    18.798035 
    5580    1185.8791   -6050.8062   -5918.5196   -885.06628    17141.594    18.841445 
    5590    1189.1855   -6051.4051   -5918.7497   -84.577173    17127.797    18.885685 
    5600     1167.255   -6049.1573   -5918.9483    1028.6659     17113.92    18.946615 
    5610    1163.8643   -6048.9005   -5919.0697    1058.3196    17100.574    19.022233 
    5620    1193.8672   -6052.3116   -5919.1339    303.68938    17087.799    19.100701 
    5630    1214.5004   -6054.6574    -5919.178    376.40698    17075.229    19.164118 
    5640    1222.9046   -6055.6795   -5919.2627    645.92238    17062.848     19.20988 
    5650     1190.015   -6052.1282   -5919.3803    1485.4567    17050.861    19.248044 
    5660    1175.9104   -6050.6759   -5919.5014    1738.9925    17039.705    19.290683 
    5670    1174.6367   -6050.6229   -5919.5904    1429.9056    17029.537     19.35363 
    5680     1182.902   -6051.5814   -5919.6269     1010.512    17020.201    19.433653 
    5690    1215.1978   -6055.2209   -5919.6637     1138.113    17011.473    19.524437 
    5700    1217.9723   -6055.5927    -5919.726    1338.1235    17003.407    19.618169 
    5710     1200.876   -6053.8015   -5919.8419    1027.6401    16996.094    19.703578 
    5720    1220.4842   -6056.1733   -5920.0265    511.09075    16989.358    19.757573 
    5730     1232.686   -6057.8046   -5920.2966    387.09949    16982.931     19.77688 
    5740    1250.5498   -6060.2424   -5920.7417    1003.0789    16976.736    19.776061 
    5750    1236.2131   -6059.2987   -5921.3973    2273.7229    16971.148    19.779538 
    5760    1211.7653   -6057.4171   -5922.2428    3797.2409    16966.931    19.793545 
    5770    1202.8117   -6057.4077   -5923.2322    4573.9946    16964.932    19.823043 
    5780    1185.5379   -6056.5434   -5924.2949    4666.7436    16965.655    19.870977 
    5790    1174.3485   -6056.3678   -5925.3675    4007.2107    16969.164    19.924781 
    5800    1165.3781   -6056.3909   -5926.3912    3307.0444    16975.139    19.974887 
    5810    1153.3919   -6055.9693   -5927.3067    2688.2962    16983.177    20.031173 
    5820    1163.5851   -6057.9009   -5928.1012    2117.5988    16992.907    20.094703 
    5830     1154.977   -6057.6071   -5928.7677    1224.3022     17003.98    20.154239 
    5840    1132.7523   -6055.6469   -5929.2867     678.1398    17015.917    20.205709 
    5850     1139.252   -6056.7547   -5929.6694    229.76675    17028.364    20.267886 
    5860    1136.3106   -6056.6744   -5929.9172    337.69679    17041.096    20.353482 
    5870    1141.8439   -6057.4109   -5930.0365   -131.08212    17054.105    20.455467 
    5880     1154.003   -6058.7509   -5930.0202   -889.46631    17067.129    20.569499 
    5890    1155.4019   -6058.7927   -5929.9059   -567.42618    17079.765    20.688904 
    5900    1120.8901   -6054.7077   -5929.6707    732.81064    17092.214     20.80381 
    5910    1133.7245   -6055.7516    -5929.283     349.9726    17105.103    20.907657 
    5920    1171.6576   -6059.4192   -5928.7191   -775.72111     17118.28    21.011607 
    5930    1196.9597   -6061.5931   -5928.0704    -1522.681    17131.088      21.1318 
    5940    1194.1326   -6060.6027   -5927.3954   -1471.2858    17143.098    21.257048 
    5950    1190.2524   -6059.5088   -5926.7343   -1822.5381    17154.236    21.365787 
    5960    1153.9983   -6054.7796   -5926.0493   -1646.4978    17164.352    21.449764 
    5970    1158.6073   -6054.5442   -5925.2998   -1684.8129    17173.485    21.501353 
    5980    1179.5467   -6056.0288   -5924.4486   -1170.6214    17181.658    21.522831 
    5990    1190.9203   -6056.4276   -5923.5787   -1029.9414    17189.114    21.524239 
    6000     1187.232    -6055.167   -5922.7294   -1141.5893    17195.948    21.511814 
    6010    1188.8846   -6054.5526   -5921.9308    -1960.187     17202.04    21.504691 
    6020    1185.6282   -6053.4194   -5921.1607    -2773.678    17206.949    21.528711 
    6030    1171.5869   -6051.1221   -5920.4298    -3104.991    17210.171     21.57823 
    6040    1164.8555   -6049.6763   -5919.7349   -2520.9324    17211.525    21.632252 
    6050    1163.0056   -6048.7951     -5919.06   -1250.6481     17211.37    21.691907 
    6060    1160.7048    -6047.871   -5918.3926   -409.97428    17210.409    21.761347 
    6070     1157.207   -6046.8209   -5917.7327   -57.562861    17209.164    21.837928 
    6080    1188.0968   -6049.6213   -5917.0873   -1100.2799    17207.815    21.917728 
    6090    1194.2016   -6049.7036   -5916.4886   -2039.2995    17205.802    21.998384 
    6100    1190.6274   -6048.7861   -5915.9698    -1842.166     17202.59    22.072572 
    6110    1216.0461   -6051.1726   -5915.5208   -1318.7591    17198.257    22.131759 
    6120    1195.3349   -6048.4684    -5915.127   -251.36103    17193.147    22.182644 
    6130    1215.4082   -6050.3656    -5914.785   -245.81486    17187.845     22.22298 
    6140    1234.4342   -6052.1969   -5914.4939   -826.03976    17182.372    22.250587 
    6150    1207.7036   -6049.0106   -5914.2895   -300.85036    17176.483    22.266846 
    6160    1198.4104   -6047.8048   -5914.1203   -20.663039    17170.413    22.272183 
    6170    1189.8996      -6046.7   -5913.9649    1094.0284    17164.395    22.281716 
    6180     1181.701   -6045.5968   -5913.7763    1911.4933    17159.051    22.314884 
    6190    1200.2742   -6047.4607   -5913.5683    1603.4869     17154.83    22.367368 
    6200    1223.9478    -6049.904   -5913.3708    1425.2721    17151.623    22.414141 
    6210    1227.7331   -6050.1785   -5913.2231    1388.3789    17149.313    22.454536 
    6220    1244.8331    -6052.014    -5913.151      997.327    17147.842    22.496359 
    6230    1262.1184   -6053.9787   -5913.1875    903.52541    17147.017    22.541347 
    6240     1264.433   -6054.4168   -5913.3675    1309.3063    17146.773    22.590178 
    6250    1250.2705   -6053.1598   -5913.6903    1656.1251    17147.331    22.634702 
    6260    1256.7622   -6054.3531   -5914.1593    1487.7827    17148.869    22.673908 
    6270    1226.0251    -6051.519    -5914.754    1807.2435    17151.349    22.723373 
    6280    1212.4229   -6050.6744   -5915.4268    1359.2283    17154.886    22.782591 
    6290    1215.4421    -6051.726   -5916.1416    506.34695    17159.233    22.833328 
    6300    1202.0527   -6050.9771   -5916.8864    747.89318    17163.966    22.861071 
    6310    1208.6388   -6052.4647   -5917.6392    7.5467081    17169.107    22.875802 
    6320    1222.2495     -6054.76   -5918.4162   -1622.8136    17174.203    22.898678 
    6330    1201.1004   -6053.1937   -5919.2091    -1685.002    17178.398    22.945547 
    6340    1191.3167   -6052.8749   -5919.9817   -1057.9232    17181.573    23.003898 
    6350    1160.7875    -6050.154   -5920.6664    -293.4879     17184.11    23.057415 
    6360    1166.6864   -6051.3918   -5921.2462   -73.895887    17186.431    23.091052 
    6370    1147.4119   -6049.6878   -5921.6922    716.27874    17188.776    23.107632 
    6380     1165.332   -6052.0091   -5922.0146   -150.38961    17191.458    23.139571 
    6390    1177.5343   -6053.5913   -5922.2355    -511.8536    17194.088    23.198399 
    6400    1151.2022   -6050.7858   -5922.3675    901.41006    17196.514    23.262537 
    6410    1175.6647   -6053.5648   -5922.4176    1319.6987    17199.439    23.326085 
    6420    1191.3691   -6055.3028   -5922.4038    120.91936    17203.098    23.391342 
    6430    1188.0576   -6054.9004   -5922.3708   -430.12214    17206.888    23.441104 
    6440    1162.6916   -6052.0097   -5922.3097    1155.1332    17210.561    23.468321 
    6450    1164.3569   -6052.0761   -5922.1903    2161.8726    17214.932     23.48079 
    6460     1204.692   -6056.4039   -5922.0187    1353.8396    17220.575    23.491821 
    6470    1200.9203   -6055.8218   -5921.8573     170.0959     17227.08    23.514165 
    6480    1182.6735   -6053.6375   -5921.7085   -824.19435    17233.748    23.551461 
    6490    1180.9161   -6053.2797   -5921.5467   -1660.0261    17239.949      23.6068 
    6500    1173.9864   -6052.3192   -5921.3593   -2368.3476    17245.159    23.674679 
    6510    1174.8058   -6052.2014     -5921.15   -2863.6084    17248.931    23.743487 
    6520    1165.8116   -6050.9573   -5920.9093   -3002.0834    17250.967    23.800741 
    6530    1163.1509    -6050.387   -5920.6358   -3877.6129    17251.091    23.833966 
    6540    1178.2356    -6051.766   -5920.3321    -4710.511    17248.798    23.841311 
    6550    1197.8225   -6053.6636   -5920.0447   -3580.1301    17243.652    23.834899 
    6560     1140.134   -6046.9352   -5919.7515   -71.258793      17236.4    23.822872 
    6570    1171.1294   -6050.0571   -5919.4159   -236.85143    17228.816     23.81183 
    6580    1218.0001   -6054.9389   -5919.0692   -1539.3522    17220.976    23.809081 
    6590    1186.1925   -6051.0996   -5918.7781   -674.53095     17212.26    23.816166 
    6600    1180.7345   -6050.2274   -5918.5147   -278.22071    17203.018    23.817373 
    6610    1210.4651   -6053.2769   -5918.2477   -338.37959    17193.502    23.800602 
    6620    1209.5145   -6052.9462    -5918.023    832.19848    17183.779    23.775371 
    6630    1160.7619   -6047.2959   -5917.8112    2528.6741    17174.533    23.760436 
    6640    1178.9204   -6049.0725   -5917.5622    1936.0997    17166.644    23.765053 
    6650    1229.6611   -6054.4655    -5917.295    560.59397    17159.851    23.796423 
    6660    1218.3293   -6053.0109   -5917.1045     1458.067    17153.478    23.849234 
    6670    1173.3168   -6047.8335   -5916.9483    3450.4199    17148.027    23.900354 
    6680    1205.6677   -6051.2832   -5916.7891    3602.8719    17144.546    23.941189 
    6690    1215.9979   -6052.2649   -5916.6185    3230.7332    17143.244    23.982663 
    6700    1235.5837    -6054.341   -5916.5098    2483.8049    17143.887    24.040523 
    6710     1236.254   -6054.3826   -5916.4766    2353.3758    17146.118    24.116387 
    6720    1213.1324   -6051.8506   -5916.5239    2552.0789    17149.867    24.193614 
    6730    1180.6943   -6048.3078   -5916.5995    2309.6416     17155.23    24.258667 
    6740    1178.7944   -6048.1421   -5916.6458    1663.7714    17162.089    24.332805 
    6750    1219.1815   -6052.6659   -5916.6644    620.56975    17170.046    24.433099 
    6760    1211.0202   -6051.7882   -5916.6971    556.12127    17178.571    24.544966 
    6770    1174.1922   -6047.7282   -5916.7453    868.12528    17187.584    24.640736 
    6780    1172.2252   -6047.5203   -5916.7568    933.29863    17197.253    24.714448 
    6790    1167.7201   -6046.9519    -5916.691    739.45755    17207.633    24.778735 
    6800    1178.5986   -6048.0352   -5916.5608   -30.287002      17218.6    24.845959 
    6810    1198.6588   -6050.0886   -5916.3764   -739.27217    17229.723    24.912304 
    6820    1193.0437   -6049.2384   -5916.1526   -537.81841    17240.611    24.977129 
    6830    1186.6955   -6048.2556   -5915.8779    145.07233    17251.377    25.049977 
    6840    1210.2365   -6050.5471   -5915.5434   -455.02935     17262.35    25.131918 
    6850    1231.3923   -6052.5272   -5915.1636   -1746.5604    17273.183    25.209477 
    6860    1193.6352   -6047.9086   -5914.7568   -1622.3395    17283.179    25.271838 
    6870    1199.3518   -6048.0891   -5914.2996   -1401.5243    17292.306    25.323375 
    6880    1212.0345   -6048.9474   -5913.7431   -1315.5385    17300.681    25.372412 
    6890    1184.1764   -6045.1731   -5913.0764   -1289.1966    17308.349    25.416376 
    6900    1202.8319   -6046.4296   -5912.2519    -2197.258    17315.261    25.455476 
    6910    1239.5597   -6049.5214   -5911.2467   -2793.9469    17320.909    25.507514 
    6920    1219.5231   -6046.2051   -5910.1655   -1743.5512    17324.973    25.586042 
    6930    1214.2148   -6044.5221   -5909.0746   -901.65375    17327.985    25.671627 
    6940     1252.514     -6047.67   -5907.9502   -1076.8612    17330.413    25.749682 
    6950    1231.8257   -6044.2991   -5906.8871   -899.56879    17332.209    25.821582 
    6960    1195.4387   -6039.2779   -5905.9249   -768.24712    17333.474    25.891077 
    6970    1205.5763   -6039.4786   -5904.9948   -1161.9698    17334.235    25.970133 
    6980    1181.2859   -6035.8514   -5904.0772   -329.20768     17334.37    26.060985 
    6990    1177.2679   -6034.5347   -5903.2087   -15.374712    17334.259    26.144184 
    7000    1211.1398   -6037.4643   -5902.3599   -369.69813    17334.126    26.201875 
    7010    1251.7561   -6041.2052   -5901.5699   -1268.0263    17333.724    26.229963 
    7020    1256.9827   -6041.1639   -5900.9456   -347.97742    17332.631    26.241988 
    7030    1236.8659   -6038.4781   -5900.5039    1034.0638    17331.335    26.253699 
    7040     1231.892   -6037.6092   -5900.1898    1054.1483    17330.608    26.270884 
    7050     1264.653   -6041.0594   -5899.9854    196.39958      17330.5    26.290257 
    7060    1239.3375   -6038.1576   -5899.9077    237.49048    17330.591    26.319503 
    7070    1233.8549   -6037.5918   -5899.9535    164.65638    17330.828    26.369404 
    7080    1225.3545   -6036.7582    -5900.068    536.73547    17331.212    26.434938 
    7090    1237.6733   -6038.3084   -5900.2441    575.24161    17331.907    26.494643 
    7100    1236.9867   -6038.4856   -5900.4979    756.21627    17332.997    26.536923 
    7110    1240.9905   -6039.2603   -5900.8259    762.40046    17334.586    26.572308 
    7120    1238.3801   -6039.3727   -5901.2295    186.10247    17336.651    26.626986 
    7130    1231.8823   -6039.1241   -5901.7058    431.22061    17338.922    26.706057 
    7140    1237.9267   -6040.3393   -5902.2467    654.04562    17341.492    26.796478 
    7150     1239.482   -6041.1215   -5902.8554    674.92791     17344.52    26.897269 
    7160    1222.8763   -6039.9318   -5903.5181    525.07766    17348.029    27.012269 
    7170    1204.7595   -6038.5915   -5904.1987    221.91916    17351.918    27.134319 
    7180    1199.6762   -6038.6719   -5904.8462    309.15149    17356.048    27.240009 
    7190    1214.1864   -6040.9166   -5905.4722    90.608807    17360.429    27.304007 
    7200    1208.6959   -6040.8979    -5906.066   -31.044805    17364.969    27.330824 
    7210     1232.756   -6044.1852   -5906.6694   -442.58569    17369.542    27.361347 
    7220    1199.4237   -6041.0493   -5907.2518    334.20891    17373.997    27.420211 
    7230    1156.5492   -6036.7625   -5907.7477    1373.2706    17378.779    27.502814 
    7240    1170.9127   -6038.7296   -5908.1126     979.9197    17384.461    27.586477 
    7250    1189.1521   -6041.0361   -5908.3844    64.302249    17390.858    27.653135 
    7260    1159.3166   -6037.9012   -5908.5777    108.36876    17397.492    27.725044 
    7270    1151.6401   -6037.1444   -5908.6772    283.69524    17404.344    27.803453 
    7280    1143.8623   -6036.2526    -5908.653    774.03019    17411.562    27.876215 
    7290    1139.6904   -6035.6614   -5908.5272    1224.5408    17419.432    27.951348 
    7300    1142.9965   -6035.8013   -5908.2983    998.02998    17428.228     28.03657 
    7310    1160.6191    -6037.448   -5907.9792    574.14438    17437.887    28.122615 
    7320    1178.6348   -6039.0992   -5907.6208    -640.6777    17448.091    28.196791 
    7330    1190.9423   -6040.1082   -5907.2568   -1649.4349    17458.139    28.251348 
    7340     1190.985   -6039.7638   -5906.9076   -1545.6225    17467.438    28.277157 
    7350    1191.5064   -6039.4984   -5906.5841   -969.89988    17475.982    28.272505 
    7360    1197.4482    -6039.853   -5906.2759   -584.43456     17484.09    28.271904 
    7370    1188.0767   -6038.5248    -5905.993   -735.15705    17491.995     28.31182 
    7380    1176.9663   -6037.0009   -5905.7085   -926.67548    17499.629    28.393975 
    7390    1179.9308   -6037.0309   -5905.4078   -1203.3679    17506.842    28.491759 
    7400    1174.5857   -6036.1157   -5905.0889   -1123.9973    17513.484    28.573614 
    7410     1157.931   -6033.9144   -5904.7454   -1075.2113    17519.556    28.631711 
    7420    1178.3601   -6035.8062   -5904.3583   -1296.7769    17525.071    28.667089 
    7430    1177.8437   -6035.3219   -5903.9316   -928.00388    17529.939    28.684907 
    7440    1187.2933   -6035.9361   -5903.4917   -1084.5549    17534.307    28.701576 
    7450    1206.2773   -6037.6114   -5903.0494   -2249.1897    17538.026    28.736443 
    7460    1185.7055   -6034.9035   -5902.6362   -2987.0377     17540.42    28.801301 
    7470    1195.6558   -6035.6094   -5902.2322    -4344.872    17540.883    28.885789 
    7480    1206.4039   -6036.4225   -5901.8463   -4720.4674    17538.576    28.969454 
    7490    1166.1679   -6031.5718    -5901.484    -3098.843    17533.254    29.044975 
    7500    1181.1071    -6032.855   -5901.1008   -2322.9954    17525.721    29.113598 
    7510    1224.7483   -6037.3158   -5900.6933   -2046.2611    17516.477    29.204335 
    7520    1229.4616   -6037.4884   -5900.3401   -1149.3421    17505.713    29.336716 
    7530    1224.0258    -6036.606   -5900.0641   -819.37011    17493.894    29.454552 
    7540    1222.6998   -6036.2561   -5899.8621   -776.26558    17481.233    29.501839 
    7550    1233.7194   -6037.3509   -5899.7277   -496.86362    17467.764    29.491619 
    7560    1215.5674   -6035.2515   -5899.6532    1148.1394    17453.746    29.463002 
    7570    1184.5153   -6031.7349   -5899.6005    3035.0013    17440.132    29.447667 
    7580    1184.9263    -6031.685   -5899.5047    4053.9886    17428.106    29.471923 
    7590    1206.8281    -6034.006   -5899.3825    3360.6395    17418.307    29.527462 
    7600    1199.1155   -6033.0362   -5899.2731    2400.4273    17410.442    29.604223 
    7610     1223.232   -6035.6358   -5899.1824     754.3559    17403.898    29.704388 
    7620     1266.527   -6040.4426   -5899.1596   -1088.1703     17397.66    29.799306 
    7630    1246.1504   -6038.2801   -5899.2702    -1421.022    17390.669    29.874978 
    7640    1228.8359   -6036.5877   -5899.5093   -1332.2133    17382.626    29.928924 
    7650    1232.2049   -6037.2969   -5899.8426   -926.90309    17373.562    29.964754 
    7660    1234.7825   -6037.9945   -5900.2527    -83.43505    17363.735    29.986007 
    7670    1260.7946   -6041.4696    -5900.826   -280.55948    17353.544    29.994215 
    7680    1236.3315   -6039.4839   -5901.5692    529.41929    17343.028    30.008194 
    7690    1225.8904   -6039.2514   -5902.5014    1341.8879    17332.599    30.034195 
    7700     1210.465   -6038.6315   -5903.6023    1918.4173    17322.779    30.073053 
    7710    1191.7218   -6037.7909   -5904.8526    2490.0271    17313.968    30.126466 
    7720    1172.4582   -6036.9387   -5906.1492    2569.8119    17306.524    30.189544 
    7730    1192.2138   -6040.4664   -5907.4731    1662.6661     17300.49    30.245516 
    7740    1177.7409   -6040.1077   -5908.7289    1938.5832    17295.477    30.286427 
    7750    1204.6203   -6044.2725   -5909.8953    1340.5329    17291.515    30.311215 
    7760    1201.1646   -6044.9225   -5910.9308    681.12452    17288.338     30.32348 
    7770    1189.6191   -6044.4867   -5911.7829   -368.90533    17285.514    30.330196 
    7780    1196.1212   -6045.8844   -5912.4553    -1904.726    17282.376    30.335978 
    7790    1172.9728   -6043.7951   -5912.9482    -1750.413    17278.089    30.334844 
    7800    1179.4498   -6044.8514    -5913.282   -1718.6289    17272.612    30.315183 
    7810    1209.6389   -6048.4675   -5913.5304   -2341.8282    17265.915    30.276701 
    7820    1194.9331   -6047.0342   -5913.7376    -1693.154    17257.716    30.227586 
    7830    1200.2728   -6047.7811   -5913.8888   -957.83873    17248.332    30.160832 
    7840    1229.3955   -6051.1517   -5914.0108   -626.66981     17238.18    30.105415 
    7850    1223.3692    -6050.619   -5914.1503    75.155415    17227.525    30.111956 
    7860    1247.3775   -6053.5032   -5914.3563    490.70433    17216.755    30.184838 
    7870    1236.7105   -6052.5863   -5914.6294    1552.4765    17206.211     30.29803 
    7880    1230.2487   -6052.2363   -5915.0002    1870.8756    17196.451    30.417458 
    7890    1195.0605   -6048.6958    -5915.385    2285.9528     17187.77    30.519713 
    7900    1173.7138   -6046.6477   -5915.7182    2705.5182    17180.425    30.558897 
    7910    1175.1309   -6047.0822   -5915.9946    3155.0207    17174.707    30.519252 
    7920     1180.603   -6047.9091   -5916.2111    3243.1449    17170.891    30.465023 
    7930    1197.2081   -6049.9302   -5916.3799    3102.3778    17169.051    30.466999 
    7940    1198.0121   -6050.1877   -5916.5476    2847.0122    17169.115    30.531347 
    7950    1185.0699   -6048.9257   -5916.7294    1861.3186    17170.903    30.626009 
    7960    1184.0792   -6048.9907   -5916.9048    1019.4518     17173.87     30.73784 
    7970    1164.7327   -6046.9639   -5917.0362    1022.4591    17177.533    30.860666 
    7980    1152.0825   -6045.5995   -5917.0829    1370.6307    17181.887    30.980843 
    7990    1161.8931   -6046.6441   -5917.0332    1547.2963    17187.109    31.087207 
    8000    1159.0023   -6046.1797   -5916.8913    2043.1618    17193.362    31.183117 
    8010    1179.3315   -6048.2168   -5916.6606    1396.8647    17200.853    31.281053 
    8020    1197.4205   -6049.9425   -5916.3685    973.26737    17209.263    31.381786 
    8030    1188.3053   -6048.6086   -5916.0513    1367.7044    17218.365    31.474357 
    8040    1185.6985   -6047.9531   -5915.6866    1739.8256    17228.354    31.549584 
    8050    1195.8417   -6048.6623   -5915.2644     2352.724    17239.501     31.60059 
    8060     1191.539   -6047.7113   -5914.7934    2685.7895    17252.158    31.622633 
    8070    1184.4971   -6046.4303   -5914.2978    2782.1652    17266.517    31.623978 
    8080    1178.5546   -6045.1919   -5913.7224    2085.1929    17282.647    31.629504 
    8090    1216.5463   -6048.7719   -5913.0643   -26.434662    17300.055    31.665996 
    8100    1195.4574   -6045.7059   -5912.3508   -867.11092    17317.596    31.740237 
    8110    1207.9253    -6046.361   -5911.6151   -1342.6697    17334.654    31.827923 
    8120    1202.4134    -6044.988    -5910.857   -641.78309    17350.985    31.921949 
    8130    1200.2323   -6043.9736   -5910.0859    -365.1362    17366.908    32.026012 
    8140    1230.3325   -6046.5574    -5909.312   -696.26441    17382.616    32.138607 
    8150    1239.3953   -6046.8286   -5908.5722   -1429.6238    17397.888    32.251591 
    8160    1222.7798   -6044.3086   -5907.9057   -1475.1447    17412.315    32.362297 
    8170    1217.8729   -6043.1591   -5907.3035   -549.08714    17425.884    32.475217 
    8180    1208.1951   -6041.5244   -5906.7484    246.34917    17439.114     32.57765 
    8190    1217.4871   -6042.0366   -5906.2241   -331.14097    17452.445    32.656039 
    8200    1228.8896   -6042.8131   -5905.7286   -1233.0186    17465.563    32.697502 
    8210    1209.3459   -6040.1828   -5905.2784   -1209.5923    17477.964    32.719362 
    8220     1209.926   -6039.8344   -5904.8653   -1663.9605    17489.584    32.748234 
    8230    1204.0179   -6038.7701   -5904.4601   -1713.2774    17500.188    32.783515 
    8240    1198.2166   -6037.7375   -5904.0746    -1257.825    17509.738     32.81384 
    8250    1209.5586   -6038.6092   -5903.6811   -391.09919    17518.521    32.854231 
    8260    1184.5599   -6035.4277   -5903.2883    1395.6299    17527.135    32.915213 
    8270    1195.8134   -6036.2734   -5902.8786    1438.5435     17536.56    32.971205 
    8280    1198.6688   -6036.1298   -5902.4165     773.8656    17546.906    32.998312 
    8290    1184.5028   -6034.0464   -5901.9133    187.38078    17557.785    32.994584 
    8300    1198.5298   -6035.0409   -5901.3431   -1053.7834    17568.765    32.968019 
    8310    1217.7661   -6036.5354   -5900.6918   -2444.1535    17579.085    32.942845 
    8320    1212.8379   -6035.2831   -5899.9892   -3342.6609    17587.885    32.942132 
    8330    1221.9228   -6035.5511   -5899.2438   -4270.0885    17594.532    32.959338 
    8340    1261.7547   -6039.1924   -5898.4417   -5285.5675     17598.43    32.976207 
    8350    1278.9153    -6040.314   -5897.6491   -5243.0276    17598.976    32.989688 
    8360    1259.8057   -6037.4636   -5896.9303   -4242.0915    17596.171    33.004308 
    8370    1247.8941   -6035.4505    -5896.246   -3049.7835    17590.617    33.033052 
    8380     1258.479   -6035.9426   -5895.5574   -2294.3026    17583.033    33.087256 
    8390    1240.4358   -6033.2081   -5894.8356   -782.39877    17574.022    33.150565 
    8400    1302.7087   -6039.4223   -5894.1032   -1328.4604    17564.324    33.216911 
    8410    1321.2081    -6040.799   -5893.4163   -1118.0495    17553.803    33.301592 
    8420    1315.6599    -6039.674   -5892.9102   -171.54694    17542.554    33.395608 
    8430    1313.2672   -6039.0852   -5892.5883    888.99186    17531.179    33.486447 
    8440    1309.2401   -6038.5679   -5892.5202    1422.6097    17520.303    33.564013 
    8450    1279.2186   -6035.4009   -5892.7021    1973.4889    17510.325    33.626697 
    8460    1264.0843     -6034.15   -5893.1395    1535.1448    17501.541    33.664427 
    8470    1240.5934   -6032.2006   -5893.8105    906.57997    17493.711    33.665915 
    8480    1210.3471   -6029.6663   -5894.6502    1201.8856    17486.497    33.648587 
    8490     1213.337   -6030.9635   -5895.6139    2111.4353     17480.06    33.622045 
    8500    1220.7022   -6032.8296   -5896.6584    2661.5874    17474.943    33.584084 
    8510     1230.531   -6035.0539   -5897.7863    2232.4514    17471.454    33.560817 
    8520    1246.1098   -6038.0178   -5899.0124    1881.4128    17469.382    33.589617 
    8530    1214.6169   -6035.7543    -5900.262    3009.1582    17468.617    33.664807 
    8540    1199.8788   -6035.2741   -5901.4258    3476.5809    17469.732    33.746468 
    8550    1213.5463   -6037.8823   -5902.5094    3133.1061    17473.027    33.806895 
    8560    1196.4011   -6036.9387   -5903.4784    3790.7062    17478.427    33.856299 
    8570    1190.1489   -6037.0849    -5904.322    3788.1176    17486.256    33.912735 
[...]
   22890    1173.5214   -6021.0095   -5890.1014   -2556.8426    17944.352    124.13525 
   22900    1200.5251   -6024.1807   -5890.2604   -2431.6351    17959.502    124.33348 
   22910    1180.7962   -6022.1338   -5890.4142   -2494.5334    17973.119     124.5282 
   22920    1156.6305   -6019.5369   -5890.5131   -3644.6973    17985.093    124.70186 
   22930    1156.3312   -6019.5224    -5890.532   -5156.2116    17994.657    124.86532 
   22940    1152.4254   -6019.0127    -5890.458   -5449.2156    18000.867    125.04067 
   22950    1165.2734   -6020.2881   -5890.3001   -5412.2578    18003.416    125.25892 
   22960    1150.5204   -6018.3923     -5890.05   -4482.8707    18002.363    125.50783 
   22970    1158.4153   -6018.8981   -5889.6751   -3757.4168    17998.251     125.7447 
   22980    1174.3091   -6020.1756   -5889.1797   -3396.2683    17991.531    125.95645 
   22990    1153.3626   -6017.2453   -5888.5859   -2568.2286    17982.511    126.13721 
   23000    1148.2344   -6015.9643    -5887.877   -2306.9604    17971.666    126.28031 
   23010    1147.9113   -6015.0629   -5887.0117   -2247.6258    17959.209    126.39643 
   23020    1176.3265   -6017.2202   -5885.9992    -2603.702    17945.153    126.48955 
   23030    1183.6046   -6016.9373   -5884.9044   -2782.6843    17929.272    126.54287 
   23040    1168.2818   -6014.1249   -5883.8013   -1740.3596    17911.545    126.55891 
   23050    1185.4641   -6014.9606   -5882.7203   -1643.0298    17892.499    126.56448 
   23060    1205.2848   -6016.1507   -5881.6994   -1310.7246    17872.303    126.57773 
   23070    1226.2789   -6017.5775   -5880.7842   -335.09828    17851.224    126.59284 
   23080    1223.7342   -6016.5459   -5880.0365    624.45837    17829.883    126.61814 
   23090    1215.9831   -6015.1006   -5879.4558    709.18952    17808.856    126.67436 
   23100    1208.4513   -6013.8055   -5879.0009    735.05353    17788.262     126.7567 
   23110    1206.0338   -6013.1774   -5878.6426    1461.9407    17768.161    126.85914 
   23120    1190.5888   -6011.1404   -5878.3284    2588.0672    17749.036    126.99099 
   23130    1215.6273   -6013.6706   -5878.0655    2244.1762    17731.484    127.11863 
   23140    1200.6619   -6011.7768   -5877.8412    2107.8399    17715.406    127.22738 
   23150    1179.5691   -6009.2427     -5877.66    2342.8388    17700.711    127.33021 
   23160    1184.3798   -6009.5758   -5877.4564    2357.8544     17687.53      127.422 
   23170    1198.7906   -6010.9552   -5877.2283    1575.2983    17675.835    127.48716 
   23180    1224.3954   -6013.6185   -5877.0354    1179.1146     17665.17    127.51381 
   23190     1218.445      -6012.8   -5876.8806    1817.0386    17655.324    127.50226 
   23200    1230.6056   -6014.0553   -5876.7794    2123.1331    17646.637      127.463 
   23210    1247.4921   -6015.9091   -5876.7495    1856.5586     17639.29    127.43291 
   23220    1230.1338   -6014.0372   -5876.8139    1814.1199    17633.159      127.438 
   23230    1231.7298   -6014.3689   -5876.9676    1079.0223    17628.147    127.46666 
   23240    1258.6451   -6017.6109   -5877.2072    374.46472    17623.851    127.47354 
   23250     1281.593   -6020.5665   -5877.6029   -94.163631     17619.79    127.43401 
   23260    1248.8415   -6017.4779   -5878.1677    434.08496    17615.739     127.3838 
   23270    1231.7178   -6016.2608   -5878.8608     258.0811    17611.902    127.39724 
   23280    1185.1088   -6011.7931   -5879.5924    930.10524    17608.279    127.51968 
   23290    1184.4737   -6012.4132   -5880.2834    1485.0404     17605.24    127.75431 
   23300    1221.7046   -6017.2437   -5880.9607    1425.0982    17603.133    128.04067 
   23310    1222.0091   -6017.9791   -5881.6621    1838.2218    17601.991    128.31193 
   23320    1244.0831   -6021.2091   -5882.4298    1883.4378     17602.01    128.54138 
   23330    1237.2968   -6021.2941   -5883.2718    2168.3957    17603.283    128.72704 
   23340    1204.1405   -6018.4578   -5884.1341    2147.5132    17605.957    128.84019 
   23350    1179.1298   -6016.4601   -5884.9264    1432.2507    17609.991    128.89123 
   23360     1187.326   -6018.0598   -5885.6118    477.22463    17614.953    128.90881 
   23370    1194.0088   -6019.3798   -5886.1863     181.4962    17620.297    128.92798 
   23380    1190.0892   -6019.4363   -5886.6801    396.29754     17625.82     128.9995 
   23390    1177.7883   -6018.4682   -5887.0841    629.30238     17631.64    129.15179 
   23400    1182.4296   -6019.3094   -5887.4076      511.022    17637.879    129.36766 
   23410    1185.2224   -6019.8656   -5887.6523    371.86241    17644.489    129.59305 
   23420    1184.9144   -6020.0121   -5887.8331    102.14312    17651.379    129.76474 
   23430     1183.383   -6019.9607   -5887.9525   -517.20524    17658.364    129.84766 
   23440    1166.1266   -6018.1021   -5888.0189   -1004.4921    17665.061    129.85051 
   23450    1133.1967   -6014.4235   -5888.0137   -527.03614    17671.192    129.80268 
   23460    1128.3453   -6013.7534   -5887.8847   -236.99614    17677.002     129.7571 
   23470    1150.6413    -6015.986   -5887.6303   -293.51398     17682.69    129.77304 
   23480    1163.8788   -6017.1166   -5887.2842   -138.72093     17688.23    129.90763 
   23490    1142.6102   -6014.3529    -5886.893    609.83169    17693.754    130.15668 
   23500      1127.58   -6012.2179   -5886.4346    1030.4879    17699.694    130.43738 
   23510     1133.369   -6012.3134   -5885.8844    885.14959    17706.325    130.64306 
   23520    1148.9083   -6013.4087   -5885.2463    903.84443    17713.607    130.74082 
   23530    1180.9356   -6016.3067   -5884.5716    764.15561    17721.531    130.79072 
   23540    1169.0652   -6014.3187   -5883.9077    1158.5595    17730.079    130.86039 
   23550    1184.6349   -6015.4329   -5883.2851    696.10607    17739.404    130.97386 
   23560    1202.9394   -6016.8739   -5882.6842    129.46763    17749.281    131.08128 
   23570    1216.2371   -6017.8336   -5882.1605    17.075336    17759.368    131.12854 
   23580    1241.8148   -6020.2671   -5881.7408   -410.03304     17769.53    131.16086 
   23590    1233.4079   -6019.0256   -5881.4371    -765.7362    17779.525    131.23623 
   23600    1227.2196    -6018.154   -5881.2558   -1463.1564    17789.069    131.33106 
   23610     1185.765   -6013.4007   -5881.1269   -1571.4562    17797.776     131.4084 
   23620    1178.5153   -6012.4689   -5881.0038   -1878.6147    17805.496    131.46539 
   23630    1173.5005   -6011.7425   -5880.8368   -2083.9544    17812.054    131.52645 
   23640    1152.2103   -6009.1577   -5880.6269    -1618.428    17817.332    131.61616 
   23650    1149.3128   -6008.5346    -5880.327   -770.49483    17821.617     131.7426 
   23660    1215.5944   -6015.5644    -5879.963    -1236.969    17825.348    131.89965 
   23670    1243.5211   -6018.3292   -5879.6126    -1783.491    17828.306    132.04599 
   23680    1210.5059   -6014.3912   -5879.3574    -1010.259    17830.207    132.15322 
   23690    1177.0665   -6010.4469   -5879.1434   -130.44151    17831.471    132.22204 
   23700    1183.8331   -6010.9662   -5878.9078   -535.38893    17832.586    132.26215 
   23710     1193.256   -6011.7418   -5878.6323   -1243.9031    17833.334    132.32114 
   23720     1193.025   -6011.4129   -5878.3292   -472.77632    17833.372     132.4516 
   23730    1223.1739   -6014.4733   -5878.0264   -191.83904    17833.056    132.62157 
   23740    1248.1262    -6016.999   -5877.7686   -276.08018    17832.589    132.74792 
   23750    1236.4918   -6015.5391   -5877.6066    -559.6883    17831.927    132.79934 
   23760     1220.413   -6013.6627   -5877.5238   -1376.7195    17830.863    132.79934 
   23770     1234.191   -6015.1868   -5877.5109   -2929.0305    17828.807    132.80725 
   23780    1200.8757   -6011.5151   -5877.5556    -2938.552    17824.863     132.8222 
   23790     1184.602    -6009.759   -5877.6149   -2260.9189    17818.931    132.80948 
   23800     1194.425   -6010.8858   -5877.6459    -2055.662    17811.379    132.78997 
   23810     1218.655   -6013.6264   -5877.6836   -1821.0821    17802.342    132.77774 
   23820    1228.0647   -6014.7467   -5877.7542   -1069.3198    17792.017    132.77218 
   23830    1200.3245   -6011.7904   -5877.8924   -592.73108    17780.829    132.77451 
   23840    1173.1853   -6008.9304   -5878.0598   -254.46839    17769.083     132.7851 
   23850     1182.491   -6010.1096   -5878.2009    183.03074    17757.012    132.76893 
   23860    1207.5071   -6013.0382   -5878.3389    680.87423    17744.898    132.70147 
   23870    1202.7989   -6012.6849   -5878.5109    1186.7068    17733.074    132.58561 
   23880    1196.7817    -6012.236   -5878.7332    1113.0899    17721.833    132.44706 
   23890    1183.4935   -6011.0162   -5878.9957    1172.9643    17711.195    132.30803 
   23900    1159.1492   -6008.5575   -5879.2526    1328.9398    17701.209    132.20532 
   23910    1185.4626   -6011.7368   -5879.4967    311.90511    17691.884    132.15772 
   23920    1214.1959   -6015.2106   -5879.7652   -757.55991    17682.629    132.18022 
   23930    1189.9611   -6012.8206   -5880.0787   -636.74621    17672.821    132.24349 
   23940      1195.16   -6013.7465   -5880.4246    -220.4716    17662.479    132.30404 
   23950    1231.6055   -6018.2155    -5880.828   -7.7033234    17651.814    132.34746 
   23960    1216.3671   -6016.9967   -5881.3091      1383.51    17641.061    132.36717 
   23970     1180.466   -6013.5292   -5881.8464    2369.8523    17631.042    132.34185 
   23980     1177.833   -6013.7807   -5882.3916    1890.2597    17622.351    132.26808 
   23990    1171.0342   -6013.5334   -5882.9028     1159.983    17614.764    132.17735 
   24000    1209.6647    -6018.345   -5883.4051    767.76586    17607.839    132.10888 
   24010    1222.2531   -6020.2936   -5883.9495    1280.1621     17601.36    132.09199 
   24020     1225.241   -6021.2355   -5884.5581    1793.0108    17595.619    132.10025 
   24030    1247.9266   -6024.4586   -5885.2505    1419.1257    17590.905     132.1258 
   24040    1229.1941   -6023.1785     -5886.06    1871.1671    17587.098    132.19809 
   24050    1163.1907   -6016.6353   -5886.8796    3390.5764    17584.529    132.32335 
   24060    1157.3731   -6016.7277    -5887.621    3786.4687    17584.066    132.48664 
   24070    1152.6251   -6016.8281   -5888.2511    3584.4783     17586.03    132.66164 
   24080    1179.1344   -6020.3176   -5888.7834    3266.4046    17590.373    132.80145 
   24090     1210.029    -6024.266   -5889.2855    2306.1341    17596.893    132.89298 
   24100     1177.625   -6021.1307   -5889.7648    1641.1568    17605.057    132.96149 
   24110    1180.9267   -6021.9292   -5890.1951    358.75112    17614.387    133.06977 
   24120    1181.1204   -6022.3258     -5890.57   -160.58328    17624.171    133.20243 
   24130    1148.7935   -6019.0384   -5890.8887    550.18924    17634.096    133.28315 
   24140    1127.6181   -6016.8763   -5891.0888    888.21576    17644.544    133.30495 
   24150    1164.5223    -6021.064   -5891.1597   -645.94506    17655.629    133.29388 
   24160    1174.9397   -6022.1986   -5891.1323   -1132.1163    17666.559     133.2699 
   24170    1153.4126   -6019.7128   -5891.0479   -387.67968    17676.998    133.29059 
   24180    1141.5574   -6018.2125     -5890.87   -372.54625    17687.307    133.38751 
   24190    1161.2016   -6020.0983   -5890.5645   -1096.5522    17697.501    133.54731 
   24200     1182.322   -6022.0376   -5890.1478   -1597.9509    17707.155    133.74152 
   24210    1171.8895   -6020.3872   -5889.6611   -1265.6071    17715.963    133.91253 
   24220      1152.02    -6017.607   -5889.0974   -1070.0103    17724.068    134.02905 
   24230    1170.5033   -6018.9847   -5888.4133   -1325.4212    17731.572    134.10539 
   24240    1169.8062   -6018.0868   -5887.5931   -1373.1783    17738.327    134.17141 
   24250    1189.3466   -6019.3519   -5886.6785   -1362.7081    17744.277    134.26829 
   24260    1204.4694   -6020.0732   -5885.7129   -963.55089    17749.437    134.41147 
   24270    1191.7359   -6017.6949   -5884.7549   -361.74347    17754.046    134.54881 
   24280    1206.4764   -6018.3947   -5883.8104   -582.07754    17758.421    134.60518 
   24290    1229.8203   -6020.1095   -5882.9212   -333.70097    17762.505    134.57561 
   24300    1230.9733   -6019.4681   -5882.1511    1407.5324    17766.537    134.53611 
   24310    1234.3009   -6019.2245   -5881.5364    2400.5063    17771.509    134.57867 
   24320    1219.2056   -6017.0528   -5881.0486    2568.9953    17778.104    134.73611 
   24330    1214.1981   -6016.1039   -5880.6582     2516.053    17786.489    134.95776 
   24340    1220.0645   -6016.4522   -5880.3521    1815.9445    17796.614    135.12972 
   24350     1198.784   -6013.8369   -5880.1107    1497.9093     17808.11    135.17175 
   24360     1204.192   -6014.2336   -5879.9042    909.44736    17820.722    135.08934 
   24370    1219.7549   -6015.7978   -5879.7323    288.87265    17834.093     134.9732 
   24380    1215.3936   -6015.1942   -5879.6152   -200.26738    17847.829    134.89965 
   24390    1230.0373    -6016.778   -5879.5655   -1183.0872    17861.531    134.85309 
   24400    1189.0867    -6012.204   -5879.5596   -472.08813     17874.71     134.8226 
   24410    1157.7423   -6008.6871   -5879.5392    250.61481    17887.712    134.84476 
   24420    1194.0888   -6012.6705   -5879.4681   -382.98678    17900.923    134.90798 
   24430    1189.1729   -6012.0131   -5879.3591    -750.5007    17914.032    135.00679 
   24440    1152.3755    -6007.775   -5879.2258   -1186.5821    17926.753    135.12895 
   24450    1160.1037   -6008.4207   -5879.0094   -3003.7541    17938.694     135.2446 
   24460    1188.9678   -6011.3406   -5878.7095   -4149.3563     17948.75    135.31033 
   24470    1191.9647   -6011.3658   -5878.4004   -3499.4383     17956.18    135.31073 
   24480    1186.8034   -6010.4965   -5878.1068   -2334.7249    17961.315    135.26952 
   24490    1187.9153    -6010.338   -5877.8242    -1238.413    17964.896    135.21569 
   24500      1183.69    -6009.574   -5877.5316    255.72219     17967.71    135.20544 
   24510    1195.1678   -6010.5587   -5877.2359    1080.2833     17970.68    135.24049 
   24520    1214.4444    -6012.429   -5876.9559    648.01563    17974.314    135.29556 
   24530    1220.0518    -6012.814   -5876.7153   -955.15819    17978.335    135.37856 
   24540     1212.892   -6011.8123   -5876.5123    -2548.575    17981.741    135.47752 
   24550    1208.2728   -6011.1312   -5876.3466   -3235.9848    17983.494    135.56944 
   24560    1206.4922   -6010.7932   -5876.2072   -2819.7009    17983.123    135.63145 
   24570    1197.6634   -6009.6764   -5876.0753   -1665.2222    17980.889    135.64258 
   24580    1203.7109    -6010.207   -5875.9313   -968.44534    17977.501    135.60553 
   24590    1238.7117   -6013.9945   -5875.8144   -1399.2855    17973.367    135.57418 
   24600    1235.8615     -6013.64   -5875.7778   -1361.6823    17968.291     135.5874 
   24610    1208.5055   -6010.6255   -5875.8149   -746.97876    17962.324    135.61618 
   24620    1212.6808   -6011.1653    -5875.889   -1096.4992    17955.774     135.6503 
   24630    1207.0727    -6010.634   -5875.9832   -1358.1402     17948.48    135.70918 
   24640    1199.3224   -6009.8901   -5876.1039   -1551.9942    17940.256    135.75867 
   24650    1214.9648   -6011.7825   -5876.2513   -2170.5563    17930.927    135.73022 
   24660    1218.9359   -6012.4123   -5876.4381   -2367.1677    17920.125    135.61297 
   24670    1215.4384   -6012.2591   -5876.6751   -1644.9692    17907.752    135.46586 
   24680    1207.4207   -6011.6411   -5876.9515   -584.76955     17894.26    135.37653 
   24690    1223.8412   -6013.8082   -5877.2869   -271.46489    17880.288     135.3896 
   24700    1206.0639    -6012.249   -5877.7107   -142.53602    17866.085    135.45652 
   24710    1169.5546   -6008.6732   -5878.2076    526.42778    17851.779    135.53264 
   24720    1176.4322   -6009.9953   -5878.7625    383.04051    17837.736    135.60175 
   24730     1184.208   -6011.5195   -5879.4193    335.27826    17823.932    135.63989 
   24740    1164.9151   -6010.1375   -5880.1895    1087.7722    17810.377    135.61486 
   24750    1173.0008   -6011.9388   -5881.0888     1707.558      17797.5    135.55285 
   24760    1170.7085   -6012.7338   -5882.1395    2171.6493    17785.728    135.51282 
   24770    1159.0926   -6012.6224   -5883.3239    1596.0682    17775.309    135.54577 
   24780    1178.1035   -6016.0074   -5884.5881    402.35366    17765.887    135.65656 
   24790    1194.4725   -6019.1649   -5885.9197   -453.27247    17756.716    135.77244 
   24800    1174.1955   -6018.2035   -5887.2202    159.81966    17747.321     135.8313 
   24810    1178.8127    -6019.918   -5888.4197    420.26443    17737.969    135.82655 
   24820    1165.3332   -6019.4556   -5889.4609    57.649677     17728.82    135.80158 
   24830    1143.7112   -6017.8858   -5890.3031   -32.529808    17719.698    135.79278 
   24840    1130.1119    -6016.989   -5890.9233   -293.58299    17710.496    135.82677 
   24850    1135.0459    -6017.951    -5891.335   -263.51941    17701.084    135.93336 
   24860    1143.0046   -6019.0789    -5891.575    265.39119    17691.486    136.05859 
   24870    1163.5664   -6021.4733   -5891.6758    609.08366    17682.015    136.13095 
   24880    1200.1279   -6025.5839   -5891.7079    610.30468    17672.886    136.15927 
   24890    1197.0723    -6025.259   -5891.7238    425.77131    17664.111     136.1807 
   24900      1169.74   -6022.2126   -5891.7263   -285.91609    17655.545    136.20663 
   24910     1161.999    -6021.294   -5891.6713   -686.38925    17646.763    136.19223 
   24920     1170.758   -6022.1426   -5891.5428    80.211941    17637.563    136.11181 
   24930    1180.6733   -6023.0535   -5891.3476    681.41169    17628.359    136.00629 
   24940    1209.6072   -6026.0481   -5891.1146    474.31302    17619.495    135.90902 
   24950    1193.8647   -6024.0534    -5890.876    938.56177    17610.934     135.8455 
   24960    1175.7414   -6021.7947    -5890.639    1633.4146    17602.934    135.84757 
   24970    1186.4683   -6022.7027   -5890.3504    1709.1302     17595.91     135.9175 
   24980    1229.4692   -6027.1811    -5890.032    882.50457    17589.892    136.01595 
   24990    1231.7497   -6027.1579   -5889.7543   -79.308227    17584.397    136.09818 
   25000     1206.037     -6024.08   -5889.5448    216.34043    17578.881    136.16669 
Loop time of 13523.1 on 16 procs for 20000 steps with 864 atoms

Performance: 0.128 ns/day, 187.821 hours/ns, 1.479 timesteps/s
94.6% CPU use with 16 MPI tasks x 1 OpenMP threads

MPI task timing breakdown:
Section |  min time  |  avg time  |  max time  |%varavg| %total
---------------------------------------------------------------
Pair    | 9858.4     | 11964      | 13010      | 716.6 | 88.47
Bond    | 0.0020764  | 0.0058213  | 0.011776   |   3.2 |  0.00
Neigh   | 0.30481    | 0.31453    | 0.3351     |   1.6 |  0.00
Comm    | 448.43     | 1345.6     | 3497.9     |2039.4 |  9.95
Output  | 1.1159     | 1.1428     | 1.5406     |   9.6 |  0.01
Modify  | 58.646     | 212.22     | 487.2      |1158.1 |  1.57
Other   |            | 0.112      |            |       |  0.00

Nlocal:        54.0000 ave          58 max          47 min
Histogram: 1 0 0 3 0 3 1 2 3 3
Nghost:        544.688 ave         559 max         527 min
Histogram: 2 0 2 1 2 1 3 0 2 3
Neighs:         0.00000 ave           0 max           0 min
Histogram: 16 0 0 0 0 0 0 0 0 0
FullNghs:      2618.25 ave        2872 max        2245 min
Histogram: 1 0 1 2 3 1 0 4 3 1

Total # of neighbors = 41892
Ave neighs/atom = 48.486111
Ave special neighs/atom = 0.0000000
Neighbor list builds = 2000
Dangerous builds = 2000
Total wall time: 4:39:38
