LAMMPS (29 Sep 2021 - Update 3)
OMP_NUM_THREADS environment is not set. Defaulting to 1 thread. (src/comm.cpp:98)
  using 1 OpenMP thread(s) per MPI task
Reading data file ...
  orthogonal box = (0.0000000 0.0000000 0.0000000) to (15.857269 15.758596 73.856324)
  2 by 1 by 8 MPI processor grid
  reading atoms ...
  864 atoms
Finding 1-2 1-3 1-4 neighbors ...
  special bond factors lj:    0        0        0       
  special bond factors coul:  0        0        0       
     0 = max # of 1-2 neighbors
     0 = max # of 1-3 neighbors
     0 = max # of 1-4 neighbors
     1 = max # of special neighbors
  special bonds CPU = 0.001 seconds
  read_data CPU = 0.015 seconds
Neighbor list info ...
  update every 1 steps, delay 10 steps, check yes
  max neighbors/atom: 2000, page size: 100000
  master list distance cutoff = 6.22
  ghost atom cutoff = 6.22
  binsize = 3.11, bins = 6 6 24
  1 neighbor lists, perpetual/occasional/extra = 1 0 0
  (1) pair quip, perpetual
      attributes: full, newton on
      pair build: full/bin
      stencil: full/bin/3d
      bin: standard
Setting up Verlet run ...
  Unit style    : metal
  Current step  : 0
  Time step     : 0.001
Per MPI rank memory allocation (min/avg/max) = 8.896 | 8.907 | 8.915 Mbytes
Step Temp PotEng TotEng Press Volume c_msd[4] 
       0            0   -6680.0933   -6680.0933   -8281.1165    18455.831            0 
      10    70.089017   -6687.9205    -6680.102   -9637.9304    18455.831 0.00053514082 
      20    180.09083   -6700.2003   -6680.1109   -11326.743    18455.831 0.0066144209 
      30    218.60542   -6704.4933   -6680.1075   -10699.378    18455.831  0.022432956 
      40    219.14865   -6704.5494    -6680.103   -8951.3193    18455.831  0.042690684 
      50    240.47609   -6706.9311   -6680.1056   -8003.5149    18455.831  0.059191698 
      60    253.66901   -6708.4039   -6680.1068    -7626.627    18455.831   0.07070925 
      70     242.9182   -6707.2018   -6680.1039   -7466.6829    18455.831  0.079364222 
      80    245.92472    -6707.537   -6680.1038   -7609.4954    18455.831  0.086633288 
      90    257.49674   -6708.8305   -6680.1063   -7851.5904    18455.831  0.095173812 
     100    252.46946   -6708.2676   -6680.1043   -7551.0395    18455.831   0.10676573 
     110    248.46405   -6707.8212   -6680.1047   -7097.6705    18455.831   0.12025968 
     120    250.68872   -6708.0687    -6680.104   -6824.8497    18455.831   0.13340609 
     130      258.818   -6708.9777   -6680.1062   -6596.3887    18455.831   0.14573975 
     140    253.60976   -6708.3953   -6680.1047   -6185.2051    18455.831   0.15889724 
     150    247.40375   -6707.7026   -6680.1043   -5947.5032    18455.831   0.17318983 
     160    248.95468   -6707.8762   -6680.1049   -5851.7986    18455.831   0.18766652 
     170    251.06346   -6708.1121   -6680.1056   -5590.4969    18455.831   0.20144657 
     180    246.23782    -6707.572   -6680.1038   -5247.2261    18455.831   0.21382042 
     190    251.48989   -6708.1586   -6680.1045   -5416.1608    18455.831   0.22371169 
     200    260.44308   -6709.1586   -6680.1058   -5793.9896    18455.831   0.23141162 
     210    257.82494   -6708.8658    -6680.105   -6133.6533    18455.831   0.23844771 
     220    250.73963   -6708.0747   -6680.1043   -6257.2025    18455.831   0.24564622 
     230    248.07271   -6707.7773   -6680.1044   -6243.0592    18455.831   0.25309034 
     240    248.93862   -6707.8742   -6680.1047   -6226.9294    18455.831   0.26091643 
     250    248.99388   -6707.8804   -6680.1047   -6334.5414    18455.831   0.26913526 
     260    251.27669   -6708.1344   -6680.1041   -6551.8246    18455.831   0.27705303 
     270    260.34527   -6709.1477   -6680.1058        -6764    18455.831   0.28421607 
     280    260.83001   -6709.2011   -6680.1051   -6639.8092    18455.831   0.29163604 
     290    256.24266   -6708.6893    -6680.105   -6449.9322    18455.831   0.29974682 
     300    250.69638     -6708.07   -6680.1044   -6471.1016    18455.831   0.30849754 
     310    250.05901    -6707.999   -6680.1046   -6562.0942    18455.831   0.31777754 
     320    252.23509   -6708.2423   -6680.1051   -6693.6464    18455.831   0.32755563 
     330    250.81469   -6708.0833   -6680.1046   -6713.8004    18455.831   0.33779883 
     340    250.65515   -6708.0657   -6680.1047     -6614.52    18455.831   0.34801692 
     350    252.94275   -6708.3202   -6680.1041   -6588.7327    18455.831   0.35730468 
     360    261.50627   -6709.2774    -6680.106   -6797.9362    18455.831   0.36504658 
     370    261.10007   -6709.2316   -6680.1055   -6831.7443    18455.831   0.37190178 
     380    253.99916   -6708.4387   -6680.1047   -6726.1215    18455.831   0.37827271 
     390    253.05009   -6708.3325   -6680.1044    -6835.806    18455.831   0.38397661 
     400    258.03703   -6708.8906   -6680.1062   -6768.7818    18455.831   0.38955387 
     410      252.036   -6708.2195   -6680.1045   -6292.4532    18455.831   0.39652014 
     420    250.52201   -6708.0507   -6680.1046   -5826.2725    18455.831   0.40500255 
     430    256.29495   -6708.6954   -6680.1053    -5546.315    18455.831    0.4145153 
     440    262.43605   -6709.3808   -6680.1057   -5439.0868    18455.831   0.42473971 
     450    264.26046   -6709.5844   -6680.1058   -5272.9671    18455.831   0.43527985 
     460    262.52327   -6709.3894   -6680.1046   -5195.9426    18455.831   0.44476232 
     470    267.68384   -6709.9661   -6680.1056   -5304.7962    18455.831   0.45177569 
     480    270.55653   -6710.2863   -6680.1053   -5291.2639    18455.831   0.45687774 
     490    270.72724   -6710.3054   -6680.1053   -5218.7322    18455.831   0.46120142 
     500    269.05227   -6710.1187   -6680.1055   -5175.8745    18455.831   0.46642946 
     510    263.94553   -6709.5489   -6680.1053   -5239.9274    18455.831   0.47407361 
     520    257.63711   -6708.8446   -6680.1048   -5291.7388    18455.831   0.48412853 
     530    257.06548   -6708.7811   -6680.1051   -5321.5334    18455.831   0.49506416 
     540    260.38526   -6709.1518   -6680.1055   -5376.0867    18455.831   0.50501047 
     550    260.91759   -6709.2118    -6680.106    -5479.615    18455.831   0.51322197 
     560    255.01677   -6708.5518   -6680.1043   -5675.0057    18455.831   0.52041437 
     570     259.1908   -6709.0183   -6680.1051   -6233.3417    18455.831    0.5272333 
     580    265.73933   -6709.7494   -6680.1058   -6810.0612    18455.831   0.53425593 
     590    267.07214   -6709.8973    -6680.105   -7271.0617    18455.831   0.54173358 
     600    270.59769   -6710.2906    -6680.105   -7669.4363    18455.831   0.54966243 
     610    275.51295   -6710.8394   -6680.1055   -7859.4286    18455.831   0.55825095 
     620    275.26386   -6710.8118   -6680.1057   -7564.3126    18455.831   0.56786247 
     630    267.62803    -6709.959   -6680.1047   -6980.9593    18455.831   0.57832835 
     640    265.09163   -6709.6761   -6680.1047   -6568.2152    18455.831   0.58820723 
     650    267.67247   -6709.9653    -6680.106    -6347.284    18455.831   0.59641333 
     660    264.01415   -6709.5562    -6680.105   -5916.0469    18455.831   0.60309646 
     670    263.52965    -6709.502   -6680.1049   -5671.0684    18455.831   0.60844331 
     680    269.00124    -6710.113   -6680.1055   -5692.2827    18455.831    0.6132683 
     690    271.45591    -6710.387   -6680.1057   -5574.8525    18455.831   0.61933075 
     700     270.0884   -6710.2336   -6680.1048   -5412.3704    18455.831   0.62727776 
     710    274.16504    -6710.689   -6680.1055   -5445.9009    18455.831   0.63604213 
     720    276.77226   -6710.9801   -6680.1057   -5459.4182    18455.831   0.64454539 
     730    275.88502   -6710.8806   -6680.1052    -5417.932    18455.831   0.65171241 
     740    275.85971   -6710.8783   -6680.1057   -5536.9233    18455.831   0.65662341 
     750    272.97993   -6710.5569   -6680.1056   -5708.1328    18455.831    0.6598394 
     760    268.28422    -6710.033   -6680.1055   -5761.8441    18455.831   0.66298993 
     770    264.14144   -6709.5705   -6680.1051   -5775.8492    18455.831   0.66717813 
     780    263.51726    -6709.501   -6680.1053   -5700.2554    18455.831   0.67265545 
     790    266.55703   -6709.8409    -6680.106    -5605.591    18455.831   0.67864068 
     800    265.59911   -6709.7343   -6680.1063   -5512.5062    18455.831   0.68325498 
     810    257.26872   -6708.8037    -6680.105    -5609.846    18455.831   0.68551207 
     820    257.02246   -6708.7759   -6680.1047   -5957.2323    18455.831   0.68532325 
     830    268.49996   -6710.0576    -6680.106   -6395.3276    18455.831   0.68384718 
     840      275.603   -6710.8497   -6680.1057   -6790.5333    18455.831   0.68323699 
     850    277.81756   -6711.0961   -6680.1052   -7039.0507    18455.831   0.68429619 
     860    281.61629     -6711.52   -6680.1053    -7112.387    18455.831   0.68675849 
     870    285.63694   -6711.9688   -6680.1055   -6936.0551    18455.831    0.6904508 
     880    286.29079   -6712.0419   -6680.1057   -6480.6542    18455.831   0.69538495 
     890    281.96956   -6711.5596   -6680.1055   -6039.8274    18455.831   0.70113257 
     900    274.65893   -6710.7442   -6680.1055     -5564.23    18455.831   0.70667182 
     910    267.20366   -6709.9114   -6680.1045   -5257.3591    18455.831   0.71136984 
     920     269.3838   -6710.1555   -6680.1053    -5367.122    18455.831   0.71512054 
     930    273.08823   -6710.5689   -6680.1055   -5720.7294    18455.831   0.71853359 
     940    275.14424   -6710.7982   -6680.1055   -5917.6904    18455.831   0.72236347 
     950    276.67291   -6710.9689   -6680.1056   -5610.0935    18455.831   0.72713733 
     960    276.62748   -6710.9635   -6680.1053   -5046.3658    18455.831   0.73337224 
     970     278.3434   -6711.1556   -6680.1059   -4610.3497    18455.831   0.74121898 
     980    276.50421   -6710.9503   -6680.1058   -4305.2609    18455.831   0.75038076 
     990    274.46428   -6710.7216   -6680.1047   -4327.9119    18455.831   0.75935205 
    1000    282.87647   -6711.6614   -6680.1061   -4696.6429    18455.831   0.76641954 
    1010    286.63377   -6712.0812   -6680.1068   -4990.2699    18455.831   0.77271728 
    1020    279.06324   -6711.2352   -6680.1053   -4771.2676    18455.831   0.78024384 
    1030    275.82234   -6710.8738   -6680.1054    -4403.339    18455.831   0.78871428 
    1040    278.66942   -6711.1919   -6680.1059   -3941.2604    18455.831   0.79675694 
    1050    279.04998   -6711.2352   -6680.1068   -3356.1301    18455.831   0.80429238 
    1060    270.39607   -6710.2685   -6680.1054   -2836.7873    18455.831   0.81167046 
    1070    268.92869   -6710.1046   -6680.1052   -2775.6081    18455.831   0.81774479 
    1080    276.86697   -6710.9921   -6680.1072   -2982.0197    18455.831   0.82183502 
    1090    273.51021   -6710.6167   -6680.1062   -3002.8881    18455.831   0.82504043 
    1100    268.10286   -6710.0129   -6680.1056    -3041.916    18455.831   0.82859974 
    1110    268.86345   -6710.0983   -6680.1061   -3274.5241    18455.831   0.83307382 
    1120    271.12867   -6710.3511   -6680.1063   -3502.0504    18455.831   0.83788345 
    1130    271.41072   -6710.3825   -6680.1063   -3567.0764    18455.831   0.84210043 
    1140    271.86949   -6710.4327   -6680.1053   -3657.0206    18455.831   0.84510588 
    1150    281.86599   -6711.5491   -6680.1065   -4076.7437    18455.831    0.8468347 
    1160    288.73127   -6712.3154    -6680.107   -4317.2032    18455.831    0.8485126 
    1170    284.72713   -6711.8682   -6680.1065   -4221.6867    18455.831   0.85124425 
    1180    277.76624   -6711.0907   -6680.1055   -3786.2546    18455.831   0.85522238 
    1190    278.42764   -6711.1658   -6680.1068   -3453.5254    18455.831   0.86063272 
    1200    274.57485   -6710.7358   -6680.1066   -3135.4804    18455.831   0.86799772 
    1210    268.17301   -6710.0207   -6680.1056   -3061.7485    18455.831   0.87596914 
    1220    269.73514   -6710.1951   -6680.1058   -3498.6687    18455.831   0.88197829 
    1230    275.57277   -6710.8475    -6680.107   -3998.6686    18455.831   0.88464671 
    1240    273.28864   -6710.5919   -6680.1062   -4275.4959    18455.831   0.88485118 
    1250    269.21341   -6710.1371    -6680.106   -4301.1389    18455.831   0.88413656 
    1260    268.47841   -6710.0549   -6680.1057   -4311.1873    18455.831   0.88296339 
    1270    272.54156   -6710.5085   -6680.1061   -4356.8217    18455.831   0.88172746 
    1280    277.77621   -6711.0926   -6680.1063   -4588.2508    18455.831   0.88180594 
    1290    280.19269   -6711.3629    -6680.107   -4852.3632    18455.831   0.88389526 
    1300    274.38994   -6710.7142   -6680.1056   -4801.0391    18455.831   0.88737003 
    1310    272.68687   -6710.5248   -6680.1062   -4600.8128    18455.831   0.89133871 
    1320    273.33879   -6710.5972   -6680.1059   -4506.2257    18455.831   0.89528436 
    1330    275.86937     -6710.88   -6680.1064   -4590.7459    18455.831   0.89889495 
    1340    276.57557   -6710.9584    -6680.106   -4592.8619    18455.831   0.90245999 
    1350    276.61512   -6710.9634   -6680.1066   -4506.7758    18455.831   0.90646299 
    1360    272.26073   -6710.4771    -6680.106   -4467.2196    18455.831   0.91136845 
    1370    268.73878   -6710.0839   -6680.1057   -4589.1112    18455.831   0.91701889 
    1380    269.83102   -6710.2061    -6680.106   -4803.1401    18455.831   0.92344131 
    1390    271.01809   -6710.3391   -6680.1066   -4995.7936    18455.831   0.93117145 
    1400    266.53417   -6709.8383   -6680.1061   -4887.7324    18455.831   0.93925395 
    1410    264.34979   -6709.5941   -6680.1054   -4661.6641    18455.831   0.94440069 
    1420    271.24246   -6710.3639   -6680.1064   -4782.1646    18455.831   0.94464645 
    1430    278.14891   -6711.1341   -6680.1062   -5345.1098    18455.831   0.94130273 
    1440    284.26073    -6711.816   -6680.1063   -5956.3496    18455.831    0.9366539 
    1450    286.06102   -6712.0176    -6680.107   -6473.9841    18455.831   0.93338269 
    1460    278.13817   -6711.1322   -6680.1055    -6637.014    18455.831   0.93336514 
    1470    274.95588   -6710.7774   -6680.1057   -6848.7234    18455.831   0.93597431 
    1480    275.34081   -6710.8209   -6680.1062   -7017.9963    18455.831   0.93943367 
    1490    271.96867   -6710.4442   -6680.1057   -6827.7136    18455.831   0.94245071 
    1500    271.43894   -6710.3851   -6680.1057   -6399.8258    18455.831   0.94456699 
    1510    273.11981   -6710.5738   -6680.1069   -5919.9683    18455.831   0.94612167 
    1520    266.58025   -6709.8431   -6680.1057   -5429.0631    18455.831   0.94681802 
    1530    264.24493   -6709.5825   -6680.1056   -5386.7007    18455.831   0.94511663 
    1540    268.14703   -6710.0187   -6680.1065   -5636.8718    18455.831   0.94138542 
    1550    270.20911    -6710.248   -6680.1058   -5845.7424    18455.831   0.93815309 
    1560    276.27553   -6710.9252   -6680.1062   -5792.6983    18455.831   0.93754478 
    1570    281.48981   -6711.5074   -6680.1068   -5440.6487    18455.831   0.94039184 
    1580    279.21915   -6711.2534    -6680.106   -4999.2991    18455.831   0.94601391 
    1590     277.1071   -6711.0177    -6680.106   -4867.2447    18455.831   0.95254979 
    1600    278.30993   -6711.1519    -6680.106   -4854.7315    18455.831   0.95811089 
    1610    283.09805   -6711.6862   -6680.1062   -4922.4033    18455.831   0.96206314 
    1620    285.07138   -6711.9077   -6680.1076   -4696.0901    18455.831   0.96577017 
    1630    273.23535   -6710.5854   -6680.1056   -4246.7962    18455.831   0.97096923 
    1640     267.7179   -6709.9697   -6680.1053   -4035.6486    18455.831     0.977191 
    1650    272.52244   -6710.5064   -6680.1061   -4111.8074    18455.831   0.98346373 
    1660     277.8589   -6711.1018   -6680.1062   -4253.7363    18455.831   0.98934697 
    1670    281.07361    -6711.461   -6680.1068   -4561.0787    18455.831   0.99446833 
    1680    278.83973   -6711.2107   -6680.1057   -4801.2753    18455.831   0.99855733 
    1690    282.27607   -6711.5942   -6680.1059   -5070.8212    18455.831    1.0013333 
    1700    288.92729   -6712.3376   -6680.1074   -5075.7299    18455.831    1.0032748 
    1710    283.97303   -6711.7838   -6680.1062   -4524.3033    18455.831    1.0056492 
    1720    280.32496   -6711.3763   -6680.1056   -4088.2037    18455.831    1.0090707 
    1730    285.00962   -6711.9005   -6680.1072   -4166.6509    18455.831    1.0129097 
    1740    281.71349    -6711.532   -6680.1064   -4428.6075    18455.831    1.0162807 
    1750    277.27178   -6711.0355   -6680.1055   -4669.9286    18455.831    1.0185587 
    1760    282.23006   -6711.5895   -6680.1063   -4723.6015    18455.831    1.0199448 
    1770    285.90961   -6712.0006   -6680.1069   -4414.9618    18455.831      1.02094 
    1780    282.38129   -6711.6061    -6680.106   -3873.7091    18455.831    1.0213084 
    1790    282.44165    -6711.613   -6680.1062   -3619.8434    18455.831    1.0208436 
    1800    287.55602   -6712.1841   -6680.1067   -3726.4708    18455.831    1.0207901 
    1810    288.11308   -6712.2473   -6680.1079    -3934.633    18455.831    1.0230701 
    1820    276.98552   -6711.0034   -6680.1052    -4186.202    18455.831    1.0283135 
    1830    277.15263   -6711.0235   -6680.1067   -4345.9838    18455.831    1.0350393 
    1840    276.23823   -6710.9215   -6680.1067   -4368.7653    18455.831    1.0414724 
    1850    273.19513   -6710.5804   -6680.1051   -4416.5455    18455.831    1.0455768 
    1860    283.83055   -6711.7684   -6680.1067   -4696.8368    18455.831    1.0462471 
    1870    291.37755   -6712.6113   -6680.1077   -4729.2468    18455.831    1.0448258 
    1880    283.33807   -6711.7134   -6680.1066   -4658.1696    18455.831    1.0428769 
    1890    273.10669    -6710.571   -6680.1055   -4806.2478    18455.831     1.040683 
    1900    272.25017   -6710.4761   -6680.1062   -4992.1727    18455.831    1.0384095 
    1910    274.11365   -6710.6842   -6680.1065    -4851.611    18455.831    1.0367748 
    1920     274.3815    -6710.714   -6680.1064   -4374.9654    18455.831    1.0362621 
    1930    273.80361   -6710.6496   -6680.1064   -3953.3671    18455.831    1.0369737 
    1940    273.81216   -6710.6506   -6680.1064   -3660.7249    18455.831     1.038631 
    1950     274.0972   -6710.6826   -6680.1067   -3555.6748    18455.831    1.0408007 
    1960     275.1804   -6710.8028    -6680.106   -3995.0323    18455.831    1.0431217 
    1970    281.99645   -6711.5638   -6680.1067   -4818.7611    18455.831    1.0450424 
    1980     287.0536   -6712.1285   -6680.1072   -5430.2829    18455.831    1.0464652 
    1990    282.90097   -6711.6645   -6680.1064   -5324.8363    18455.831    1.0478613 
    2000    278.29624   -6711.1501   -6680.1058   -5003.2499    18455.831    1.0492005 
Loop time of 1465.5 on 16 procs for 2000 steps with 864 atoms

Performance: 0.118 ns/day, 203.542 hours/ns, 1.365 timesteps/s
97.3% CPU use with 16 MPI tasks x 1 OpenMP threads

MPI task timing breakdown:
Section |  min time  |  avg time  |  max time  |%varavg| %total
---------------------------------------------------------------
Pair    | 655.01     | 1089.7     | 1457.4     | 571.1 | 74.36
Bond    | 0.0001781  | 0.00050449 | 0.0013554  |   0.0 |  0.00
Neigh   | 0.01877    | 0.030032   | 0.049562   |   3.9 |  0.00
Comm    | 7.6656     | 334.33     | 769.6      | 967.0 | 22.81
Output  | 0.24861    | 23.366     | 57.479     | 446.6 |  1.59
Modify  | 0.0094812  | 0.01129    | 0.015325   |   1.4 |  0.00
Other   |            | 18.03      |            |       |  1.23

Nlocal:        54.0000 ave          86 max          35 min
Histogram: 1 1 3 7 2 1 0 0 0 1
Nghost:        537.750 ave         662 max         448 min
Histogram: 3 1 1 5 0 0 3 1 1 1
Neighs:         0.00000 ave           0 max           0 min
Histogram: 16 0 0 0 0 0 0 0 0 0
FullNghs:      2646.75 ave        5387 max        1216 min
Histogram: 2 2 3 4 3 1 0 0 0 1

Total # of neighbors = 42348
Ave neighs/atom = 49.013889
Ave special neighs/atom = 0.0000000
Neighbor list builds = 199
Dangerous builds = 198
Setting up Verlet run ...
  Unit style    : metal
  Current step  : 2000
  Time step     : 0.001
Per MPI rank memory allocation (min/avg/max) = 8.897 | 8.909 | 8.917 Mbytes
Step Temp PotEng TotEng Press Volume c_msd[4] 
    2000        712.5   -6711.1501   -6631.6697   -2200.0472    18455.831    1.0492005 
    2010     634.3721   -6702.4108   -6631.6456   -386.44141    18454.694    1.0536268 
    2020     521.8473   -6689.6932   -6631.4803    2155.7575    18453.151    1.0644433 
    2030    491.56246   -6685.8952   -6631.0607    2576.5137    18453.962    1.0741766 
    2040    479.03459   -6683.7691   -6630.3321    2183.0023    18457.799    1.0838205 
    2050    461.72224   -6680.9093   -6629.4035    2009.3405    18464.309    1.0937127 
    2060    471.40337   -6681.0321   -6628.4463     1473.382    18473.204     1.102426 
    2070     489.6819   -6682.1824   -6627.5577    1143.0705    18483.906    1.1108797 
    2080    499.03094   -6682.4028   -6626.7352     1460.928    18496.103    1.1196101 
    2090    502.40785   -6681.9428   -6625.8985    1342.4499    18510.051    1.1274557 
    2100    524.50552   -6683.4864    -6624.977     332.2203    18525.571     1.133872 
    2110    555.87512   -6685.9355   -6623.9268   -908.49039    18541.512    1.1409059 
    2120    544.62144   -6683.5682   -6622.8149   -935.34105    18556.515      1.15013 
    2130    514.11055   -6679.0688    -6621.719    159.84983    18570.559    1.1589915 
    2140    518.63163    -6678.459   -6620.6048    649.56948    18584.775    1.1654681 
    2150    519.44261   -6677.3761   -6619.4315    341.29735    18599.759    1.1711471 
    2160    526.90538   -6677.0091    -6618.232   -584.01535    18615.154    1.1771389 
    2170    547.31066    -6678.038   -6616.9847   -1377.3249     18629.91    1.1836655 
    2180    547.75267   -6676.8224   -6615.7197   -1440.9812     18643.11    1.1910321 
    2190    540.76573   -6674.7951   -6614.4719   -1102.9122    18654.641    1.1980815 
    2200    553.15267   -6674.9152   -6613.2102     -1125.87    18664.825    1.2041404 
    2210    565.21936   -6674.9615   -6611.9104    -1434.301    18673.632    1.2098293 
    2220    564.21562   -6673.5455   -6610.6064   -1687.3483    18680.717    1.2150994 
    2230    563.45442   -6672.1649   -6609.3107   -1989.6764    18685.755    1.2185028 
    2240    578.78021   -6672.5655   -6608.0017   -2389.5023    18688.347    1.2180726 
    2250    583.66137   -6671.7896   -6606.6812   -2555.6914    18688.045    1.2144719 
    2260    589.27692   -6671.1041   -6605.3694   -2329.7784    18684.631    1.2104139 
    2270    596.05939   -6670.5481   -6604.0568   -1648.4975    18678.373      1.20922 
    2280    593.80772   -6668.9822   -6602.7421   -647.05452    18670.101    1.2118975 
    2290    602.44815   -6668.6298   -6601.4258    401.82245    18661.013    1.2151092 
    2300    619.16754    -6669.154   -6600.0849    1083.5284    18652.337    1.2167427 
    2310      632.317   -6669.2824   -6598.7465    1448.6474    18644.929    1.2180177 
    2320    636.87917   -6668.4765   -6597.4317     1503.003    18639.243    1.2194909 
    2330    633.02166   -6666.7695    -6596.155    1151.1367    18635.354    1.2215522 
    2340    637.76151   -6666.0387   -6594.8954    94.461542    18632.789    1.2256365 
    2350    641.10204   -6665.1519    -6593.636   -742.66023     18630.36    1.2320283 
    2360    645.94084   -6664.4367    -6592.381   -816.32595    18627.107     1.238221 
    2370    662.74519   -6665.0606   -6591.1304   -546.82974    18622.885    1.2419521 
    2380    664.12792   -6663.9823   -6589.8979   -445.23196    18617.954    1.2448624 
    2390    663.70335   -6662.7383   -6588.7012   -494.18305    18612.441    1.2491792 
    2400    665.90091   -6661.7973    -6587.515     36.21945    18606.361    1.2563349 
    2410    663.00603   -6660.3011   -6586.3417    1003.7522    18600.366    1.2664917 
    2420    681.58985   -6661.2018   -6585.1694    1221.5896    18595.491    1.2792466 
    2430    684.40639   -6660.3527   -6584.0061    1200.0404    18592.083    1.2947242 
    2440    693.40883    -6660.232   -6582.8812     701.5097     18590.07    1.3108679 
    2450    696.36205   -6659.4721   -6581.7919    615.74261    18588.968    1.3256765 
    2460    694.28995   -6658.1902   -6580.7411    867.82749    18588.659    1.3373222 
    2470    718.02229   -6659.8181   -6579.7216    608.47672     18589.34    1.3445937 
    2480    722.16362   -6659.3041   -6578.7457    420.06043    18590.776    1.3505693 
    2490    710.46135   -6657.1066   -6577.8536    464.30774    18592.774    1.3580234 
    2500    705.17421   -6655.6747   -6577.0115     507.2691    18595.376    1.3680574 
    2510    708.50853   -6655.2257   -6576.1905    320.75191    18598.587    1.3812524 
    2520    705.04266   -6654.0381   -6575.3895    327.90588    18602.248     1.397147 
    2530    706.85084   -6653.4552   -6574.6049    173.60314    18606.319    1.4134336 
    2540    720.11857   -6654.1539   -6573.8236    319.80595    18610.666    1.4295098 
    2550       712.01    -6652.495   -6573.0692    1040.0611    18615.505    1.4465164 
    2560    714.85698   -6652.0978   -6572.3544    1464.7965    18621.614    1.4621008 
    2570    749.28965   -6655.2433   -6571.6589     835.3954     18629.42     1.473463 
    2580    773.98435   -6657.3674   -6571.0283    645.62197    18638.361    1.4835178 
    2590    755.04524   -6654.7667   -6570.5403    1228.5127    18648.239    1.4970165 
    2600    723.76507   -6650.9166   -6570.1795    1436.2469     18659.66    1.5140307 
    2610    718.64263   -6650.0327   -6569.8671    699.09222    18672.836    1.5321192 
    2620    732.90955    -6651.325   -6569.5678    -357.0991    18686.953    1.5503403 
    2630    727.02289    -6650.395   -6569.2945   -1121.7582    18700.771     1.568025 
    2640    720.93488   -6649.4783   -6569.0569   -941.35536    18713.416    1.5824966 
    2650    722.67147   -6649.4618   -6568.8467   -311.83849    18725.042    1.5924516 
    2660    736.33161    -6650.803   -6568.6641   -291.07667    18736.307    1.5998526 
    2670    734.97433   -6650.5114   -6568.5239   -290.50351     18747.32    1.6084082 
    2680    717.71732   -6648.4929   -6568.4305   -416.00202     18758.07    1.6175759 
    2690    720.64881   -6648.7441   -6568.3546   -1496.3071    18768.285    1.6251616 
    2700    726.64543   -6649.3503   -6568.2919   -2347.1756    18776.755    1.6352717 
    2710    712.42969   -6647.7257    -6568.253   -2209.6909    18782.515    1.6520601 
    2720    702.57956   -6646.5964   -6568.2226   -2012.1048    18785.571    1.6730735 
    2730    707.63075   -6647.1179   -6568.1806   -1889.5151    18786.135    1.6942298 
    2740     711.0582   -6647.4466    -6568.127   -1879.7805     18784.34    1.7116221 
    2750    711.35374   -6647.4268   -6568.0743   -1923.8595    18780.177    1.7241984 
    2760    698.57089   -6645.9399   -6568.0132   -1684.2274    18773.601    1.7359417 
    2770    694.07937   -6645.3523   -6567.9267   -1071.2379    18764.891    1.7493599 
    2780    698.06489   -6645.6649   -6567.7947   -175.65693     18754.79    1.7640595 
    2790    711.69976   -6647.0231   -6567.6319    311.25081    18744.323    1.7798601 
    2800    716.05909   -6647.3381   -6567.4606    309.86586    18734.098    1.7955492 
    2810     724.9187   -6648.1718    -6567.306   -156.17301    18724.091    1.8072086 
    2820    733.07407   -6648.9549   -6567.1794   -292.71264    18713.821     1.812678 
    2830    727.03445   -6648.1844   -6567.0826     352.0473    18703.172    1.8136607 
    2840    722.44029   -6647.6015   -6567.0122    1185.7603    18692.851    1.8129682 
    2850    722.11984   -6647.5099   -6566.9564    1473.6275    18683.814    1.8125657 
    2860    740.63004   -6649.5613   -6566.9429    1161.5695    18676.434    1.8147874 
    2870    734.71456   -6648.9417   -6566.9832    709.26677    18670.395    1.8226705 
    2880     730.5996   -6648.5752   -6567.0757    374.17322    18665.196    1.8344095 
    2890    738.18472    -6649.566   -6567.2204    98.902808    18660.406    1.8465495 
    2900    727.59227   -6648.5808   -6567.4168     193.3838    18655.725     1.857865 
    2910    720.07026   -6647.9694   -6567.6444     560.7588    18651.262    1.8656071 
    2920    730.39622   -6649.3844   -6567.9076    820.33371    18647.417     1.869021 
    2930    724.40293   -6649.0222   -6568.2139    1575.5641    18644.605    1.8717173 
    2940    716.72433      -6648.5   -6568.5483    1950.9375    18643.657    1.8732234 
    2950    717.24759   -6648.9138   -6568.9038    1245.9439    18644.981    1.8718619 
    2960    711.87522   -6648.6729   -6569.2621    456.57416    18647.856    1.8695004 
    2970    707.23847   -6648.5025    -6569.609      225.106    18651.398    1.8703921 
    2980    702.79881    -6648.333   -6569.9347     20.09767    18655.266     1.876255 
    2990     694.9973   -6647.7537   -6570.2257   -28.746301    18659.233    1.8835734 
    3000    698.66161   -6648.4168     -6570.48    337.23236    18663.266    1.8897021 
    3010    706.74975   -6649.5577   -6570.7187    758.07427    18667.784    1.8946312 
    3020    706.60341   -6649.7585   -6570.9359    555.06144    18673.221    1.8983032 
    3030     724.4005   -6651.9522   -6571.1443    204.13259    18679.393    1.8991384 
    3040     723.3509   -6652.0599    -6571.369    301.92245    18685.938    1.8964284 
    3050    713.69036   -6651.2276   -6571.6144     241.8476    18692.901    1.8901635 
    3060    708.94256   -6650.9502   -6571.8665   -348.75828    18700.161    1.8805842 
    3070    701.22277    -6650.341   -6572.1186   -343.76165    18707.131     1.869819 
    3080    690.96973   -6649.4264   -6572.3477    -55.32204    18713.785     1.861007 
    3090    688.56804   -6649.3375   -6572.5267   -717.12743    18720.316    1.8566843 
    3100    690.87037    -6649.708   -6572.6404   -1475.5376    18726.003    1.8588041 
    3110    687.50865   -6649.3977   -6572.7051   -1151.0319    18730.025    1.8676982 
    3120    673.09775   -6647.7918   -6572.7068   -159.98706    18732.718    1.8827923 
    3130    671.11353    -6647.491   -6572.6273    231.42432    18735.148    1.9022281 
    3140    671.02055   -6647.3072   -6572.4538    289.54191    18737.841    1.9224299 
    3150     671.3096   -6647.0828   -6572.1972    407.90774    18740.914    1.9396038 
    3160    673.65087    -6647.002   -6571.8552     182.6307     18744.47    1.9513124 
    3170    684.15905   -6647.7535   -6571.4345     162.9305    18748.292    1.9560399 
    3180    671.04296   -6645.8013   -6570.9454    743.41495    18752.401    1.9572946 
    3190    690.47316   -6647.4136   -6570.3903    759.36948    18757.378    1.9582772 
    3200    720.73349   -6650.1698   -6569.7709    400.69922    18763.279    1.9605584 
    3210    737.10191   -6651.3808    -6569.156    216.87098    18769.737    1.9646623 
    3220    742.92251   -6651.4805   -6568.6063   -3.4891751    18776.484     1.971607 
    3230    731.62819   -6649.7538   -6568.1396    230.81169    18783.322    1.9813542 
    3240    731.77494   -6649.3773   -6567.7467    228.60333    18790.446    1.9924304 
    3250    712.57818     -6646.89   -6567.4008    274.13175    18797.914    2.0048447 
    3260    700.45109   -6645.2119   -6567.0756    305.26474    18805.761     2.016252 
    3270    709.00102   -6645.8221   -6566.7319     204.3697    18814.026    2.0257363 
    3280     715.6057   -6646.1964   -6566.3695    103.26062    18822.612    2.0379114 
    3290    734.05389   -6647.9032   -6566.0184   -398.31837    18831.327    2.0543793 
    3300     744.3705   -6648.7363   -6565.7007   -1121.2939     18839.58    2.0686215 
    3310    745.09661   -6648.5706   -6565.4539   -1356.9223    18846.556    2.0750796 
    3320    743.38194   -6648.2155   -6565.2901   -1221.1214    18851.918    2.0787655 
    3330    727.72514   -6646.3712   -6565.1924   -544.69464    18855.854    2.0855597 
    3340    726.79297   -6646.2212   -6565.1464   -59.330855    18859.091    2.0953072 
    3350    721.91028   -6645.6665   -6565.1363    439.51185    18862.296    2.1065492 
    3360    718.57916   -6645.3157   -6565.1571    886.60237    18866.082    2.1176239 
    3370    727.82493   -6646.3871   -6565.1971    864.28541    18870.976    2.1273667 
    3380    731.79381   -6646.8944   -6565.2617    232.24643    18876.919    2.1370072 
    3390    729.84884   -6646.7723   -6565.3566   -443.41818    18883.192    2.1461755 
    3400    736.39221   -6647.6427    -6565.497   -956.97912    18888.974    2.1533682 
    3410    729.49166   -6647.0726   -6565.6967   -1075.8452    18893.634    2.1590005 
    3420    698.36187   -6643.8237   -6565.9204   -450.56429    18897.072    2.1649512 
    3430    691.63974   -6643.2701   -6566.1166   -2.2621541    18899.964    2.1725413 
    3440    713.82415   -6645.9069   -6566.2787   -29.827254    18902.829    2.1816948 
    3450    716.49012   -6646.3628   -6566.4373    61.320526    18905.694     2.191542 
    3460    712.45236   -6646.0776   -6566.6025   -116.46347    18908.625    2.1989432 
    3470    715.06666   -6646.5313   -6566.7646   -730.83041    18911.375    2.2022909 
    3480    725.87327   -6647.9046   -6566.9323   -1442.1182    18913.214      2.20451 
    3490    724.48031    -6647.947   -6567.1301   -1889.4345    18913.279    2.2080774 
    3500    698.04823   -6645.2119   -6567.3435   -1776.3882    18911.026    2.2115743 
    3510    696.22089   -6645.1975    -6567.533   -1634.8434    18906.543    2.2109805 
    3520    713.87659   -6647.3382   -6567.7042   -1683.2709    18899.966    2.2063709 
    3530    720.03362   -6648.1958   -6567.8749   -1124.0963    18891.356    2.1997603 
    3540    731.53211   -6649.6847   -6568.0811   -719.46207    18881.316    2.1921752 
    3550    720.18765   -6648.6669   -6568.3289   -200.88093    18870.384    2.1884583 
    3560    701.02732   -6646.7726   -6568.5719    476.43433    18859.214    2.1909306 
    3570    710.00179   -6647.9903   -6568.7885    652.17975     18848.59    2.1974733 
    3580    718.48417   -6649.1549   -6569.0069    795.08229    18838.803    2.2059956 
    3590     709.2575   -6648.3519   -6569.2332    1111.9024    18830.058    2.2149703 
    3600      698.026   -6647.3199    -6569.454    1394.6197    18822.713    2.2245558 
    3610    684.08481   -6645.9401   -6569.6294    1600.9623    18817.126     2.235194 
    3620    709.37266   -6648.8972   -6569.7656     968.5018    18813.448    2.2447589 
    3630    714.82508   -6649.6329   -6569.8931    611.59874    18811.033    2.2522512 
    3640    701.10322   -6648.2283   -6570.0191    613.82803    18809.444    2.2571792 
    3650    723.11409   -6650.8082   -6570.1438   -427.94315    18808.473    2.2598718 
    3660    730.99142   -6651.8346   -6570.2914   -965.22766    18807.049    2.2627001 
    3670    714.73449   -6650.2076   -6570.4779   -372.34092    18804.559    2.2665406 
    3680      704.843    -6649.296   -6570.6697    840.29259    18801.716    2.2713662 
    3690    708.22744   -6649.8573   -6570.8534    1215.4348    18799.845     2.274826 
    3700    708.17914   -6650.0267   -6571.0282    388.20499    18799.359     2.274963 
    3710    706.61393   -6650.0231   -6571.1992   -694.92379    18799.328    2.2740075 
    3720    698.01777   -6649.2229   -6571.3579     -1165.31    18798.496    2.2744956 
    3730    693.99442   -6648.9108   -6571.4947     -774.643      18796.3    2.2762753 
    3740    677.22722   -6647.1314   -6571.5856    529.23746    18793.244    2.2783158 
    3750    679.99517   -6647.4594   -6571.6049    1247.5666    18790.786    2.2815234 
    3760    716.81495   -6651.5381   -6571.5763    716.82474    18789.742    2.2897418 
    3770    710.76404   -6650.8204   -6571.5336    229.72663     18789.62    2.3051439 
    3780    710.71228   -6650.7821    -6571.501   -213.07765    18789.781    2.3219274 
    3790    708.27561   -6650.4641   -6571.4549    24.487836    18789.771    2.3333393 
    3800    698.02527   -6649.2654   -6571.3996    876.61744    18789.864    2.3393626 
    3810    672.42722   -6646.3115   -6571.3012    1672.9348    18791.044    2.3434077 
    3820    678.14097   -6646.7782   -6571.1305    1295.5137    18794.175    2.3459652 
    3830    693.16798   -6648.1962   -6570.8723    -178.0825    18798.808     2.350894 
    3840    697.71738    -6648.384   -6570.5526   -1223.2374    18803.291    2.3608265 
    3850    698.21989   -6648.0772   -6570.1897   -1194.6451    18806.377    2.3711816 
    3860    711.80137   -6649.1974   -6569.7949   -720.81013    18808.038    2.3765992 
    3870     730.1099   -6650.8348     -6569.39    -931.6182    18808.731    2.3781659 
    3880    736.31209   -6651.1565   -6569.0197   -1421.4736    18808.241    2.3813706 
    3890     724.8643    -6649.556   -6568.6963   -1388.3383    18806.041    2.3904313 
    3900    729.90381   -6649.8351   -6568.4132   -1173.7764    18802.132    2.4046596 
    3910    735.49394   -6650.2062   -6568.1608     -841.392    18796.781    2.4196547 
    3920    739.60963   -6650.4646   -6567.9601   -546.66668    18790.361    2.4300349 
    3930    720.41121   -6648.1699   -6567.8069    218.53768     18783.32    2.4336172 
    3940    712.61905   -6647.1717   -6567.6779    1091.1286    18776.567    2.4329502 
    3950    717.24191    -6647.565   -6567.5556     1634.352     18771.14    2.4342354 
    3960    701.56676   -6645.6985   -6567.4376    2017.3517    18767.716    2.4394894 
    3970    697.68789   -6645.1314   -6567.3033    2003.8978    18766.752    2.4428269 
    3980    714.01977   -6646.7866   -6567.1366    1229.7375    18768.206    2.4381729 
    3990    716.90914   -6646.9302   -6566.9579    624.47203     18771.23    2.4284607 
    4000    712.60716   -6646.2713   -6566.7789    228.94176    18775.066     2.419849 
    4010    724.34987   -6647.3999   -6566.5976   -381.27258    18779.181    2.4144943 
    4020     735.6625    -6648.488   -6566.4237    -1050.259    18782.855    2.4108827 
    4030    744.59053   -6649.3562    -6566.296   -1759.6746    18785.213    2.4059526 
    4040    737.93484   -6648.5491   -6566.2314   -1621.8293    18785.493    2.3993862 
    4050    727.34857   -6647.3615   -6566.2247   -1468.9234    18783.751    2.3946066 
    4060    727.61811    -6647.425   -6566.2581   -1365.4398    18780.174    2.3954593 
    4070    730.40857     -6647.81   -6566.3318   -879.67373    18774.947    2.4022614 
    4080    725.43645   -6647.3691   -6566.4456   -245.69665    18768.638    2.4120773 
    4090      744.459   -6649.6591   -6566.6136   -229.95799    18761.917    2.4228889 
    4100    744.66755   -6649.9412   -6566.8724     -60.0675    18754.906    2.4342193 
    4110     708.7787   -6646.2689   -6567.2035    588.09563    18747.853    2.4408264 
    4120    711.27141   -6646.9079   -6567.5645    694.94206    18741.455     2.438362 
    4130    717.06529   -6647.9586   -6567.9689    562.13727    18735.861    2.4341581 
    4140    691.46913   -6645.5234   -6568.3889    987.18516    18731.034    2.4344787 
    4150    701.55331   -6647.0676   -6568.8082    978.60287    18727.365    2.4366886 
    4160    692.72215   -6646.4824   -6569.2082    1326.7219    18724.942    2.4413868 
    4170    686.79031   -6646.1957   -6569.5832    1870.0902    18724.199    2.4486185 
    4180    690.37466   -6646.9424   -6569.9301    1774.6197    18725.699    2.4576148 
    4190    690.43812   -6647.2671   -6570.2477    1498.7891    18729.378    2.4671609 
    4200    689.44493    -6647.435   -6570.5264    1124.1635    18734.926    2.4746633 
    4210    701.16659   -6648.9849   -6570.7687    244.01372     18741.84    2.4797867 
    4220    705.71586   -6649.7122   -6570.9886   -657.98421    18749.104    2.4850266 
    4230    703.06203   -6649.6302   -6571.2026   -1675.6951    18755.572    2.4924911 
    4240    697.69757   -6649.2378   -6571.4086   -2620.7758    18759.995    2.5008209 
    4250    688.52196   -6648.4039   -6571.5982   -2354.2587     18761.33    2.5075671 
    4260     688.3787   -6648.5494   -6571.7597    -1640.319    18759.795    2.5116364 
    4270     695.5642   -6649.4819   -6571.8907    -866.3011    18756.235    2.5148355 
    4280    697.06067   -6649.7503   -6571.9922    -88.87789    18751.596    2.5180085 
    4290    706.73493   -6650.9153    -6572.078    127.81803    18746.746    2.5192768 
    4300    710.03991   -6651.3616   -6572.1556    386.15726    18742.032      2.51774 
    4310    711.72104   -6651.6358   -6572.2422    552.26509    18737.766     2.514058 
    4320    720.64881   -6652.7414   -6572.3519    65.260617    18734.076    2.5125012 
    4330    714.04618   -6652.1477   -6572.4947    104.72469    18730.505    2.5164022 
    4340    700.75485   -6650.8385   -6572.6682    831.00365    18727.098    2.5261259 
    4350    684.09425   -6649.1525   -6572.8407    1294.1581    18724.666    2.5415618 
    4360    696.47873   -6650.6834   -6572.9902    821.06412    18723.734    2.5602142 
    4370    729.42723   -6654.5095   -6573.1407     60.35827    18723.786    2.5819151 
    4380    733.48539   -6655.1699   -6573.3485    2.3636813    18724.011    2.6067866 
    4390    711.39305   -6652.9834   -6573.6264    146.61603    18724.285     2.631105 
    4400    705.30617   -6652.6161   -6573.9381   -490.02721    18724.651    2.6480834 
    4410    714.57946   -6653.9868   -6574.2744   -920.04531    18724.454    2.6554495 
    4420    697.44502   -6652.4368   -6574.6358   -514.26092    18723.196     2.656478 
    4430    677.94588   -6650.6132   -6574.9873    297.89314    18721.324    2.6555973 
    4440    677.16545   -6650.8309    -6575.292    941.51889    18719.789    2.6577506 
    4450    677.79708    -6651.146   -6575.5367    1267.9799    18719.372    2.6655311 
    4460    676.85242   -6651.2164   -6575.7125    1289.0086    18720.502    2.6792771 
    4470    690.40312   -6652.8455     -6575.83    740.94303    18723.185    2.6969827 
    4480    691.65339   -6653.0517   -6575.8967     351.5945    18726.855     2.714683 
    4490    700.57858   -6654.0825   -6575.9319    113.39602    18731.009    2.7276514 
    4500    704.83613   -6654.5669   -6575.9414    433.04644    18735.433    2.7349226 
    4510    700.21856   -6654.0469   -6575.9364    654.87859    18740.435    2.7396365 
    4520    685.46535   -6652.3652   -6575.9005    359.63522    18746.273    2.7434984 
    4530    684.14146   -6652.1244   -6575.8074   -426.38235    18752.607    2.7480991 
    4540    698.20904   -6653.5368   -6575.6505   -1100.2926    18758.508    2.7579184 
    4550      691.691   -6652.5948   -6575.4356   -763.00773    18763.249    2.7759588 
    4560    690.26427   -6652.1618   -6575.1618   -593.37274    18767.074    2.8004669 
    4570    705.63367   -6653.5345     -6574.82    -1093.018    18770.144    2.8269418 
    4580    714.08784    -6654.086   -6574.4285   -1654.2401    18771.897    2.8484605 
    4590     712.4126   -6653.4877    -6574.017   -1728.1866    18771.658    2.8601988 
    4600    698.00484   -6651.4518   -6573.5883   -1195.0127    18769.322    2.8627307 
    4610     691.4699   -6650.2584   -6573.1239   -393.32654    18765.477    2.8610818 
    4620    695.69645   -6650.2087   -6572.6027    411.38587    18761.085    2.8610546 
    4630    712.40116   -6651.5147   -6572.0453    985.87663    18757.108    2.8635282 
    4640    712.82603   -6651.0025   -6571.4857     1553.322    18754.307    2.8667869 
    4650    728.54132   -6652.2312   -6570.9613    1775.2806    18753.362    2.8675763 
    4660    740.47272   -6653.0933   -6570.4924     1678.552    18754.569    2.8663587 
    4670    730.67777     -6651.62   -6570.1118     1972.432    18757.961    2.8657889 
    4680    731.86671   -6651.4543   -6569.8134    2093.9353    18763.861     2.865939 
    4690    739.21373   -6652.0474   -6569.5869     2337.861    18772.535    2.8689918 
    4700    736.48932    -6651.597   -6569.4405    2271.2971    18784.281    2.8737092 
    4710    720.85061   -6649.7693   -6569.3573    1542.0797    18799.058    2.8750435 
    4720     725.8707   -6650.2737   -6569.3017    93.696452     18815.96    2.8721526 
    4730    718.64758   -6649.4156   -6569.2493   -374.63968    18833.416    2.8722707 
    4740    714.27938   -6648.8884   -6569.2095   -301.24999    18850.785    2.8794428 
    4750    729.20878   -6650.5264   -6569.1821    -260.4845    18868.092    2.8892821 
    4760    735.91813   -6651.2819   -6569.1892   -178.85126    18885.397    2.8971627 
    4770     720.9974   -6649.6687   -6569.2403   -568.64229    18902.732    2.8996768 
    4780    710.27837   -6648.5403   -6569.3077   -1228.9404    18919.615    2.8957917 
    4790    707.94168   -6648.3415   -6569.3695   -1915.8039    18935.208    2.8894359 
    4800    692.48713   -6646.6664   -6569.4184    -2199.048    18948.693    2.8850083 
    4810    690.40857   -6646.4522    -6569.436    -2475.656    18959.606     2.884907 
    4820    697.50076   -6647.2035   -6569.3963    -3105.143    18967.496    2.8904106 
    4830    707.84682   -6648.2745   -6569.3131   -3987.9542    18971.512    2.9002788 
    4840     717.1699   -6649.2291   -6569.2277   -4314.6632    18970.557    2.9125955 
    4850    704.88569    -6647.791     -6569.16    -3352.715    18964.221     2.924854 
    4860    698.40626   -6646.9932   -6569.0849   -1869.7223    18953.566    2.9331682 
    4870    712.01776    -6648.401   -6568.9743   -862.66687    18940.322    2.9369161 
    4880    721.95021   -6649.3702   -6568.8355   -274.39527    18925.758    2.9406179 
    4890    719.66334   -6648.9576   -6568.6781    221.50769    18910.657    2.9451381 
    4900    720.40074   -6648.8569   -6568.4951    227.33946    18895.584    2.9488383 
    4910    728.98441   -6649.6103    -6568.291   -211.62609    18880.562    2.9524197 
    4920    715.03507     -6647.83   -6568.0668   -370.40728    18865.151    2.9544169 
    4930    697.66913   -6645.6247   -6567.7987   -510.23887    18849.115    2.9534791 
    4940    703.53968     -6645.92   -6567.4391   -843.50019    18832.242    2.9521316 
    4950    711.18376   -6646.2992   -6566.9656   -480.75753    18814.226    2.9542908 
    4960    711.44662   -6645.7479   -6566.3849     661.1924    18795.516    2.9605398 
    4970    722.77168   -6646.3393   -6565.7131    1878.1619     18777.46    2.9686342 
    4980    745.94999   -6648.1964   -6564.9845    2648.5641     18761.52    2.9764842 
    4990    758.30053   -6648.8672   -6564.2776    3250.2178    18748.707    2.9858868 
    5000    752.49833   -6647.6114   -6563.6691    3658.8444     18739.81    2.9978515 
Loop time of 2369.94 on 16 procs for 3000 steps with 864 atoms

Performance: 0.109 ns/day, 219.439 hours/ns, 1.266 timesteps/s
97.5% CPU use with 16 MPI tasks x 1 OpenMP threads

MPI task timing breakdown:
Section |  min time  |  avg time  |  max time  |%varavg| %total
---------------------------------------------------------------
Pair    | 1476.2     | 2014.6     | 2283.5     | 568.1 | 85.01
Bond    | 0.00026369 | 0.00072683 | 0.0015666  |   0.0 |  0.00
Neigh   | 0.033213   | 0.044007   | 0.059115   |   3.4 |  0.00
Comm    | 64.908     | 276.71     | 839.3      |1477.8 | 11.68
Output  | 0.19233    | 0.20654    | 0.41793    |  12.0 |  0.01
Modify  | 2.4748     | 78.348     | 153.58     | 658.3 |  3.31
Other   |            | 0.01623    |            |       |  0.00

Nlocal:        54.0000 ave          68 max          45 min
Histogram: 4 2 1 0 2 3 2 1 0 1
Nghost:        541.438 ave         657 max         466 min
Histogram: 4 0 4 2 1 0 3 0 0 2
Neighs:         0.00000 ave           0 max           0 min
Histogram: 16 0 0 0 0 0 0 0 0 0
FullNghs:      2539.75 ave        3924 max        1712 min
Histogram: 4 1 2 1 4 1 2 0 0 1

Total # of neighbors = 40636
Ave neighs/atom = 47.032407
Ave special neighs/atom = 0.0000000
Neighbor list builds = 300
Dangerous builds = 300
Setting up Verlet run ...
  Unit style    : metal
  Current step  : 5000
  Time step     : 0.001
Per MPI rank memory allocation (min/avg/max) = 8.904 | 8.910 | 8.917 Mbytes
Step Temp PotEng TotEng Press Volume c_msd[4] 
    5000    752.49833   -6647.6114   -6563.6691    3658.8444     18739.81    2.9978515 
    5010    742.88939   -6646.5862   -6563.7158    3165.0349     18742.01    3.0107753 
    5020    751.20738   -6647.6484   -6563.8501     2051.017    18748.055    3.0214388 
    5030    748.62206   -6647.5849    -6564.075    1497.0029    18756.719    3.0295712 
    5040    730.07858   -6645.8235   -6564.3821     1436.906      18767.3    3.0374467 
    5050    718.53328   -6644.8849   -6564.7314    1253.4773    18779.667     3.047221 
    5060    726.27032   -6646.1235    -6565.107    838.50452    18793.589    3.0596779 
    5070    727.68982   -6646.6929    -6565.518    542.72918    18808.622    3.0753471 
    5080    734.48872   -6647.9106   -6565.9773    18.397237    18824.352    3.0943555 
    5090    740.36253   -6649.0837   -6566.4952   -634.20879    18840.119    3.1169309 
    5100    719.22214   -6647.2836   -6567.0533   -812.43771    18855.181    3.1415248 
    5110    698.58604   -6645.5239   -6567.5956   -364.13392    18869.322    3.1632451 
    5120     691.9648   -6645.2639   -6568.0742    195.18283    18883.047    3.1789774 
    5130    706.72596   -6647.3252   -6568.4889   -234.65907    18896.923    3.1885509 
    5140    717.10846   -6648.8515   -6568.8569   -1012.8919    18910.507    3.1964652 
    5150    699.66236   -6647.2331   -6569.1848   -1563.9297    18922.879    3.2069975 
    5160    677.89988   -6645.0555   -6569.4347   -2083.4193    18933.308    3.2203443 
    5170    690.43755   -6646.6199   -6569.6005   -2567.0772    18941.142    3.2340263 
    5180    689.66045   -6646.6317    -6569.699   -2610.4917    18945.809    3.2472592 
    5190    673.80754    -6644.899   -6569.7348   -2332.8983    18947.221    3.2586077 
    5200    679.21525   -6645.4659   -6569.6984   -2249.9293    18945.661    3.2659619 
    5210    703.60603   -6648.0973    -6569.609   -2186.4525    18941.257    3.2679839 
    5220    718.58792    -6649.673   -6569.5134   -2046.5252    18934.092    3.2668653 
    5230    713.42875   -6649.0244   -6569.4403   -1944.1847    18924.315    3.2678429 
    5240    703.73463   -6647.8879   -6569.3853   -1651.0233    18912.073      3.27303 
    5250    699.76468   -6647.3853   -6569.3255     -1068.03     18897.76    3.2799277 
    5260    695.16708   -6646.7918   -6569.2449   -518.79292    18882.076    3.2863602 
    5270    693.75092   -6646.5269   -6569.1379   -375.79551    18865.657    3.2938886 
    5280    701.39643   -6647.2495   -6569.0077   -226.10082    18848.732     3.302808 
    5290    701.03082   -6647.0609   -6568.8599    705.28477    18831.585    3.3106125 
    5300    716.13257   -6648.5825   -6568.6968    1399.5605     18815.27     3.313679 
    5310    741.20724   -6651.2314   -6568.5487    1354.5146    18800.615    3.3127462 
    5320    749.21006   -6652.0484   -6568.4729    1047.8854    18787.603    3.3140657 
    5330    735.99352   -6650.5807   -6568.4795    1018.9082    18775.918    3.3201378 
    5340    725.79014   -6649.5024   -6568.5394    1379.6948    18765.538    3.3273361 
    5350    710.30241   -6647.8494   -6568.6141    2235.2421    18756.922     3.336043 
    5360    693.31177   -6646.0171   -6568.6772    2794.1786    18751.037     3.347602 
    5370    697.01235   -6646.4582   -6568.7054     2031.672    18748.467    3.3574918 
    5380    715.74231   -6648.5471   -6568.7049    591.08933    18748.334    3.3648291 
    5390    723.53493   -6649.4252   -6568.7137   -186.87659    18749.019    3.3712973 
    5400    713.81129   -6648.3804   -6568.7537    -307.8185    18749.556    3.3801405 
    5410     702.6441   -6647.1866   -6568.8056   -206.03511    18749.738    3.3939855 
    5420    685.77377   -6645.3265   -6568.8274   -130.16635    18749.659    3.4107884 
    5430    679.01318   -6644.5295   -6568.7846   -78.813037    18749.421     3.427261 
    5440    702.03356   -6646.9886   -6568.6757   -65.311097    18749.076    3.4426022 
    5450    698.88213   -6646.4832   -6568.5218    619.84326    18748.753    3.4576108 
    5460    688.45631   -6645.1306   -6568.3323    1000.3026     18749.17    3.4703266 
    5470    710.24894   -6647.3253    -6568.096    397.62061    18750.715    3.4786046 
    5480    721.84504   -6648.3449    -6567.822   -88.799476    18752.791    3.4850873 
    5490    725.25634   -6648.4412   -6567.5377   -721.95407    18754.725    3.4922679 
    5500    720.40186   -6647.6067   -6567.2448   -924.81591    18755.818    3.4995427 
    5510    699.66147   -6644.9772   -6566.9289   -378.63674     18755.85    3.5049388 
    5520    699.80334   -6644.6204   -6566.5563    439.61187    18755.438    3.5094441 
    5530    701.61517   -6644.3599   -6566.0937    1364.5354    18755.598     3.518378 
    5540    687.40739   -6642.2125   -6565.5311    1936.4591    18757.422    3.5314451 
    5550    695.89308   -6642.4707   -6564.8428    1641.4911    18761.547    3.5419542 
    5560    720.77445   -6644.4204    -6564.017    1148.0384    18767.678    3.5479617 
    5570    734.83931   -6645.1051   -6563.1326     1240.116    18775.279    3.5541317 
    5580    735.51135   -6644.3334    -6562.286    1436.7695    18784.402    3.5664583 
    5590     744.0851   -6644.5413   -6561.5375    1231.2084    18795.258    3.5855629 
    5600    750.27101   -6644.6121   -6560.9182    640.64759    18807.584    3.6090426 
    5610    752.42436   -6644.3965   -6560.4624    375.80265    18820.747    3.6332702 
    5620    743.96857   -6643.1526   -6560.1617   -9.2992087     18834.36    3.6527882 
    5630     731.5038   -6641.5799   -6559.9796   -437.36403     18847.96     3.663179 
    5640    729.83463   -6641.2836   -6559.8694   -744.80451    18861.006    3.6652369 
    5650    737.41579   -6642.0755   -6559.8157   -820.90601    18873.128    3.6655944 
    5660    737.92565   -6642.1343   -6559.8176   -724.45338    18884.236    3.6712709 
    5670    732.37928   -6641.5707   -6559.8727   -734.30504    18894.418    3.6821909 
    5680     728.0525   -6641.1794   -6559.9641    -977.6168    18903.634    3.6941357 
    5690    724.24173   -6640.8661   -6560.0758   -888.87141     18911.67    3.7020675 
    5700    730.74222   -6641.7184    -6560.203   -1106.5348    18918.558    3.7010815 
    5710    741.83418   -6643.1139   -6560.3611   -1691.2964    18923.991     3.694813 
    5720    735.08327   -6642.5616    -6560.562   -1381.0603    18927.405    3.6915908 
    5730    727.10232   -6641.9036   -6560.7943   -1161.2667    18929.051    3.6943661 
    5740    723.26811   -6641.7233   -6561.0417   -1250.1769    18929.208    3.7048035 
    5750    722.64543   -6641.9126   -6561.3004   -1338.1374     18927.78    3.7223862 
    5760    726.76075   -6642.6388   -6561.5675   -1306.7838    18924.675     3.740037 
    5770    730.07416   -6643.3011   -6561.8602   -894.42034    18919.961    3.7517408 
    5780    704.96854   -6640.7957   -6562.1554    177.28785    18914.186    3.7586751 
    5790    702.22839   -6640.7591   -6562.4245    544.34212    18908.555    3.7632085 
    5800    703.63641   -6641.1515   -6562.6598    273.67325    18903.558    3.7696103 
    5810    712.33711   -6642.3375   -6562.8752   -219.29402    18898.881    3.7814525 
    5820    706.70625    -6641.912   -6563.0779    28.292809    18894.019    3.7962225 
    5830     702.6734   -6641.6389   -6563.2546    552.70182     18889.22    3.8097223 
    5840    724.71302   -6644.2638    -6563.421    490.30413    18885.025    3.8196835 
    5850    719.42749   -6643.8535   -6563.6003    1113.9132    18881.535    3.8242194 
    5860    722.67032   -6644.4179   -6563.8029    1132.9237    18879.356    3.8211276 
    5870    724.19034   -6644.8074   -6564.0229    947.65183    18878.595    3.8098694 
    5880    717.82361   -6644.3424   -6564.2681    723.88021    18879.011    3.7938183 
    5890    724.37508   -6645.3361   -6564.5309    172.02083    18880.306    3.7795965 
    5900    728.30352   -6646.0728   -6564.8295   -334.99218    18881.831    3.7732761 
    5910    695.82308     -6642.76   -6565.1399   -93.168955     18883.04    3.7722256 
    5920    694.94548   -6642.9392    -6565.417   -368.50392    18884.065    3.7659376 
    5930    731.64078   -6647.2988   -6565.6832   -896.47564    18884.605    3.7526177 
    5940    739.31504   -6648.4719   -6566.0002    -194.3844    18884.169    3.7377568 
    5950    704.93142   -6644.9967   -6566.3605    1441.8911    18883.588    3.7237063 
    5960    694.85623    -6644.222   -6566.7097    2044.0638    18884.686    3.7113214 
    5970    703.80114   -6645.5484   -6567.0383    1126.9611    18888.202    3.7045054 
    5980    702.36115    -6645.702   -6567.3525   -161.74231    18893.133    3.7052737 
    5990     704.7697    -6646.277   -6567.6588   -1450.4724    18897.862    3.7117994 
    6000    675.24004   -6643.2586   -6567.9345   -1332.4613    18900.979    3.7227129 
    6010    660.39738    -6641.807   -6568.1387   -1209.8378    18902.431    3.7327799 
    6020    684.48399   -6644.6138   -6568.2585   -1568.5837     18902.32     3.737889 
    6030     690.0561   -6645.2923   -6568.3155    -1406.725      18900.3    3.7417246 
    6040    686.14875   -6644.8662   -6568.3252   -1199.4082    18896.488    3.7481857 
    6050     698.1157   -6646.1646   -6568.2887   -1478.4102    18891.064     3.756334 
    6060    704.70363   -6646.8201   -6568.2094   -1136.5315    18883.819    3.7607912 
    6070    704.75545   -6646.7018   -6568.0853   -374.82953    18875.146    3.7576783 
    6080    708.00928   -6646.8785    -6567.899   -197.79406     18865.86    3.7502192 
    6090    714.30275   -6647.3236    -6567.642   -48.446598    18856.221     3.743628 
    6100    701.33059   -6645.5234   -6567.2889     778.2981    18846.529    3.7404876 
    6110    721.55142   -6647.3097   -6566.8195     944.2424    18837.643    3.7412048 
    6120    735.65989   -6648.2985   -6566.2345    1025.3822     18829.86    3.7478681 
    6130    733.87247   -6647.4626    -6565.598    1136.3643    18823.287    3.7590541 
    6140    733.12544   -6646.7238   -6564.9426    1221.6996    18818.077    3.7708763 
    6150     727.4629   -6645.4448   -6564.2952    1717.1637    18814.402    3.7803841 
    6160    705.15813   -6642.3325    -6563.671    2129.0846    18812.835    3.7906816 
    6170      699.969   -6641.1426     -6563.06    1499.8496      18813.8    3.8040439 
    6180    712.18597   -6641.8847   -6562.4393     431.5162    18816.624    3.8162375 
    6190    727.81392   -6643.0227   -6561.8339   -202.61648    18820.064    3.8238909 
    6200    723.85894   -6642.0335   -6561.2859    384.31645    18823.439    3.8285325 
    6210    738.65862   -6643.2147   -6560.8162    896.78981    18827.318    3.8314548 
    6220    741.95426   -6643.1984   -6560.4323    1222.8865    18832.357    3.8370976 
    6230    708.76913   -6639.1968   -6560.1325    1519.0327    18839.008    3.8472196 
    6240    706.12965   -6638.6359   -6559.8661    858.60248    18847.557    3.8573144 
    6250    714.08557   -6639.2519   -6559.5946   -110.19195    18857.257     3.867699 
    6260    721.54773    -6639.822   -6559.3323   -414.75508     18867.03    3.8771587 
    6270    745.13859   -6642.2248   -6559.1035   -360.06681    18876.474    3.8834355 
    6280    757.02212   -6643.3978   -6558.9508   -287.17666    18885.605    3.8895814 
    6290    743.96768   -6641.8857    -6558.895     112.7488    18894.552    3.8978256 
    6300    743.37808   -6641.8493   -6558.9244    569.97197    18903.769    3.9076228 
    6310    750.77602     -6642.78   -6559.0298    771.09488    18913.829    3.9178745 
    6320    752.64879   -6643.1859   -6559.2268    385.63219    18924.968    3.9274483 
    6330    742.93263   -6642.3903    -6559.515    -240.1676    18936.776    3.9350669 
    6340    724.73994   -6640.7083   -6559.8625   -935.80637    18948.489    3.9421737 
    6350     711.1453    -6639.565   -6560.2357   -1218.8327    18959.269    3.9523759 
    6360    699.98023   -6638.6884   -6560.6046   -873.07509    18968.762     3.966813 
    6370    706.03839    -6639.715   -6560.9554   -772.10737    18977.281    3.9831585 
    6380    722.33655   -6641.8772   -6561.2995   -1025.5384    18984.924    3.9975618 
    6390    740.55677   -6644.2877   -6561.6774   -1554.8227    18991.366    4.0065224 
    6400    743.63796   -6645.0733   -6562.1194   -1803.6471    18995.983    4.0127144 
    6410    727.98278   -6643.8234   -6562.6158   -1578.9687    18998.443    4.0207407 
    6420    717.80929   -6643.2049   -6563.1322   -1532.0643    18998.911    4.0329087 
    6430    699.55375   -6641.6601   -6563.6238   -1584.0503    18997.416    4.0500813 
    6440    687.07504   -6640.6964   -6564.0521   -1434.1131    18993.876      4.07029 
    6450     687.6299    -6641.104   -6564.3978   -953.06881    18988.483    4.0901809 
    6460    694.29018   -6642.1148   -6564.6657   -634.67992    18981.751     4.106072 
    6470    698.16026   -6642.7577   -6564.8769   -1002.0559    18973.957     4.117832 
    6480    696.01728   -6642.6813   -6565.0395    -1308.819    18964.712    4.1278922 
    6490    698.35363    -6643.062   -6565.1596   -1161.2629    18953.635    4.1372957 
    6500    699.13476   -6643.2267   -6565.2372   -427.91442    18940.898     4.146263 
    6510    707.31264   -6644.1844   -6565.2826    -43.81742    18927.256    4.1531086 
    6520    700.15711   -6643.4042   -6565.3006    122.54858    18913.211    4.1565026 
    6530    702.38218   -6643.6488    -6565.297    56.376785    18898.977    4.1544007 
    6540    708.15253   -6644.2692   -6565.2737   -288.59343    18884.443    4.1499713 
    6550    716.43522    -6645.167   -6565.2475   -513.00625      18869.2    4.1478939 
    6560     720.6263    -6645.622    -6565.235   -471.33404    18852.951    4.1473302 
    6570    706.51384   -6644.0413   -6565.2286    177.91173    18835.766    4.1436264 
    6580    703.97012    -6643.741    -6565.212    779.25165    18818.357    4.1361776 
    6590    705.21882   -6643.8347   -6565.1665    1203.9858    18801.487    4.1310082 
    6600    716.36929   -6645.0187   -6565.1066    1384.7162    18785.671    4.1280937 
    6610    728.00323    -6646.268   -6565.0582    1266.1254    18771.152    4.1233665 
    6620    731.85595   -6646.6835   -6565.0439    1204.6629    18757.852    4.1185257 
    6630    737.48824   -6647.3445   -6565.0766    1679.8248    18745.768    4.1163467 
    6640     730.8008   -6646.6747   -6565.1528    2826.8556    18735.569    4.1177141 
    6650     732.5209   -6646.9869   -6565.2731    3303.0764    18728.566    4.1261248 
    6660     738.1208   -6647.7862   -6565.4477    2989.9142    18725.419    4.1432407 
    6670    733.48472   -6647.4986   -6565.6773    2479.2143    18725.924    4.1662309 
    6680    733.21718   -6647.7513   -6565.9598    1871.2947    18729.552    4.1902666 
    6690    721.67743   -6646.7781   -6566.2739    1283.6575    18735.644    4.2093992 
    6700    718.48352   -6646.7488   -6566.6009    861.48421    18743.562    4.2223745 
    6710    712.63121   -6646.4192   -6566.9241    824.87398    18752.853    4.2350576 
    6720    709.80886   -6646.4137   -6567.2334     772.3011    18763.456    4.2500404 
    6730    712.22505   -6646.9695   -6567.5198     353.0067    18775.315    4.2681465 
    6740    712.26294   -6647.2375   -6567.7834    74.688679    18788.011    4.2909554 
    6750    702.84716   -6646.4248   -6568.0212    58.496865    18801.207    4.3168776 
    6760     690.4327   -6645.2293   -6568.2104    201.00831    18814.907    4.3431837 
    6770    690.43234   -6645.3541   -6568.3353    -170.8176    18829.201    4.3676261 
    6780    688.00282   -6645.1378     -6568.39    -404.5796    18843.737    4.3863958 
    6790    691.92016   -6645.5737    -6568.389   -613.62508    18858.204    4.3953573 
    6800     694.7592   -6645.8439   -6568.3424    -988.7885    18872.291     4.395899 
    6810    699.02602   -6646.2474     -6568.27   -1281.0818    18885.528    4.3944084 
    6820    706.80107   -6647.0304   -6568.1856   -1642.2381    18897.517    4.3939372 
    6830    717.66213    -6648.165   -6568.1087   -2198.5349    18907.732    4.3963198 
    6840    712.89414   -6647.5752   -6568.0508   -2125.9766    18915.497    4.4042354 
    6850    708.03179   -6646.9987   -6568.0167   -1355.0996    18920.846    4.4176198 
    6860    683.13419   -6644.1833   -6567.9786   -549.06477    18924.601    4.4338441 
    6870    669.26992   -6642.5546   -6567.8965    -157.1212    18927.719    4.4461218 
    6880    680.46187   -6643.6516   -6567.7451   -352.06675    18930.655    4.4535579 
    6890    683.40189   -6643.7694   -6567.5349   -452.23468    18933.246    4.4614223 
    6900    682.28716   -6643.3936   -6567.2834   -684.27767    18935.322    4.4714261 
    6910    700.25246   -6645.1128   -6566.9986    -1635.209    18936.501    4.4816127 
    6920    703.27736   -6645.1424   -6566.6908   -2374.1904    18935.663    4.4914459 
    6930    698.76086   -6644.3227   -6566.3748   -2460.4367    18931.848    4.4990406 
    6940    716.10713   -6645.9346   -6566.0517   -2912.0151    18924.737    4.5027207 
    6950    720.68592   -6646.1371   -6565.7435   -2825.0418    18913.813    4.5063043 
    6960    711.34955   -6644.8208   -6565.4687   -1932.9878    18899.128    4.5151102 
    6970    706.39331   -6643.9984   -6565.1991   -1044.3151    18881.665    4.5292589 
    6980    708.51493   -6643.9569    -6564.921    -517.5313    18862.466     4.544211 
    6990    713.92856   -6644.2691   -6564.6293   -260.39048    18842.197    4.5579571 
    7000    720.33858   -6644.6934   -6564.3385   -159.19419     18821.18    4.5714223 
    7010    716.05499    -6643.934    -6564.057    471.49623     18799.65    4.5858945 
    7020    713.40041   -6643.3619    -6563.781    1039.1912    18778.322    4.6021418 
    7030    714.73055   -6643.2375   -6563.5082    1885.2423    18757.961    4.6193202 
    7040    711.52627   -6642.6024   -6563.2305    3043.1466    18739.662    4.6337505 
    7050    714.11798   -6642.6163   -6562.9554    3453.5707    18724.772    4.6404773 
    7060    705.91902   -6641.4274   -6562.6811    3436.4323    18713.907     4.638398 
    7070    727.12779   -6643.5276   -6562.4154    2893.6967    18707.073    4.6341219 
    7080    751.87603   -6646.0581   -6562.1852    2783.1121    18703.773    4.6360017 
    7090    743.67944   -6644.9967   -6562.0382    3602.2335        18704    4.6404201 
    7100    735.71277   -6644.0467   -6561.9768    4094.0579    18708.668    4.6391288 
    7110    736.96591   -6644.1855   -6561.9758    3408.7052    18718.382    4.6340256 
    7120    739.29607   -6644.4921   -6562.0225    2170.7573    18732.449    4.6307298 
    7130    748.82074   -6645.6682   -6562.1361    1504.0622     18749.52    4.6334029 
    7140    750.49498   -6646.0568    -6562.338    1259.9608     18768.79    4.6443718 
    7150    744.69471   -6645.7214   -6562.6496    1023.6299    18789.927    4.6635152 
    7160    722.92091   -6643.6972   -6563.0543    1031.7291    18812.699    4.6864381 
    7170    709.61002   -6642.6662   -6563.5082     600.6882    18837.034    4.7060729 
    7180    721.93756   -6644.5246   -6563.9914   -328.54569    18862.407    4.7211569 
    7190    725.02841   -6645.3921   -6564.5141   -804.17405    18887.759    4.7363509 
    7200    725.37009   -6646.0131    -6565.097    -988.2873    18912.442    4.7563072 
    7210    727.13068   -6646.8372   -6565.7247   -1406.5713    18936.137    4.7837508 
    7220    728.80702   -6647.6935    -6566.394    -1764.421    18958.322    4.8155301 
    7230    709.29544   -6646.1742   -6567.0512   -1743.5718    18978.563    4.8488079 
    7240    699.89251   -6645.7197   -6567.6457   -1946.8991    18996.752    4.8809133 
    7250    686.62361   -6644.7216   -6568.1277   -2065.6831    19012.658    4.9103184 
    7260    698.77303   -6646.4497   -6568.5005   -2395.6889    19026.035    4.9356553 
    7270    709.69031   -6647.9612   -6568.7942   -2357.1823    19036.529    4.9575114 
    7280    696.21457   -6646.6899   -6569.0261    -1837.302    19044.188    4.9776676 
    7290    695.92271   -6646.8223   -6569.1911    -1729.621    19049.518    4.9947133 
    7300     709.8697   -6648.4936   -6569.3066   -2172.5114    19052.616    5.0065715 
    7310    692.98521   -6646.6935     -6569.39   -2545.3606    19052.954     5.016119 
    7320    674.07521   -6644.6171    -6569.423   -2777.0202    19050.034    5.0241416 
    7330    686.16784   -6645.9405   -6569.3975   -2754.5906     19043.54    5.0310279 
    7340    684.84668   -6645.7113   -6569.3156   -1768.0107    19033.571    5.0397045 
    7350    692.49157   -6646.4378   -6569.1893   -924.34664     19021.23     5.048916 
    7360    702.45307   -6647.3823   -6569.0226   -760.96587    19007.541    5.0568006 
    7370     710.4528   -6648.0997   -6568.8477    -1255.689    18992.696    5.0656217 
    7380    715.32533   -6648.4806    -6568.685   -1817.9844    18976.112    5.0777578 
    7390    717.18842   -6648.5489   -6568.5455   -1684.8188    18957.163    5.0901528 
    7400    712.27848   -6647.8774   -6568.4216   -1034.2538    18935.991    5.0988922 
    7410    708.29624   -6647.3077   -6568.2962   -88.475828    18913.401     5.102702 
    7420    698.72092   -6646.0934     -6568.15     842.1201    18890.555    5.1023037 
    7430    690.50719   -6645.0002    -6567.973    1009.5621    18868.526    5.0978986 
    7440    689.30894   -6644.6512   -6567.7577    534.17554    18847.562    5.0898716 
    7450    687.53858    -6644.198    -6567.502    599.89159    18827.208    5.0806806 
    7460    679.68705   -6643.0079   -6567.1877    1279.6438    18807.557    5.0733066 
    7470     700.4584   -6644.9516   -6566.8144    1160.4738    18789.297    5.0696802 
    7480    717.93944   -6646.4973   -6566.4101    596.91731     18772.33    5.0725759 
    7490    715.72311   -6645.8592   -6566.0192    361.46748    18756.039    5.0807961 
    7500    722.83223   -6646.2852   -6565.6522    331.62364    18740.116    5.0916709 
    7510     720.9096   -6645.7283   -6565.3098    984.85476    18724.582     5.105425 
    7520    702.40264   -6643.3394   -6564.9854    2334.4874     18710.27    5.1204368 
    7530    708.91114     -6643.74   -6564.6599    2682.3987    18698.653    5.1330543 
    7540    740.92434   -6646.9981   -6564.3469    1966.1084    18690.159    5.1424033 
    7550    749.77096   -6647.7348   -6564.0967    1713.0043    18684.107    5.1516337 
    7560    741.08261    -6646.612   -6563.9431    1961.8371    18680.183    5.1663301 
    7570    719.86258   -6644.1575   -6563.8558    2681.6801    18678.722    5.1898226 
    7580    714.23043   -6643.4772   -6563.8037    2843.3966    18680.497     5.219121 
    7590    726.71976   -6644.8341   -6563.7674    2425.1992    18685.746    5.2465156 
    7600    735.13956   -6645.7765   -6563.7706     2231.976    18694.067    5.2665908 
    7610    720.28984   -6644.1628   -6563.8134    2456.5482    18705.266    5.2777288 
    7620    735.90763     -6645.99   -6563.8984      2332.38    18719.562      5.28334 
    7630    740.16356   -6646.5953   -6564.0289    1939.9811    18736.858    5.2948804 
    7640    732.92558   -6645.9797   -6564.2207    1327.4317    18756.691    5.3152932 
    7650    724.71999      -6645.3   -6564.4564    560.10984    18778.335    5.3390093 
    7660      706.225   -6643.4916   -6564.7111      380.268    18800.956    5.3628866 
    7670    701.28342     -6643.19   -6564.9608   -1.1034259    18824.224    5.3843206 
    7680    709.57439   -6644.3508   -6565.1967   -706.63322    18847.657    5.4009433 
    7690    708.52629   -6644.4684   -6565.4312   -1092.6429    18870.438    5.4165184 
    7700    697.32228   -6643.4606   -6565.6732   -635.99789    18892.157    5.4375786 
    7710    696.65137   -6643.6292   -6565.9167   -484.58655    18913.206    5.4645769 
    7720    701.31017   -6644.3966   -6566.1644   -796.51538    18933.753     5.492973 
    7730    705.33327   -6645.1147   -6566.4337   -1220.0299    18953.434    5.5207446 
    7740    712.45923   -6646.2367   -6566.7608   -1521.8433    18971.713    5.5472009 
    7750     708.8145   -6646.2572   -6567.1879    -1458.084    18988.248    5.5698739 
    7760    700.01257   -6645.8211   -6567.7337   -1658.1765    19003.019    5.5912602 
    7770    687.48021    -6645.085   -6568.3955   -1862.6992    19015.788    5.6143944 
    7780    668.32382   -6643.6767   -6569.1241   -1760.0018    19026.321    5.6391797 
    7790    670.22228   -6644.6348   -6569.8705   -1894.5114    19034.638     5.662681 
    7800    664.71842   -6644.7335   -6570.5832   -1729.5939     19040.62    5.6823738 
    7810    653.40035   -6644.0942   -6571.2065    -1099.397    19044.499    5.6947937 
    7820    656.01768   -6644.8839   -6571.7041   -1101.0974    19046.917    5.6991133 
    7830    663.16599   -6646.0506   -6572.0734   -1855.5063    19047.858    5.7017628 
    7840    671.95383   -6647.2975     -6572.34   -2587.7874    19046.415     5.708791 
    7850    662.99877   -6646.4693   -6572.5108   -2381.3717     19041.76    5.7193997 
    7860    661.27999   -6646.3505   -6572.5837   -1989.1578    19034.049    5.7293433 
    7870    661.73989   -6646.3701    -6572.552   -2247.4195    19023.653      5.73501 
    7880    673.29128   -6647.5357    -6572.429   -2991.7284     19010.25    5.7305225 
    7890    682.27972   -6648.3402   -6572.2309    -3433.657    18992.957    5.7146172 
    7900     678.8132   -6647.6989   -6571.9763   -3025.8313    18971.251    5.6913782 
    7910    668.33115    -6646.204   -6571.6507   -2106.6434    18945.609    5.6670715 
    7920     670.0827   -6645.9816   -6571.2328   -1433.6578    18917.104    5.6478871 
    7930    679.28781   -6646.4995   -6570.7239   -1270.1829    18886.564    5.6353012 
    7940    700.07418   -6648.2539   -6570.1596   -1200.6036    18854.268    5.6234696 
    7950    723.52801   -6650.3013   -6569.5907   -634.65378    18820.392    5.6108287 
    7960    734.16988   -6650.9725   -6569.0748    478.32009    18785.668    5.5985407 
    7970    716.90228   -6648.6065    -6568.635    1913.8269    18751.512    5.5885914 
    7980    700.65128   -6646.4099   -6568.2512    2760.4336    18719.612    5.5818876 
    7990    693.05023   -6645.2062   -6567.8954    3116.5343    18691.057    5.5740414 
    8000    694.45498    -6645.019   -6567.5515    3464.8969    18666.333    5.5630259 
    8010    720.77976   -6647.6311    -6567.227    3454.4123     18645.81    5.5556315 
    8020    715.24799   -6646.7348   -6566.9478    4003.9827    18629.618    5.5595358 
    8030    699.54859   -6644.7586   -6566.7229    4706.2747    18618.342    5.5740059 
    8040    699.58837   -6644.5621    -6566.522    4670.0845    18612.741    5.5985239 
    8050     714.7495   -6646.0734    -6566.342    3956.3686    18612.767    5.6293586 
    8060    720.10712   -6646.5193   -6566.1903    3464.8234    18617.647    5.6593582 
    8070    722.36028   -6646.6531   -6566.0728    3539.8446    18626.835    5.6875191 
    8080    744.09737   -6649.0077   -6566.0025    3558.7681    18640.352    5.7144312 
    8090    760.15685   -6650.8191   -6566.0225    3523.2872    18658.231    5.7408504 
    8100     731.4192   -6647.7312   -6566.1403    3684.6637    18680.475    5.7642056 
    8110    726.87183   -6647.4003   -6566.3167    3287.5472    18707.193    5.7774415 
    8120    725.91693   -6647.4901    -6566.513    2455.4184    18737.892    5.7817588 
    8130    710.56696   -6645.9808    -6566.716    1770.3532    18771.607     5.785712 
    8140    719.97399   -6647.2196   -6566.9054    715.14762    18807.402    5.7981637 
    8150    735.96695   -6649.1834   -6567.0852   -342.92622    18843.972    5.8244073 
    8160    726.58353   -6648.3407   -6567.2892   -713.13018    18880.015    5.8640223 
    8170    687.10905   -6644.1396   -6567.4915   -683.51017    18915.008    5.9084952 
    8180    688.77357   -6644.4751   -6567.6414   -1568.6643    18948.787    5.9438346 
    8190    709.82193   -6646.9138   -6567.7321   -2748.9985    18980.289    5.9659709 
    8200    713.40961   -6647.3916   -6567.8096   -3402.2678    19008.094    5.9777427 
    8210    704.38831   -6646.4712   -6567.8957   -3385.4126    19031.379    5.9842569 
    8220    695.16036   -6645.5264   -6567.9802    -3049.082     19050.15    5.9956685 
    8230      693.079   -6645.3522   -6568.0382   -2894.7661    19064.847    6.0163275 
    8240    708.68651   -6647.1324   -6568.0774   -3484.6781    19075.601    6.0435406 
    8250    704.73977   -6646.7256   -6568.1108   -3935.5078    19081.813    6.0738502 
    8260    701.18281    -6646.364    -6568.146   -4102.4216    19082.982    6.1002869 
    8270    713.76595   -6647.8014   -6568.1797    -4475.947    19078.871    6.1146456 
    8280    716.47192   -6648.1482   -6568.2247   -4408.6377     19069.14    6.1145941 
    8290    708.83087   -6647.3622   -6568.2911    -3636.798    19053.978     6.103174 
    8300     685.3209   -6644.7869   -6568.3384   -2068.8179    19034.471    6.0887569 
    8310    679.26861   -6644.0946   -6568.3211   -999.83814    19012.513    6.0770543 
    8320    687.64595   -6644.9258   -6568.2179   -849.18278    18989.469     6.069236 
    8330    702.48419    -6646.398   -6568.0348   -1012.6817    18965.586    6.0632483 
    8340    718.18408   -6647.8881   -6567.7736   -676.91297    18940.784    6.0588146 
    8350    732.70377   -6649.1887   -6567.4545   -46.880355    18915.483    6.0553139 
    8360    721.59456   -6647.5962   -6567.1012    654.05573    18890.463     6.051519 
    8370    698.37738   -6644.6151     -6566.71     1219.392    18866.583    6.0427957 
    8380    698.90527   -6644.2115   -6566.2476    1485.9973    18844.514    6.0257645 
    8390     710.9236   -6645.0056    -6565.701    1873.6084    18824.598    6.0051921 
    8400    714.27218   -6644.7743   -6565.0962    2695.3758    18807.332    5.9881138 
    8410    746.97277    -6647.799    -6564.473    2848.5165    18793.552    5.9731489 
    8420    769.16877    -6649.703    -6563.901    3186.1964    18783.509    5.9608356 
    8430    770.06355    -6649.361   -6563.4593    3760.7313    18777.563    5.9583552 
    8440    761.34884   -6648.0972   -6563.1676     3547.827    18776.254     5.967828 
    8450    747.45822   -6646.3862   -6563.0061    2530.4852    18779.269    5.9861346 
    8460     731.9391    -6644.589   -6562.9401     1288.793    18785.363       6.0143 
    8470    694.95885   -6640.4296   -6562.9059    722.86402    18793.076    6.0510386 
    8480    690.16498   -6639.8309   -6562.8419    386.23794    18801.625    6.0861418 
    8490    714.07825   -6642.3833   -6562.7268   -371.53446    18810.519     6.113231 
    8500    723.61209   -6643.3189   -6562.5989   -731.91576    18818.915    6.1287274 
    8510    720.28241   -6642.8352   -6562.4866   -341.89872    18826.396    6.1324348 
    8520    726.53546   -6643.4365   -6562.3904    27.812677    18833.368    6.1274847 
    8530    730.81886    -6643.849    -6562.325    54.528604    18840.247    6.1183709 
    8540    716.60226    -6642.223    -6562.285    151.40251    18847.134    6.1086933 
    8550    732.16084   -6643.9422   -6562.2685    168.31154    18854.122    6.0985973 
    8560    729.46888   -6643.6439   -6562.2706    496.67645    18861.311    6.0923346 
    8570    742.93853   -6645.2061   -6562.3302    159.27014    18868.952    6.0911197 
[...]
   22890    702.71704   -6648.1484   -6569.7593   -660.40689    18876.273    17.295936 
   22900    713.33067   -6649.6659   -6570.0928   -935.02741    18878.971     17.32694 
   22910    704.72974    -6649.012   -6570.3983    -428.7642    18880.597    17.340863 
   22920    679.48507   -6646.4483   -6570.6507    382.54833    18881.722    17.335853 
   22930    675.17614   -6646.1373   -6570.8203    889.09189    18883.297    17.317024 
   22940    681.05178   -6646.8781   -6570.9058    1064.3844    18885.978    17.300043 
   22950    692.50675   -6648.1749   -6570.9247     612.8712    18889.943    17.297609 
   22960    688.16297   -6647.6591   -6570.8935    65.216823    18894.702    17.307238 
   22970    673.94501   -6645.9858   -6570.8062    -282.9605    18899.587    17.315152 
   22980    673.45596   -6645.7661   -6570.6411   -53.754863    18904.221    17.313013 
   22990    689.11475   -6647.2748    -6570.403   -22.666453    18908.775    17.305292 
   23000    681.97044   -6646.1826   -6570.1077    337.71169    18913.365     17.30033 
   23010     679.8173   -6645.6003   -6569.7657    1059.9877    18918.451    17.303369 
   23020    706.46365    -6648.181   -6569.3739    1200.2737    18924.834    17.319157 
   23030     734.4432   -6650.9034   -6568.9751    811.65002    18932.716    17.351004 
   23040     740.8022   -6651.2647   -6568.6271    271.32119    18941.652    17.401476 
   23050    728.35205   -6649.6065   -6568.3577    272.93552    18951.043    17.465504 
   23060    717.66559   -6648.1991   -6568.1425    424.15398    18960.852    17.526446 
   23070    734.94818   -6649.9505   -6567.9659    2.5409476    18971.174     17.57253 
   23080    718.30101   -6647.9576     -6567.83   -74.213189    18981.611    17.604132 
   23090     693.6101   -6645.0927   -6567.7195     29.43437     18992.04    17.620068 
   23100    705.94101   -6646.3417    -6567.593    196.74082    19002.574    17.623709 
   23110    719.43086   -6647.7068   -6567.4532    673.30184    19013.473    17.629598 
   23120    717.35997   -6647.3571   -6567.3345    989.02134    19025.303    17.643059 
   23130    706.14284   -6646.0091   -6567.2378    1075.0706    19038.466    17.661575 
   23140    697.12272   -6644.9042   -6567.1391    885.97582    19053.082    17.679704 
   23150    696.78364    -6644.739   -6567.0117    117.95369    19068.885    17.694507 
   23160     693.9548   -6644.2484   -6566.8367   -1154.0247    19084.908    17.700927 
   23170    710.42021   -6645.8696   -6566.6212   -2518.5305    19099.579    17.697807 
   23180    720.05151   -6646.7192   -6566.3964   -3321.7271     19111.17    17.694339 
   23190    717.58646   -6646.2516   -6566.2038    -3029.507    19118.669     17.70312 
   23200    723.33303   -6646.7328    -6566.044   -2217.2159    19122.352    17.733977 
   23210    724.88718    -6646.777   -6565.9148   -1217.3245     19123.22     17.78633 
   23220    728.09497   -6647.0388   -6565.8187   -1012.0013    19122.424    17.847377 
   23230    740.71368   -6648.3984   -6565.7707   -1304.2106    19120.274    17.905367 
   23240    727.88183   -6646.9771   -6565.7808    -1583.448    19116.433    17.956431 
   23250    707.11194   -6644.7026   -6565.8232   -2066.4557    19110.492    17.992234 
   23260    716.11571   -6645.7532   -6565.8694     -2672.06    19101.831    18.005726 
   23270    720.07595   -6646.2548   -6565.9293   -3077.7563    19089.673    17.997855 
   23280    703.32128   -6644.4585   -6566.0019   -2390.6997    19073.595    17.978343 
   23290    690.83387   -6643.1069   -6566.0434   -1164.2566    19054.378    17.960312 
   23300     696.1007   -6643.6834   -6566.0323   -268.44639    19033.474    17.946092 
   23310    704.94324   -6644.6145    -6565.977    249.50009    19012.037    17.929163 
   23320    699.67284    -6643.958   -6565.9085    544.89508    18990.722    17.913158 
   23330    678.61611   -6641.5149   -6565.8142    1340.2757    18969.999    17.908189 
   23340    687.95488   -6642.4153   -6565.6729     1963.253    18950.827    17.910532 
   23350     716.3274   -6645.4219   -6565.5145    1575.3184     18933.87    17.908771 
   23360    728.20834   -6646.6223   -6565.3896    1641.1072    18918.849    17.898803 
   23370    724.49116   -6646.1349   -6565.3168    2305.3444    18905.855    17.885111 
   23380    711.45235   -6644.6407   -6565.2771    2638.9506    18895.631    17.873415 
   23390    703.49391   -6643.7211   -6565.2453     2306.109    18888.602    17.853974 
   23400    697.99154   -6643.0655   -6565.2035    2043.8411    18884.447    17.823922 
   23410    708.06494   -6644.1339   -6565.1482    1949.2218    18882.853    17.796572 
   23420    726.84398   -6646.1785    -6565.098      1714.83    18883.683    17.784203 
   23430    715.26084   -6644.8594    -6565.071      2063.97    18886.773     17.78918 
   23440    718.94887   -6645.2621   -6565.0622    2250.4578      18892.5    17.809342 
   23450     738.7309   -6647.4853   -6565.0787    1949.2317    18901.087    17.846864 
   23460    720.52583   -6645.5128   -6565.1371    2106.9662    18912.323    17.896807 
   23470    708.85675   -6644.2991    -6565.225    2029.1669    18926.351    17.935646 
   23480    719.70976   -6645.5938   -6565.3091    1227.3779    18943.073    17.947037 
   23490    739.52404   -6647.9037   -6565.4086    221.09066    18961.577    17.944817 
   23500    728.45489   -6646.8073   -6565.5471   -167.96788     18980.69    17.952091 
   23510    716.99491   -6645.7038    -6565.722    29.975861    18999.918    17.975778 
   23520    716.65011   -6645.8561   -6565.9127    6.5882639    19019.431    18.015647 
   23530    714.54349   -6645.8184     -6566.11   -740.29358    19039.144    18.067029 
   23540    700.27983   -6644.4177   -6566.3005   -1605.8683    19058.168    18.114791 
   23550    684.26239   -6642.7907   -6566.4602   -2254.8729    19075.396    18.143859 
   23560    682.17411   -6642.6613   -6566.5638   -2805.1509    19089.966    18.156291 
   23570    695.15248    -6644.165   -6566.6196   -3434.6099    19101.093     18.16666 
   23580    689.99666   -6643.6069   -6566.6367   -3488.9926    19107.996    18.178032 
   23590    697.50993   -6644.4342   -6566.6259   -3427.0636    19110.493    18.183765 
   23600     705.6772   -6645.3057   -6566.5864   -3585.4806    19108.549    18.179382 
   23610    703.95353    -6645.061    -6566.534   -3301.5935    19101.995    18.165388 
   23620     702.0705   -6644.7805   -6566.4635   -2659.1761    19091.122     18.14851 
   23630    694.93206   -6643.8785   -6566.3578   -2106.1899    19076.624    18.131504 
   23640    694.00744    -6643.619   -6566.2014   -1440.7815    19059.211     18.10902 
   23650    696.42285   -6643.6561   -6565.9691   -591.97931    19039.718    18.082469 
   23660    704.27374   -6644.2212   -6565.6584    99.600447    19019.153    18.055257 
   23670     716.4031   -6645.1955   -6565.2797    461.72137    18998.385     18.02174 
   23680    734.98064   -6646.8452    -6564.857     328.7689    18977.867    17.981802 
   23690    746.47207   -6647.6984   -6564.4283    167.39652    18957.489    17.947287 
   23700     730.4746    -6645.507   -6564.0215    851.67339    18937.158    17.923548 
   23710    720.39272   -6643.9857   -6563.6248    1457.9881    18917.634    17.897491 
   23720    727.01138   -6644.3236   -6563.2244    1157.0712    18899.603    17.855744 
   23730    721.64776   -6643.3162   -6562.8153    1261.2423    18882.858    17.802744 
   23740    727.09084   -6643.4993   -6562.3913    1574.8112      18867.5    17.755707 
   23750    739.98551   -6644.5049   -6561.9584    1796.1502    18853.923    17.736534 
   23760     735.8315     -6643.64   -6561.5569    1929.1956    18842.415    17.745245 
   23770    719.00147   -6641.4048   -6561.1991    2424.0481    18833.247    17.761696 
   23780    712.97368   -6640.3852   -6560.8519    2649.6307    18826.983    17.778474 
   23790    718.85511    -6640.688   -6560.4987    2669.5966    18823.925    17.798902 
   23800    710.47729   -6639.3969    -6560.142    3561.8305    18824.293    17.820562 
   23810    718.42302   -6639.9238   -6559.7827    4348.1434    18829.151    17.840749 
   23820    737.81321   -6641.7224   -6559.4182    4047.6891    18839.428    17.858575 
   23830    765.54061    -6644.485   -6559.0878     3271.193    18854.918    17.876145 
   23840    768.81964   -6644.6143   -6558.8513    3039.6314    18874.841    17.890979 
   23850    750.70069   -6642.4863   -6558.7445    3182.9621    18898.974    17.900413 
   23860    752.38173   -6642.6683    -6558.739    2688.1432    18927.461     17.90925 
   23870    746.57425   -6642.0937   -6558.8122    2116.9857    18959.851    17.918559 
   23880    722.70494   -6639.5689   -6558.9501    1377.6293    18995.443    17.929526 
   23890    718.55947   -6639.2677   -6559.1113   -26.707091    19033.257    17.948116 
   23900    725.02901   -6640.1624   -6559.2843   -1440.2577     19071.57    17.981192 
   23910    716.78898   -6639.4484   -6559.4896   -2121.4755    19108.612    18.032004 
   23920    714.27602   -6639.4214   -6559.7428   -2551.6424    19143.399    18.090619 
   23930    719.45441   -6640.3101   -6560.0538   -3404.3675    19175.196    18.142371 
   23940    721.34784   -6640.9218   -6560.4543   -3987.2584    19202.924    18.175708 
   23950    711.05951   -6640.2791   -6560.9594    -4098.816    19225.766    18.190092 
   23960    696.00427   -6639.1809   -6561.5406   -3906.3969     19243.49    18.190376 
   23970     696.1095    -6639.813   -6562.1609   -4085.7447      19256.2    18.185065 
   23980    693.34959   -6640.1357   -6562.7915   -4188.0532    19263.661    18.187553 
   23990    680.37544   -6639.2963   -6563.3994   -3911.7266    19265.728    18.203008 
   24000    678.71453   -6639.6548   -6563.9432   -3753.7326    19262.654    18.231757 
   24010    697.63289   -6642.2624   -6564.4404   -3770.2403      19254.6     18.26769 
   24020    690.19898   -6641.8863   -6564.8936   -3442.9451     19241.58    18.293782 
   24030    681.37902    -6641.288   -6565.2792   -2676.3466    19224.007    18.294833 
   24040    688.56446   -6642.3915   -6565.5811   -1861.1035    19202.808    18.274868 
   24050    704.05753   -6644.3458   -6565.8071   -1282.9176    19178.984    18.242972 
   24060    723.95893   -6646.7618   -6566.0031   -836.02446    19153.294    18.210411 
   24070    714.06357   -6645.8501   -6566.1952   -74.765833    19126.406    18.185606 
   24080    713.45438   -6645.9646   -6566.3777    469.57066     19099.26    18.171465 
   24090    728.76682   -6647.8592   -6566.5642    146.03799    19072.483     18.16428 
   24100     734.4526   -6648.7135   -6566.7842   -66.814658    19045.819    18.162386 
   24110    735.18496   -6649.0527   -6567.0417    162.88938    19019.039    18.169183 
   24120    731.91502   -6648.9825   -6567.3363    344.57713    18992.386    18.183955 
   24130    715.03058   -6647.4048   -6567.6421    651.30091    18966.152    18.195275 
   24140    715.11152   -6647.7207    -6567.949    725.26058    18940.685    18.190031 
   24150    715.24967   -6648.0355   -6568.2483    961.98123    18916.162    18.171459 
   24160    714.93561   -6648.3014   -6568.5493    1234.5231    18892.859    18.154357 
   24170    702.06738   -6647.1481   -6568.8314    1315.6381     18871.11    18.144198 
   24180    706.34196   -6647.8813   -6569.0878    705.77961    18850.959     18.14547 
   24190    709.17375   -6648.4371   -6569.3277    396.23248    18831.772     18.16447 
   24200    706.17428   -6648.3166   -6569.5418    838.02065    18813.204    18.201827 
   24210    718.10929   -6649.8361     -6569.73     1263.433    18795.722    18.242772 
   24220    720.81847   -6650.3232   -6569.9148    1668.9325    18779.859    18.271655 
   24230     698.3293   -6647.9823   -6570.0826     2614.952    18766.196    18.291842 
   24240     681.9865   -6646.2744   -6570.1978    3249.5383    18755.766    18.317118 
   24250    681.15856   -6646.2244   -6570.2401     3543.624    18749.371     18.35296 
   24260     690.4034    -6647.237   -6570.2215    3645.2428    18747.385    18.396928 
   24270    695.94933   -6647.8066   -6570.1724    3889.3089     18749.95     18.44666 
   24280    697.14221   -6647.8745   -6570.1072    3850.8478    18757.295    18.496605 
   24290    710.83479   -6649.3306   -6570.0359    3499.4806    18769.364    18.544325 
   24300    712.60303   -6649.4673   -6569.9753     3161.522    18785.738     18.59345 
   24310    701.89488   -6648.2298   -6569.9324    2661.5597    18805.976    18.645342 
   24320    696.72976   -6647.6042    -6569.883    1769.9904    18829.402    18.698938 
   24330    698.97323   -6647.7817   -6569.8102    817.39139    18854.937    18.744831 
   24340    700.67614   -6647.8817   -6569.7202    263.03257    18881.425    18.774576 
   24350    677.27083   -6645.1647   -6569.6141    777.80152    18908.251    18.793524 
   24360    680.66408   -6645.4093   -6569.4802     792.2166    18935.818    18.813675 
   24370    702.81546   -6647.7033   -6569.3032    256.02565    18964.166    18.847776 
   24380    721.29865   -6649.5808   -6569.1188   -1044.6004    18992.534    18.894185 
   24390    699.67962    -6646.996   -6568.9457   -1812.0384     19019.42    18.940681 
   24400    690.00128   -6645.7432   -6568.7725   -2326.2847     19043.79    18.981103 
   24410    693.77128    -6645.961   -6568.5698   -2860.6954    19064.945    19.016279 
   24420    685.81345   -6644.8421   -6568.3386   -3423.7216    19082.217    19.045953 
   24430    698.04683   -6645.9488   -6568.0806   -4126.6368    19094.916    19.068988 
   24440    729.62414   -6649.2163   -6567.8257    -4570.449    19102.212    19.087058 
   24450    728.61801   -6648.9033   -6567.6248   -3755.8379    19103.736     19.10266 
   24460    707.96854   -6646.4594   -6567.4844   -2591.2697    19100.471    19.119336 
   24470    703.18071   -6645.7979   -6567.3571   -2011.2256     19093.88    19.132373 
   24480    705.23176   -6645.8913   -6567.2216   -2012.8513    19084.764    19.133205 
   24490    686.89928   -6643.6907    -6567.066   -2000.8903    19073.233    19.114512 
   24500    694.88406     -6644.39   -6566.8746   -1966.3317    19059.322    19.076422 
   24510    716.59097   -6646.5844   -6566.6476   -1137.5035    19043.245    19.040224 
   24520    725.99996   -6647.4014   -6566.4151   -477.60849    19025.955    19.028134 
   24530    740.45803   -6648.8152    -6566.216   -287.71316    19008.295    19.042499 
   24540    737.47851   -6648.3332   -6566.0664    107.06115    18990.604    19.074381 
   24550    731.89859   -6647.6178   -6565.9734    687.80485    18973.377    19.115376 
   24560    720.55219   -6646.2987   -6565.9201    1200.3931    18957.307    19.155477 
   24570    715.38907   -6645.6895   -6565.8868    1497.4031    18943.024    19.184677 
   24580    730.06244   -6647.3076   -6565.8681    1296.0297    18930.821     19.20742 
   24590     730.0501    -6647.322   -6565.8838    1680.5064    18920.546     19.23767 
   24600    718.35058   -6646.0668   -6565.9337    2067.6108    18912.569      19.2777 
   24610    722.64545   -6646.6224   -6566.0102    1673.7634    18907.253     19.31612 
   24620     717.6478   -6646.1664   -6566.1117    1143.9927    18904.136    19.342329 
   24630    707.15966   -6645.1183   -6566.2335    1099.0675    18902.574    19.346092 
   24640    709.93702    -6645.557   -6566.3625    1135.4558    18902.437    19.321698 
   24650    719.99307   -6646.8309   -6566.5146    1102.4344    18903.717    19.285086 
   24660    722.82112   -6647.3355   -6566.7037    1160.9592    18906.363    19.265265 
   24670    731.45353   -6648.5475   -6566.9527    973.97598    18910.378     19.26991 
   24680    750.42541   -6651.0112   -6567.3001    236.68438    18915.494    19.285237 
   24690    763.90286   -6653.0272   -6567.8126    -809.9383    18920.788    19.300748 
   24700    735.32455   -6650.5351   -6568.5085   -1188.2429    18925.038    19.312633 
   24710    696.85602   -6647.0362   -6569.3008   -1145.1456    18927.752    19.321164 
   24720    670.34335   -6644.8469    -6570.069   -762.51329    18929.032    19.329494 
   24730    649.80253   -6643.2087   -6570.7223   -383.51924    18929.332    19.341876 
   24740    649.68841   -6643.6923   -6571.2186   -118.83626     18929.14    19.358726 
   24750    666.33859   -6645.9019   -6571.5709   -132.83977    18928.768     19.37576 
   24760    669.85821   -6646.5267    -6571.803   -161.36223    18928.248    19.387006 
   24770     681.4278   -6647.9546   -6571.9403   -548.32216    18927.507    19.382745 
   24780    700.82595     -6650.19   -6572.0118   -1216.9834    18926.078    19.363195 
   24790    701.11015   -6650.2645   -6572.0546   -1740.5178     18923.17    19.343126 
   24800    684.47526     -6648.42   -6572.0658   -1210.5622    18918.282    19.330123 
   24810    690.89624   -6649.0989   -6572.0284    -398.8392    18912.009    19.322561 
   24820    701.39975   -6650.1862    -6571.944    146.79786    18905.354    19.317294 
   24830    694.54887   -6649.3034   -6571.8254    401.68175    18899.007    19.308214 
   24840    698.38678   -6649.5867   -6571.6806    117.13284    18893.235    19.296708 
   24850    702.55914    -6649.875   -6571.5035   -230.80528    18887.735    19.289243 
   24860    707.15747   -6650.1904   -6571.3059   -217.11505    18882.115     19.28454 
   24870    709.03891   -6650.1931   -6571.0987   -148.29421    18876.361     19.28509 
   24880    701.12138   -6649.0908   -6570.8796     209.4446    18870.596    19.290062 
   24890    704.04645   -6649.1772   -6570.6397    438.96607    18865.199    19.292093 
   24900    710.08674   -6649.5827   -6570.3714    625.91504     18860.48    19.285944 
   24910    717.14166   -6650.0888   -6570.0905    559.90432    18856.609    19.273119 
   24920    726.18079   -6650.8238   -6569.8172    524.20486    18853.529     19.25765 
   24930    721.20772   -6650.0185   -6569.5667    865.20861     18851.22    19.246515 
   24940    715.72131    -6649.176   -6569.3362    1145.1495    18850.032     19.24612 
   24950    723.13719   -6649.7809   -6569.1139    1068.2575    18850.249    19.254328 
   24960    722.95113   -6649.5349   -6568.8886    1110.2572    18851.826    19.274028 
   24970    729.02081   -6649.9927   -6568.6693     749.7373    18854.682    19.314523 
   24980    714.54786     -6648.16   -6568.4511    774.18308    18858.467     19.37302 
   24990    722.40295   -6648.8131    -6568.228      286.579    18863.047     19.42389 
   25000    731.40012   -6649.5722   -6567.9834   -100.89919    18867.884    19.448216 
Loop time of 16144.7 on 16 procs for 20000 steps with 864 atoms

Performance: 0.107 ns/day, 224.232 hours/ns, 1.239 timesteps/s
97.5% CPU use with 16 MPI tasks x 1 OpenMP threads

MPI task timing breakdown:
Section |  min time  |  avg time  |  max time  |%varavg| %total
---------------------------------------------------------------
Pair    | 11146      | 14079      | 15875      |1198.6 | 87.21
Bond    | 0.0021045  | 0.0055391  | 0.014555   |   4.3 |  0.00
Neigh   | 0.23431    | 0.29234    | 0.37595    |   7.5 |  0.00
Comm    | 168.22     | 1594.3     | 4856.5     |3511.5 |  9.87
Output  | 58.261     | 58.303     | 58.927     |   2.1 |  0.36
Modify  | 22.251     | 412.25     | 815.4      |1601.2 |  2.55
Other   |            | 0.1077     |            |       |  0.00

Nlocal:        54.0000 ave          64 max          44 min
Histogram: 3 0 1 1 3 1 1 3 1 2
Nghost:        516.625 ave         623 max         444 min
Histogram: 2 2 2 2 4 1 1 0 0 2
Neighs:         0.00000 ave           0 max           0 min
Histogram: 16 0 0 0 0 0 0 0 0 0
FullNghs:      2534.12 ave        3491 max        1688 min
Histogram: 3 0 2 1 3 3 0 0 3 1

Total # of neighbors = 40546
Ave neighs/atom = 46.928241
Ave special neighs/atom = 0.0000000
Neighbor list builds = 2000
Dangerous builds = 2000
Total wall time: 5:33:05
