LAMMPS (29 Sep 2021 - Update 3)
OMP_NUM_THREADS environment is not set. Defaulting to 1 thread. (src/comm.cpp:98)
  using 1 OpenMP thread(s) per MPI task
units	metal
atom_style	full

read_data	mixed.data
Reading data file ...
  orthogonal box = (0.0000000 0.0000000 0.0000000) to (18.492711 18.368364 83.044081)
  2 by 1 by 8 MPI processor grid
  reading atoms ...
  864 atoms
Finding 1-2 1-3 1-4 neighbors ...
  special bond factors lj:    0        0        0       
  special bond factors coul:  0        0        0       
     0 = max # of 1-2 neighbors
     0 = max # of 1-3 neighbors
     0 = max # of 1-4 neighbors
     1 = max # of special neighbors
  special bonds CPU = 0.001 seconds
  read_data CPU = 0.032 seconds

pair_style	quip
pair_coeff	* * /ocean/projects/cts180021p/wuziqi/clease/mint-PD/PhaseDiagram-Clease/Liquid/GAP_potential/gap_LiKCl.xml "Potential xml_label=GAP_2021_9_27_0_1_17_37_618" 17 19 3

neighbor	0.3 bin
neigh_modify	delay 10

timestep	0.001
compute	msd all msd
thermo_style	custom step temp pe etotal press vol c_msd[4]
thermo	10
dump	1 all custom 10 xyz-mix.dump type id x y z
dump	2 all custom 10 force-mix.dump type id fx fy fz

fix     1 all nve
run     2000
Neighbor list info ...
  update every 1 steps, delay 10 steps, check yes
  max neighbors/atom: 2000, page size: 100000
  master list distance cutoff = 6.22
  ghost atom cutoff = 6.22
  binsize = 3.11, bins = 6 6 27
  1 neighbor lists, perpetual/occasional/extra = 1 0 0
  (1) pair quip, perpetual
      attributes: full, newton on
      pair build: full/bin
      stencil: full/bin/3d
      bin: standard
Per MPI rank memory allocation (min/avg/max) = 8.888 | 8.895 | 8.900 Mbytes
Step Temp PotEng TotEng Press Volume c_msd[4] 
       0            0   -7973.6696   -7973.6696   -2874.2394    28208.484            0 
      10    41.278351   -7978.2784   -7973.6737   -2959.4518    28208.484 0.00023887099 
      20    117.01377   -7986.7312   -7973.6782   -2971.9336    28208.484 0.0029537371 
      30    174.81925   -7993.1785   -7973.6771   -2824.2466    28208.484  0.010160551 
      40    218.44962    -7998.045   -7973.6766   -2720.6333    28208.484  0.020641735 
      50    256.00476   -8002.2349   -7973.6771   -2700.3711    28208.484  0.032489043 
      60    281.23595   -8005.0509   -7973.6786   -2720.3164    28208.484  0.045481137 
      70    279.84796   -8004.8936   -7973.6762   -2497.2427    28208.484  0.060875411 
      80    275.57271   -8004.4166   -7973.6761   -2346.6282    28208.484  0.078472831 
      90    275.14134   -8004.3684    -7973.676   -2375.5075    28208.484  0.097756432 
     100    277.97329   -8004.6843   -7973.6759   -2450.2098    28208.484   0.11838341 
     110    284.32121   -8005.3929   -7973.6764   -2585.3887    28208.484    0.1397563 
     120    288.42818   -8005.8514   -7973.6768   -2555.7238    28208.484   0.16133553 
     130    287.27066   -8005.7216   -7973.6761   -2379.8786    28208.484   0.18293983 
     140    286.58177   -8005.6454   -7973.6767   -2199.4073    28208.484   0.20440576 
     150    283.09159    -8005.256   -7973.6767   -2058.8623    28208.484   0.22545748 
     160    281.87093     -8005.12   -7973.6769   -2002.9487    28208.484   0.24504756 
     170    281.00839    -8005.024   -7973.6771   -2057.3307    28208.484   0.26222423 
     180    282.68046     -8005.21   -7973.6765   -2118.7926    28208.484   0.27648184 
     190    291.53832   -8006.1995   -7973.6779   -2237.0667    28208.484   0.28923786 
     200    293.64302   -8006.4325   -7973.6762   -2373.3356    28208.484   0.30372277 
     210    298.64228   -8006.9936   -7973.6796   -2435.1957    28208.484   0.32052492 
     220    292.65421   -8006.3221   -7973.6761   -2273.8456    28208.484   0.33666335 
     230    296.18967   -8006.7198   -7973.6794   -2277.4624    28208.484   0.34931106 
     240    282.07352   -8005.1401   -7973.6743   -2198.7147    28208.484   0.36070053 
     250    293.47873    -8006.417    -7973.679   -2346.9356    28208.484   0.37209929 
     260    294.86866   -8006.5718   -7973.6788   -2406.0825    28208.484   0.38456478 
     270    292.66954   -8006.3399   -7973.6921   -2371.6679    28208.484   0.39632792 
     280    288.22645   -8005.8424   -7973.6903   -2343.9303    28208.484   0.40740341 
     290    280.03766   -8004.9272   -7973.6886   -2399.6918    28208.484   0.41930862 
     300    280.42672   -8004.9707   -7973.6886   -2493.7264    28208.484   0.43203295 
     310    287.66524   -8005.7795     -7973.69   -2540.7382    28208.484   0.44617059 
     320    287.59248   -8005.7709   -7973.6895   -2479.6365    28208.484   0.46153129 
     330    287.30367   -8005.7384   -7973.6892   -2430.7941    28208.484   0.47558463 
     340      291.107   -8006.1632   -7973.6897   -2433.3574    28208.484   0.48761679 
     350    290.07985   -8006.0486   -7973.6898   -2407.8749    28208.484   0.49931209 
     360    283.46216   -8005.3096    -7973.689    -2324.857    28208.484   0.51138392 
     370    283.31611   -8005.2933    -7973.689   -2223.9029    28208.484   0.52363749 
     380    293.81781   -8006.4657   -7973.6899   -2201.7975    28208.484   0.53571675 
     390    300.79692   -8007.2454   -7973.6911   -2203.1603    28208.484   0.54763687 
     400    296.63974     -8006.78   -7973.6894   -2207.2978    28208.484   0.55946952 
     410     295.9675   -8006.7055   -7973.6899    -2389.454    28208.484   0.57119336 
     420    296.34311   -8006.7466   -7973.6891   -2528.2941    28208.484   0.58115249 
     430    302.08464   -8007.3879   -7973.6899   -2546.6384    28208.484   0.58802692 
     440    300.89773   -8007.2566    -7973.691   -2408.1467    28208.484   0.59313659 
     450    295.75798   -8006.6815   -7973.6893   -2201.4544    28208.484   0.59704421 
     460    298.71554   -8007.0127   -7973.6905   -2097.6901    28208.484   0.60034051 
     470    293.57038   -8006.4367   -7973.6885   -1853.8963    28208.484   0.60455383 
     480    299.68957   -8007.1205   -7973.6897   -1687.1392    28208.484   0.60898733 
     490    304.28303    -8007.634   -7973.6908   -1569.5251    28208.484   0.61372446 
     500    297.76534   -8006.9049   -7973.6887   -1520.9163    28208.484   0.61909997 
     510     298.0343    -8006.936   -7973.6898   -1578.3555    28208.484     0.624484 
     520    298.51386   -8006.9892   -7973.6895   -1617.2528    28208.484   0.63055005 
     530    299.67651    -8007.119   -7973.6896   -1583.6011    28208.484   0.63765456 
     540    301.93935   -8007.3714   -7973.6896    -1486.536    28208.484   0.64551302 
     550    304.04909   -8007.6074   -7973.6903   -1392.2763    28208.484    0.6536082 
     560    304.32541   -8007.6381   -7973.6901   -1287.1967    28208.484   0.66116979 
     570    303.65289   -8007.5627   -7973.6898   -1155.3607    28208.484   0.66831766 
     580    306.61685   -8007.8931   -7973.6895   -1197.3354    28208.484   0.67540713 
     590    314.13334   -8008.7329   -7973.6909   -1349.2051    28208.484   0.68183493 
     600    314.58012   -8008.7816   -7973.6897   -1383.1623    28208.484   0.68848067 
     610    313.36382   -8008.6461   -7973.6899   -1339.6031    28208.484   0.69624527 
     620     312.9428   -8008.5985   -7973.6893   -1300.0364    28208.484   0.70606469 
     630    317.72028    -8009.132   -7973.6899   -1341.7477    28208.484   0.71807814 
     640    322.57063   -8009.6733   -7973.6901   -1410.5145    28208.484   0.73069429 
     650    323.60168   -8009.7886   -7973.6903   -1540.2113    28208.484   0.74223138 
     660    318.39172   -8009.2068   -7973.6897   -1568.6259    28208.484   0.75263353 
     670    316.27474   -8008.9702   -7973.6892   -1586.0839    28208.484    0.7619451 
     680    320.95534   -8009.4935   -7973.6904   -1558.4885    28208.484   0.77150239 
     690    319.85933   -8009.3708     -7973.69    -1459.468    28208.484   0.78296875 
     700    315.81982   -8008.9199   -7973.6897   -1330.2989    28208.484   0.79605918 
     710    316.18394   -8008.9601   -7973.6893   -1285.6029    28208.484   0.80930055 
     720    321.99795   -8009.6098   -7973.6904   -1374.2337    28208.484   0.82124899 
     730    320.60154   -8009.4538   -7973.6902   -1440.5044    28208.484   0.83277534 
     740    316.58517   -8009.0043   -7973.6888   -1452.0725    28208.484    0.8439361 
     750    321.27163   -8009.5293    -7973.691   -1655.1798    28208.484     0.854338 
     760    314.38368   -8008.7598   -7973.6899   -1838.5562    28208.484   0.86584884 
     770     305.9368   -8007.8166   -7973.6889   -1999.9526    28208.484   0.87941766 
     780    305.71483   -8007.7927   -7973.6897   -2140.7584    28208.484   0.89394007 
     790    305.84031   -8007.8065   -7973.6896   -2209.2571    28208.484   0.90782838 
     800    306.48205   -8007.8784   -7973.6899   -2275.1918    28208.484   0.92026204 
     810    304.33355   -8007.6388   -7973.6899   -2343.4421    28208.484   0.93178116 
     820    297.82924   -8006.9125   -7973.6892   -2314.2529    28208.484    0.9431626 
     830    296.11711   -8006.7216   -7973.6893   -2340.1192    28208.484   0.95457823 
     840    299.50491   -8007.0998   -7973.6896   -2406.4366    28208.484   0.96506277 
     850    304.52466   -8007.6597   -7973.6895   -2460.7845    28208.484   0.97329313 
     860     310.8399   -8008.3649   -7973.6902   -2449.0401    28208.484   0.97916609 
     870    310.67413   -8008.3459   -7973.6897   -2327.6881    28208.484   0.98350092 
     880    309.42712   -8008.2065   -7973.6894   -2225.4629    28208.484   0.98651824 
     890    311.26126   -8008.4116   -7973.6899    -2248.854    28208.484   0.98981853 
     900    313.26109   -8008.6341   -7973.6893   -2271.1415    28208.484     0.995508 
     910    320.18937   -8009.4082   -7973.6906   -2399.0494    28208.484    1.0049166 
     920    319.06768   -8009.2826   -7973.6901    -2517.896    28208.484    1.0179539 
     930    311.48412   -8008.4358   -7973.6893   -2630.8665    28208.484    1.0322955 
     940    307.33364   -8007.9728   -7973.6893   -2692.4224    28208.484    1.0452919 
     950    306.79072   -8007.9125   -7973.6895   -2690.0291    28208.484    1.0559933 
     960    307.40028   -8007.9805   -7973.6895    -2685.778    28208.484    1.0648912 
     970    308.12458   -8008.0613   -7973.6895   -2650.3957    28208.484    1.0729687 
     980    308.40186   -8008.0924   -7973.6897   -2580.8757    28208.484    1.0808973 
     990    307.35297   -8007.9752   -7973.6895    -2481.356    28208.484    1.0887898 
    1000    307.21435     -8007.96   -7973.6898   -2353.6684    28208.484    1.0961224 
    1010    306.76152   -8007.9091   -7973.6894   -2248.7956    28208.484    1.1027335 
    1020    309.26646    -8008.189   -7973.6898   -2286.0041    28208.484    1.1099454 
    1030    310.25342   -8008.2989   -7973.6897   -2305.1256    28208.484    1.1183111 
    1040    307.62812   -8008.0062   -7973.6898    -2294.831    28208.484    1.1271276 
    1050    300.85261   -8007.2498   -7973.6892   -2274.7356    28208.484    1.1353455 
    1060    298.03491   -8006.9356   -7973.6894   -2274.0022    28208.484    1.1412949 
    1070     298.1827   -8006.9525   -7973.6898   -2240.2755    28208.484    1.1449307 
    1080    298.32389   -8006.9674   -7973.6889   -2186.0158    28208.484    1.1478628 
    1090    304.12167   -8007.6156   -7973.6903   -2224.5843    28208.484    1.1507358 
    1100    303.21342   -8007.5135   -7973.6896   -2273.1413    28208.484    1.1542182 
    1110    302.55349   -8007.4391   -7973.6888   -2350.8777    28208.484    1.1583885 
    1120    311.89752   -8008.4827   -7973.6901   -2437.4889    28208.484     1.162828 
    1130    317.78566     -8009.14   -7973.6905   -2446.8483    28208.484     1.167408 
    1140    311.56568   -8008.4454   -7973.6898   -2410.0182    28208.484    1.1717043 
    1150    303.07264   -8007.4971   -7973.6889   -2380.3816    28208.484    1.1751291 
    1160    303.70308   -8007.5677   -7973.6892    -2470.872    28208.484    1.1775178 
    1170    310.51899   -8008.3284   -7973.6895   -2617.7569    28208.484    1.1788381 
    1180    316.91994   -8009.0426   -7973.6898   -2682.3818    28208.484    1.1790698 
    1190    320.34041   -8009.4241   -7973.6896   -2666.8258    28208.484    1.1789053 
    1200    321.06279   -8009.5055   -7973.6905   -2603.0061    28208.484    1.1796194 
    1210    314.26027   -8008.7456   -7973.6894   -2485.4053    28208.484    1.1821764 
    1220    309.32884    -8008.196   -7973.6899    -2464.998    28208.484    1.1865082 
    1230    306.19371   -8007.8458   -7973.6895   -2530.8384    28208.484    1.1911967 
    1240    306.63151   -8007.8948   -7973.6896   -2616.4378    28208.484    1.1944331 
    1250    309.06475   -8008.1663   -7973.6897   -2607.8093    28208.484    1.1957913 
    1260    312.48643   -8008.5482   -7973.6898    -2462.899    28208.484    1.1957707 
    1270    312.94072   -8008.5995   -7973.6905   -2234.5909    28208.484    1.1949586 
    1280    309.44145   -8008.2076   -7973.6889   -2027.1289    28208.484    1.1941489 
    1290    314.87458   -8008.8149   -7973.6902   -1974.2087    28208.484    1.1943163 
    1300    319.36818   -8009.3159   -7973.6899   -1982.4404    28208.484     1.195877 
    1310    321.84143   -8009.5922   -7973.6903   -1943.5386    28208.484    1.1987306 
    1320    321.73486     -8009.58     -7973.69    -1845.706    28208.484    1.2036004 
    1330    320.53672   -8009.4466   -7973.6902   -1700.8294    28208.484    1.2106875 
    1340    314.45984   -8008.7682   -7973.6898   -1509.1942    28208.484    1.2186301 
    1350    308.88407   -8008.1459   -7973.6894   -1443.5528    28208.484    1.2257175 
    1360    308.85021   -8008.1421   -7973.6894   -1546.3935    28208.484    1.2310073 
    1370    314.64585   -8008.7893   -7973.6901   -1721.3694    28208.484     1.234708 
    1380    316.29012   -8008.9734   -7973.6908   -1817.9195    28208.484    1.2377498 
    1390    307.32275   -8007.9718   -7973.6895   -1803.5548    28208.484    1.2409119 
    1400    301.76471   -8007.3515   -7973.6892   -1859.1426    28208.484    1.2443267 
    1410    303.86241   -8007.5861   -7973.6897   -1936.9087    28208.484    1.2481193 
    1420    306.88628   -8007.9231   -7973.6894   -1917.1497    28208.484    1.2526965 
    1430    311.21927   -8008.4068   -7973.6898   -1887.7633    28208.484    1.2583105 
    1440    313.42496   -8008.6528   -7973.6898   -1851.4527    28208.484    1.2642026 
    1450     313.3569   -8008.6451   -7973.6897   -1798.7574    28208.484     1.269636 
    1460    313.21275   -8008.6295   -7973.6901   -1825.1156    28208.484    1.2754342 
    1470    309.64761   -8008.2313   -7973.6896   -1804.0626    28208.484    1.2823313 
    1480    309.40126   -8008.2029   -7973.6887   -1783.0935    28208.484    1.2890305 
    1490    320.42565   -8009.4341   -7973.6901   -1893.3186    28208.484    1.2938055 
    1500    328.10175   -8010.2905   -7973.6903   -1974.4184    28208.484    1.2976917 
    1510    327.81197   -8010.2577   -7973.6898    -1937.058    28208.484    1.3022885 
    1520     324.2243   -8009.8576   -7973.6899   -1828.5619    28208.484    1.3070588 
    1530    318.99753   -8009.2739   -7973.6893   -1744.3097    28208.484    1.3111416 
    1540    315.99968   -8008.9401   -7973.6899   -1679.5222    28208.484    1.3147163 
    1550    311.82694   -8008.4737   -7973.6889   -1676.3191    28208.484     1.318865 
    1560    315.99733   -8008.9396   -7973.6896   -1782.1266    28208.484    1.3245612 
    1570    321.70035   -8009.5765   -7973.6904   -1943.6277    28208.484    1.3315419 
    1580    318.91113   -8009.2648   -7973.6898   -1980.5418    28208.484     1.338424 
    1590    316.40503   -8008.9842   -7973.6888   -1871.1257    28208.484    1.3448929 
    1600    323.69059   -8009.7984   -7973.6903   -1863.2593    28208.484    1.3517889 
    1610    324.55521    -8009.895   -7973.6903   -1926.3043    28208.484    1.3589892 
    1620    317.22283   -8009.0757    -7973.689    -2033.451    28208.484    1.3640281 
    1630    315.56944   -8008.8917   -7973.6895   -2189.5743    28208.484    1.3650114 
    1640          316   -8008.9396   -7973.6894   -2246.5115    28208.484     1.363698 
    1650     317.3618   -8009.0917   -7973.6895   -2167.3771    28208.484    1.3628757 
    1660    317.92845   -8009.1553   -7973.6899   -2101.0814    28208.484    1.3639966 
    1670    314.61233   -8008.7852   -7973.6897   -2010.9785    28208.484    1.3669961 
    1680    312.18324   -8008.5133   -7973.6888   -2055.2147    28208.484     1.371293 
    1690    317.45918   -8009.1028   -7973.6897    -2191.224    28208.484    1.3761955 
    1700    321.08797   -8009.5076   -7973.6898   -2266.1824    28208.484    1.3813209 
    1710    322.36089   -8009.6492   -7973.6893   -2262.0514    28208.484    1.3861808 
    1720    325.18317   -8009.9643   -7973.6896   -2258.3202    28208.484    1.3904451 
    1730    326.15411   -8010.0728   -7973.6898    -2317.316    28208.484     1.394947 
    1740     323.8725   -8009.8181   -7973.6896   -2287.8062    28208.484    1.4007384 
    1750    320.41839   -8009.4325   -7973.6894   -2200.4994    28208.484    1.4075406 
    1760     319.2517   -8009.3028   -7973.6898   -2148.7833    28208.484     1.414045 
    1770    317.70647   -8009.1306     -7973.69    -2060.265    28208.484    1.4199919 
    1780    313.91842   -8008.7076   -7973.6895   -1900.1987    28208.484    1.4259827 
    1790    313.00692   -8008.6058   -7973.6894   -1752.6987    28208.484    1.4322179 
    1800     316.3606   -8008.9805     -7973.69   -1656.4741    28208.484    1.4376798 
    1810    317.06323    -8009.059   -7973.6901   -1611.9912    28208.484    1.4414287 
    1820    314.75826    -8008.801   -7973.6892    -1594.078    28208.484    1.4434919 
    1830    319.39788   -8009.3191   -7973.6898   -1580.2478    28208.484    1.4448335 
    1840    326.94741   -8010.1618   -7973.6903   -1586.0007    28208.484    1.4478206 
    1850     328.2751   -8010.3099   -7973.6903   -1510.9657    28208.484    1.4534245 
    1860    325.54844   -8010.0044    -7973.689   -1434.8489    28208.484    1.4597334 
    1870    330.22766   -8010.5276   -7973.6902   -1485.8246    28208.484    1.4649668 
    1880    331.47708   -8010.6665   -7973.6897   -1548.2944    28208.484    1.4702024 
    1890    330.21474   -8010.5256   -7973.6896   -1516.0861    28208.484    1.4764703 
    1900    331.58833   -8010.6782    -7973.689   -1442.8287    28208.484    1.4834549 
    1910    337.92691   -8011.3872    -7973.691   -1475.0881    28208.484    1.4904186 
    1920     332.3277   -8010.7614   -7973.6897   -1417.3686    28208.484    1.4973123 
    1930    326.40875   -8010.1005   -7973.6891    -1294.946    28208.484    1.5028962 
    1940    327.61985   -8010.2367   -7973.6902   -1344.4187    28208.484    1.5071937 
    1950    326.33555   -8010.0933   -7973.6901   -1454.2005    28208.484    1.5117741 
    1960    320.98412   -8009.4961   -7973.6898    -1539.947    28208.484    1.5179832 
    1970    316.38994    -8008.983   -7973.6892   -1494.5471    28208.484    1.5266599 
    1980    318.66568   -8009.2379   -7973.6903    -1430.619    28208.484     1.537506 
    1990    319.09324   -8009.2848   -7973.6895   -1383.3475    28208.484     1.548395 
    2000    324.20331   -8009.8559   -7973.6905   -1553.3118    28208.484     1.556546 
Loop time of 1685.33 on 16 procs for 2000 steps with 864 atoms

Performance: 0.103 ns/day, 234.073 hours/ns, 1.187 timesteps/s
96.3% CPU use with 16 MPI tasks x 1 OpenMP threads

MPI task timing breakdown:
Section |  min time  |  avg time  |  max time  |%varavg| %total
---------------------------------------------------------------
Pair    | 1199.2     | 1398.3     | 1549       | 326.0 | 82.97
Bond    | 0.00019598 | 0.00055723 | 0.00088692 |   0.0 |  0.00
Neigh   | 0.021893   | 0.053267   | 0.17463    |  22.8 |  0.00
Comm    | 126.76     | 274.86     | 478.2      | 725.1 | 16.31
Output  | 5.6906     | 11.964     | 24.488     | 168.4 |  0.71
Modify  | 0.011069   | 0.012893   | 0.016269   |   1.0 |  0.00
Other   |            | 0.1875     |            |       |  0.01

Nlocal:        54.0000 ave          63 max          48 min
Histogram: 5 0 1 2 2 1 1 2 0 2
Nghost:        409.688 ave         449 max         386 min
Histogram: 3 3 1 3 2 1 1 0 0 2
Neighs:         0.00000 ave           0 max           0 min
Histogram: 16 0 0 0 0 0 0 0 0 0
FullNghs:      1604.62 ave        2106 max        1301 min
Histogram: 5 0 2 2 2 0 2 1 1 1

Total # of neighbors = 25674
Ave neighs/atom = 29.715278
Ave special neighs/atom = 0.0000000
Neighbor list builds = 199
Dangerous builds = 198
unfix   1

velocity    all create 1012.5 1312343 dist gaussian
fix     2 all npt temp 1012.5 1012.5 $(100.0*dt) aniso 0.0 1.01325 $(1000.0*dt)
fix     2 all npt temp 1012.5 1012.5 0.10000000000000000555 aniso 0.0 1.01325 $(1000.0*dt)
fix     2 all npt temp 1012.5 1012.5 0.10000000000000000555 aniso 0.0 1.01325 1
run     3000
Per MPI rank memory allocation (min/avg/max) = 8.893 | 8.897 | 8.900 Mbytes
Step Temp PotEng TotEng Press Volume c_msd[4] 
    2000       1012.5   -8009.8559     -7896.91    1353.9923    28208.484     1.556546 
    2010    942.42008   -8002.0174    -7896.889    1730.1428    28209.901    1.5617447 
    2020    830.70368   -7989.4028   -7896.7365    2304.8315     28214.77    1.5735035 
    2030    751.62363   -7980.1457   -7896.3009    2777.6473    28224.184    1.5871292 
    2040    698.23435     -7973.39   -7895.5009    3101.8403    28239.084    1.6034318 
    2050     669.8549   -7969.0818   -7894.3585    3095.0015    28260.108    1.6245497 
    2060    664.53564   -7967.1599     -7893.03    2754.2615    28287.274    1.6507734 
    2070    665.46761   -7965.9881   -7891.7541    2164.1846    28319.952    1.6804646 
    2080    677.28587   -7966.1519   -7890.5997    1321.6004    28356.973    1.7113656 
    2090    672.00906   -7964.4281   -7889.4645    783.07422    28396.778     1.743307 
    2100    660.18209   -7961.9066   -7888.2623    545.64637    28438.283    1.7763098 
    2110    649.94875    -7959.438   -7886.9353    637.24407    28481.029    1.8084341 
    2120     653.3263   -7958.3673   -7885.4878    774.76239    28525.129    1.8376946 
    2130    656.18347   -7957.1446   -7883.9464    831.65652    28570.824    1.8645365 
    2140    663.26913   -7956.3439   -7882.3553    680.12023    28618.209     1.888303 
    2150    692.61145   -7957.9492   -7880.6873    196.91054    28666.923    1.9081027 
    2160    718.22403   -7959.0511   -7878.9322   -207.09666     28716.03    1.9267755 
    2170    733.60896   -7958.9636   -7877.1284   -408.35954      28764.7     1.947796 
    2180    741.54551   -7958.0188   -7875.2982   -495.82189    28812.468    1.9723194 
    2190    747.38949   -7956.8179   -7873.4455    -597.8975    28859.092    1.9983283 
    2200    749.85798   -7955.2138    -7871.566   -689.66305    28904.343    2.0235579 
    2210    749.98316   -7953.3262   -7869.6644   -852.90738    28947.976    2.0470379 
    2220    743.16717   -7950.6478   -7867.7464    -823.4993    28989.694     2.067736 
    2230    740.80232   -7948.4577   -7865.8201    -739.3578    29029.511    2.0850842 
    2240    749.40514   -7947.4644   -7863.8672   -834.53199    29067.528    2.1009473 
    2250    760.26458   -7946.6887   -7861.8801   -728.75868    29103.631    2.1181292 
    2260    768.07911   -7945.5597   -7859.8793   -584.59614    29138.005    2.1373288 
    2270    791.43811   -7946.1393   -7857.8532   -740.37245    29170.878    2.1583067 
    2280     810.2705   -7946.1781   -7855.7912   -856.94116    29202.002    2.1830201 
    2290    811.97207   -7944.3146   -7853.7379   -831.92076    29231.138    2.2126072 
    2300    823.62411   -7943.5758   -7851.6993   -760.30702    29258.317    2.2454514 
    2310    823.07486   -7941.4754   -7849.6602   -398.52882    29283.778    2.2800849 
    2320    837.40885   -7941.0434   -7847.6292   -154.87201    29308.212    2.3141858 
    2330    861.92628   -7941.7179   -7845.5687   -352.45952     29332.07    2.3464426 
    2340    868.27835    -7940.366   -7843.5082   -358.13981     29355.07    2.3769925 
    2350    873.93846   -7938.9738   -7841.4846   -296.55762     29377.16    2.4048268 
    2360    886.91363   -7938.4069   -7839.4704    -340.6901    29398.449     2.429945 
    2370      891.392   -7936.9095   -7837.4734   -311.63864     29418.89    2.4550189 
    2380    886.30217    -7934.376   -7835.5077   -215.15873    29438.547    2.4831265 
    2390    875.26455   -7931.2071     -7833.57   -78.517796    29457.634    2.5164831 
    2400    888.78063   -7930.7727   -7831.6279   -23.119613     29476.42    2.5540052 
    2410    909.63353   -7931.1276   -7829.6566    70.648381    29495.056    2.5948771 
    2420    920.22059   -7930.3437   -7827.6917    122.50746    29513.723    2.6362671 
    2430    912.90568   -7927.6086   -7825.7726    174.08314    29532.552    2.6736663 
    2440    920.35369   -7926.5533   -7823.8864    64.816558    29551.623    2.7049985 
    2450    944.10801   -7927.3041   -7821.9874   -317.47375    29570.673    2.7332395 
    2460     949.2407   -7925.9963   -7820.1071   -431.67648    29588.994    2.7628988 
    2470    940.16426   -7923.1609   -7818.2842   -263.74245    29606.332    2.7957289 
    2480    937.51531   -7921.0853   -7816.5041   -86.499028    29622.999    2.8324158 
    2490    945.14262   -7920.1726   -7814.7405   -40.872434    29639.362    2.8726345 
    2500    953.51096   -7919.3498   -7812.9843   -81.960839    29655.542    2.9134963 
    2510    967.63673   -7919.1867   -7811.2453   -101.22713    29671.467     2.953208 
    2520    969.57275   -7917.6954   -7809.5381    96.134562    29687.151    2.9911857 
    2530    994.78936   -7918.8371   -7807.8669     33.29234    29702.911    3.0246303 
    2540    1031.0513    -7921.238   -7806.2227   -133.97869    29718.663    3.0530962 
    2550    1055.8344   -7922.4552   -7804.6753   -248.78096    29734.053    3.0805561 
    2560    1046.2576   -7919.9921   -7803.2805   -32.347275    29748.907    3.1110739 
    2570    1053.0182   -7919.5069   -7802.0412      111.146    29763.596    3.1442509 
    2580    1064.4864   -7919.6651   -7800.9201    304.34484    29778.481    3.1790151 
    2590    1067.5453   -7919.0273   -7799.9411    591.55008    29793.986    3.2152703 
    2600    1066.5765   -7918.0898   -7799.1116    620.81186     29810.67    3.2548156 
    2610    1063.1181   -7917.0138   -7798.4213    448.65562    29828.605    3.3006155 
    2620    1050.0993   -7915.0022   -7797.8621    535.65312    29847.505    3.3539271 
    2630    1018.8529   -7911.0517   -7797.3971    696.49757    29867.502    3.4085884 
    2640    1009.4392   -7909.5743   -7796.9698    606.22367    29888.897    3.4547147 
    2650    1031.1996   -7911.5752   -7796.5433    269.74565    29911.496    3.4903406 
    2660    1048.2573   -7913.0765   -7796.1418    -65.38225    29934.587    3.5220907 
    2670    1052.1079   -7913.1696   -7795.8054   -282.61448    29957.464    3.5551069 
    2680    1063.9473   -7914.2419    -7795.557   -502.48799    29979.596    3.5903718 
    2690    1071.0716   -7914.9005   -7795.4209   -680.32699    30000.507    3.6284233 
    2700     1076.935   -7915.5599   -7795.4262   -863.18989    30019.792    3.6688442 
    2710    1069.4954   -7914.8859   -7795.5821   -945.68258    30037.065    3.7111188 
    2720    1044.2851   -7912.3558   -7795.8643   -811.01916    30052.187    3.7542924 
    2730    1032.9112   -7911.4543   -7796.2315   -774.02214    30065.393    3.7990656 
    2740    1014.8936   -7909.8504   -7796.6375   -841.50507    30076.793    3.8447416 
    2750      998.371   -7908.4151   -7797.0453    -1108.014    30086.209    3.8885112 
    2760    988.65771   -7907.7061   -7797.4198   -1323.1108    30093.085    3.9285685 
    2770    982.50934   -7907.3389   -7797.7385   -1177.0508    30097.041    3.9631848 
    2780    1002.4915   -7909.8302   -7798.0008   -1197.5053    30098.307    3.9905278 
    2790    1038.5817   -7914.1167   -7798.2614   -1433.8301    30096.846    4.0115494 
    2800    1036.8008   -7914.2276   -7798.5709   -1445.6678    30092.266    4.0308879 
    2810    1014.5709   -7912.1079   -7798.9309   -1451.5518    30084.492    4.0518206 
    2820    991.03754   -7909.8409   -7799.2892   -1462.3459    30073.557    4.0741726 
    2830    981.53828   -7909.0899   -7799.5979    -1570.254    30059.445    4.0956902 
    2840    982.71498   -7909.4678   -7799.8445   -1573.8056    30041.999     4.114857 
    2850    985.48204   -7909.9648   -7800.0328   -1505.2429    30021.248    4.1310349 
    2860    985.95672   -7910.1557   -7800.1707   -1298.9123    29997.421     4.145931 
    2870    987.45912   -7910.3986    -7800.246   -947.78146    29971.023    4.1623524 
    2880    983.80688    -7910.003   -7800.2578   -668.71564    29942.834     4.181608 
    2890    962.92617   -7907.6202   -7800.2044   -778.98035     29913.44     4.206136 
    2900     947.7413   -7905.7868   -7800.0648   -992.89739    29882.711    4.2362008 
    2910    943.08221   -7905.0054   -7799.8032   -1010.1673    29850.284    4.2664083 
    2920    945.58853   -7904.8782   -7799.3964    -882.0938    29816.141    4.2923293 
    2930    957.95233   -7905.6994   -7798.8384    -505.9214    29780.669    4.3129046 
    2940    981.13082   -7907.5991   -7798.1525   -167.39465    29744.659     4.328723 
    2950    995.57316   -7908.4337    -7797.376      157.215    29708.914    4.3424861 
    2960    1021.8529   -7910.5505   -7796.5613    222.65996     29674.11    4.3555057 
    2970    1019.8535    -7909.505   -7795.7388    473.12656     29640.51    4.3710086 
    2980    1032.2801   -7910.0946   -7794.9422    659.97837    29608.582    4.3893199 
    2990    1031.0257   -7909.1847   -7794.1722    914.85887    29578.772    4.4088432 
    3000    1014.2978   -7906.5962   -7793.4498    1260.2523    29551.586    4.4278462 
    3010      1014.51   -7905.9186   -7792.7485    1426.7503     29527.66    4.4463355 
    3020    1021.2909   -7905.9865     -7792.06    1447.6553      29507.3    4.4653442 
    3030    1018.8876   -7905.0532   -7791.3947    1469.4785    29490.487    4.4870726 
    3040    1011.3084   -7903.5702   -7790.7573    1528.7618     29477.19    4.5136624 
    3050    996.11747   -7901.2485   -7790.1301    1658.5511    29467.463    4.5458272 
    3060    992.21678   -7900.1758   -7789.4925    1831.5648    29461.488    4.5837459 
    3070    993.78432   -7899.6777   -7788.8195    2071.0573    29459.575    4.6255098 
    3080    1024.1519   -7902.3634   -7788.1177    2055.3987    29462.085    4.6637815 
    3090    1062.3497   -7905.9378   -7787.4311    2087.9343     29468.94    4.6973032 
    3100    1075.5354   -7906.8223   -7786.8448    2256.9182    29480.153     4.728836 
    3110    1084.9643   -7907.4427   -7786.4133     2024.486    29495.854    4.7582579 
    3120    1081.4117   -7906.7939   -7786.1608    1737.7554    29515.562    4.7857522 
    3130    1064.3079   -7904.7946   -7786.0694    1315.6864    29538.563    4.8135479 
    3140    1053.6669   -7903.6354   -7786.0973       784.62    29563.893    4.8463405 
    3150    1055.6277   -7903.9777   -7786.2209    412.71113    29590.434    4.8847216 
    3160    1029.3706   -7901.2524   -7786.4246    441.98809    29617.421    4.9242758 
    3170    1027.1145   -7901.2535   -7786.6774    248.87603    29644.767    4.9645745 
    3180     1040.718   -7903.0593   -7786.9656   -20.628606    29672.091    5.0088321 
    3190    1037.8033   -7903.0828   -7787.3143    54.924144    29698.901    5.0562292 
    3200    1029.1847   -7902.5236   -7787.7165    74.691929    29725.286    5.1021655 
    3210    1031.1847   -7903.1946   -7788.1643   -86.878538    29751.278    5.1433586 
    3220    1014.9496   -7901.8581    -7788.639   -134.41988    29776.592     5.179365 
    3230    1000.7802   -7900.7525    -7789.114   -111.31099     29801.13    5.2087426 
    3240    997.96213   -7900.8824   -7789.5582   -212.00306    29824.914    5.2343431 
    3250    1002.3534   -7901.7858   -7789.9718   -240.98794    29847.786    5.2602357 
    3260     996.1948   -7901.4881    -7790.361    38.113943    29869.753    5.2867854 
    3270    989.95284   -7901.1495   -7790.7187    422.77483    29891.377    5.3116293 
    3280    990.52633   -7901.5338   -7791.0391    641.55755    29913.487    5.3348763 
    3290    985.64965    -7901.258   -7791.3073    407.72827    29936.512     5.362275 
    3300    993.74205   -7902.3708   -7791.5174   -48.562469    29959.962    5.3939133 
    3310    1013.1338    -7904.704   -7791.6874   -283.13439    29982.913    5.4215857 
    3320    1031.3717   -7906.9099   -7791.8588   -215.27151     30004.89    5.4433502 
    3330    1050.0726   -7909.2204   -7792.0832   -153.50048    30025.989    5.4613919 
    3340    1042.9122   -7908.7279   -7792.3894   -14.014681    30046.379    5.4798413 
    3350    1014.8573   -7905.9667   -7792.7578    109.53568    30066.368    5.5020026 
    3360    987.91583   -7903.3255    -7793.122    91.372365    30086.228    5.5297315 
    3370     979.8112   -7902.7307   -7793.4313   -116.36991    30105.906    5.5635577 
    3380    990.47185   -7904.1638   -7793.6752   -312.20918    30125.001    5.6021552 
    3390    1009.3349    -7906.471   -7793.8782   -627.69379    30143.039    5.6431503 
    3400    1011.8499   -7906.9472   -7794.0738   -755.85617    30159.425    5.6818356 
    3410    995.31489   -7905.2936   -7794.2647    -771.9524    30173.875    5.7154786 
    3420    974.02339   -7903.0653   -7794.4116   -750.95023    30186.378    5.7460678 
    3430    971.93658   -7902.9079   -7794.4869   -925.70724    30196.947    5.7772712 
    3440    966.71549   -7902.3104   -7794.4718   -954.05597    30205.314    5.8109539 
    3450    974.18388   -7903.0384   -7794.3667   -936.77853    30211.416    5.8480699 
    3460    987.99551   -7904.3887   -7794.1763   -965.35872    30215.307    5.8897135 
    3470      984.123   -7903.7016   -7793.9212   -724.89322    30217.043    5.9356971 
    3480    974.13767    -7902.272   -7793.6055   -542.57363    30217.123    5.9819712 
    3490    971.50509   -7901.5817   -7793.2088    -419.2704    30215.998    6.0226833 
    3500    980.65749   -7902.1223   -7792.7285   -418.16304    30213.913    6.0549206 
    3510    1001.4691   -7903.8857   -7792.1703    -500.3966    30210.919    6.0773514 
    3520    1027.6999   -7906.2213   -7791.5798   -758.20318    30206.804      6.09549 
    3530    1018.5771   -7904.6322   -7791.0084   -785.41738    30201.088     6.116909 
    3540    1005.1483   -7902.5917   -7790.4659   -810.07519     30193.68    6.1411485 
    3550    997.61539    -7901.196   -7789.9105   -739.05861    30184.595    6.1664303 
    3560    1011.1847   -7902.1348   -7789.3356   -890.12651    30173.932    6.1914773 
    3570    1012.1604   -7901.6554   -7788.7474   -986.91356    30161.439    6.2162768 
    3580    1019.3582   -7901.8813   -7788.1703   -776.94877    30146.956    6.2443504 
    3590     1033.573   -7902.9029   -7787.6062   -368.85012    30130.953    6.2772841 
    3600    1047.6582   -7903.9546   -7787.0868     -1.67008     30114.31    6.3143609 
    3610    1040.8047   -7902.7429   -7786.6396    44.228245    30097.776    6.3566219 
    3620    1025.4084   -7900.6505   -7786.2647   -33.449113    30081.502    6.4015816 
    3630    1016.2497   -7899.2951   -7785.9309   -228.63681    30065.306    6.4448761 
    3640    1004.6943   -7897.6802   -7785.6051   -339.06748    30048.804    6.4826122 
    3650    1015.1946   -7898.5221   -7785.2756   -584.34338    30031.687    6.5103309 
    3660    1028.4665   -7899.6697   -7784.9427   -592.62674    30013.511    6.5294688 
    3670    1044.3267    -7901.136   -7784.6398   -380.26323    29994.243    6.5442016 
    3680    1044.6773   -7900.9269   -7784.3916    -288.9969    29974.294     6.558742 
    3690    1035.5654   -7899.7339    -7784.215   -326.05223    29953.871     6.575278 
    3700    1029.6603   -7898.9556   -7784.0955   -422.96577    29932.902    6.5943846 
    3710    1044.6553   -7900.5635   -7784.0306   -500.38576    29911.207    6.6168066 
    3720    1050.3913   -7901.2075   -7784.0348   -586.26204    29888.606     6.643636 
    3730    1042.0933   -7900.3746   -7784.1276   -521.50551    29864.941    6.6715586 
    3740    1030.6854   -7899.2578   -7784.2833   -290.46582    29840.379    6.6957848 
    3750    1031.8731   -7899.5935   -7784.4865   -118.39385    29815.376    6.7169303 
    3760      1029.49   -7899.5684   -7784.7272    44.365816    29790.348    6.7382916 
    3770    1024.4255   -7899.2792    -7785.003    19.663906    29765.609    6.7611574 
    3780    1023.9832   -7899.5387   -7785.3118    171.17553    29741.184    6.7819627 
    3790    1031.1158   -7900.6709   -7785.6483    415.40057    29717.376    6.7947479 
    3800    1042.9438   -7902.3723   -7786.0303    747.61621    29694.701    6.8012077 
    3810    1042.1174   -7902.7155   -7786.4658    1311.9651     29673.91    6.8100939 
    3820    1040.5038   -7903.0287   -7786.9589    1688.2534    29656.139    6.8265301 
    3830    1036.3786   -7903.1306    -7787.521    1802.4968    29642.154    6.8506517 
    3840    1011.4812   -7900.9485   -7788.1162    1855.0883    29632.197    6.8806635 
    3850    993.96325    -7899.583    -7788.705    1799.2957    29626.322    6.9140218 
    3860     977.3317   -7898.2544   -7789.2316    1812.1731    29624.436    6.9479789 
    3870    990.25815   -7900.1627   -7789.6979    1663.7428    29626.464    6.9783655 
    3880    984.26088   -7899.9037   -7790.1079    1704.2845    29632.152    7.0055379 
    3890     975.0232   -7899.2217   -7790.4564    1697.7458    29641.517    7.0326207 
    3900    967.36617    -7898.642   -7790.7308    1367.9204     29654.45    7.0591778 
    3910    946.66873   -7896.5022   -7790.8999    1160.6463    29670.331    7.0828802 
    3920     951.7966   -7897.1208   -7790.9464    911.18423    29688.658    7.1050744 
    3930    952.74276   -7897.1355   -7790.8556    687.90437      29708.9    7.1297601 
    3940    968.35389   -7898.6598   -7790.6384    236.93629    29730.499    7.1588404 
    3950    995.38119   -7901.3498   -7790.3135   -375.01241    29752.491    7.1924658 
    3960    1006.5528     -7902.21   -7789.9275   -660.19367    29773.646    7.2295571 
    3970    1015.2159   -7902.7683   -7789.5195   -590.02507    29793.343    7.2650902 
    3980    1033.6087   -7904.4172   -7789.1166    -450.0026      29811.7    7.2959189 
    3990    1044.4277   -7905.2589   -7788.7514    -492.2439    29828.975    7.3269042 
    4000    1037.4133    -7904.177    -7788.452    -440.9338    29845.148    7.3630045 
    4010    1021.9727   -7902.2127   -7788.2101   -355.16911    29860.309    7.4036142 
    4020    1012.4357   -7900.9328   -7787.9941   -332.70646    29874.626    7.4449916 
    4030    989.50381    -7898.155   -7787.7744   -219.98506    29888.195    7.4867309 
    4040    962.44837   -7894.8682   -7787.5057    -113.1507     29901.26      7.52752 
    4050    973.04728   -7895.6875   -7787.1427   -206.89068    29914.021    7.5636105 
    4060    990.32411   -7897.1539   -7786.6818   -321.47837    29926.301    7.5979946 
    4070    996.10852   -7897.2758   -7786.1584   -378.54018    29937.863    7.6339872 
    4080    1012.0524   -7898.4947   -7785.5987   -394.55991    29948.577    7.6709647 
    4090    1018.9468   -7898.6935   -7785.0285   -181.27244    29958.458    7.7097776 
    4100    1017.2552   -7897.9536   -7784.4773    143.72993    29967.967    7.7496569 
    4110    1016.8157   -7897.3764   -7783.9491    386.11167    29977.789    7.7854082 
    4120    1017.3084   -7896.9221   -7783.4398    523.35939    29988.459    7.8149701 
    4130    1030.9994   -7897.9606    -7782.951    486.20439    30000.284    7.8402779 
    4140    1053.0258   -7899.9664   -7782.4998    159.55067    30013.143    7.8626117 
    4150      1061.35   -7900.5234   -7782.1282    71.504546    30026.427    7.8807611 
    4160     1069.632   -7901.1877   -7781.8687    158.60888    30039.913    7.8969407 
    4170    1070.2871   -7901.1327   -7781.7406    316.96999    30053.767    7.9190995 
    4180    1055.1333   -7899.4469   -7781.7452    557.68777    30068.354    7.9517531 
    4190    1036.8254   -7897.5078   -7781.8483    665.71784    30084.176     7.991025 
    4200    1036.1462   -7897.6009   -7782.0172    510.36651    30101.467    8.0283002 
    4210    1038.9227   -7898.1369   -7782.2435    449.55789    30119.961    8.0596323 
    4220    1036.0023   -7898.0987   -7782.5311    578.15682     30139.53    8.0896182 
    4230     1030.312   -7897.8179   -7782.8851     590.8038    30160.406    8.1238409 
    4240    1006.4144   -7895.5371   -7783.2701    302.47635     30182.58    8.1678841 
    4250     998.9422   -7895.0803   -7783.6468   -44.779207     30205.47    8.2184065 
    4260    1000.0828   -7895.5577    -7783.997   -257.83079    30228.343    8.2672974 
    4270    1004.0773   -7896.3307   -7784.3244   -530.19811    30250.658    8.3096991 
    4280    1001.3591   -7896.3348   -7784.6316   -732.79503    30271.822    8.3473632 
    4290    1007.1709   -7897.2751   -7784.9237   -941.90963    30291.351    8.3861621 
    4300     1000.162   -7896.7746    -7785.205   -868.60043    30308.842    8.4301537 
    4310      986.817   -7895.5461   -7785.4652   -703.46649    30324.402    8.4795191 
    4320    989.61002   -7896.0785    -7785.686   -727.40025    30338.366    8.5337437 
    4330    995.70768   -7896.9377    -7785.865   -821.07595    30350.709    8.5920313 
    4340    1001.7335   -7897.7625   -7786.0177    -929.6055    30361.194    8.6505866 
    4350    994.92798   -7897.1318    -7786.146   -921.81133    30369.603    8.7015687 
    4360    1005.8598   -7898.4594   -7786.2543   -1193.3874    30375.858    8.7410759 
    4370    1001.1217   -7898.0221   -7786.3455   -1348.0063    30379.438    8.7723534 
    4380    992.48737   -7897.1322   -7786.4187   -1336.2785    30379.971    8.8007173 
    4390    1001.0327   -7898.1245   -7786.4578   -1426.8436    30377.425    8.8289047 
    4400    1014.8876   -7899.6929   -7786.4806    -1390.016    30371.644     8.857438 
    4410    1017.0284   -7899.9537   -7786.5026   -1301.3575    30362.665    8.8873373 
    4420    1025.0401   -7900.8933   -7786.5485   -1212.9272    30350.679     8.917721 
    4430    1002.5414   -7898.4456   -7786.6106   -973.52264    30335.924    8.9438394 
    4440    992.73365    -7897.408   -7786.6671   -969.18499    30318.841    8.9655885 
    4450    978.35203   -7895.8119   -7786.6753   -984.62335    30299.503    8.9871146 
    4460    975.62863   -7895.4432   -7786.6104   -843.20213     30277.89    9.0086398 
    4470     979.3674   -7895.7036   -7786.4537   -606.29125    30254.302    9.0321686 
    4480    977.42428   -7895.2276   -7786.1945   -376.74726    30229.253    9.0572668 
    4490    1002.9986   -7897.7204   -7785.8344   -190.65976    30203.261    9.0805141 
    4500    1027.4339   -7900.0001   -7785.3883    190.88567     30176.81    9.0988567 
    4510    1051.7815   -7902.2484   -7784.9206    545.48943    30150.688    9.1114358 
    4520    1063.9983   -7903.1733   -7784.4827    888.42515    30125.739    9.1241726 
    4530    1076.9358   -7904.2706   -7784.1368    803.13952    30102.608    9.1430582 
    4540    1065.4555   -7902.7635   -7783.9103    691.97729    30081.224    9.1656022 
    4550     1045.278   -7900.4029   -7783.8005    558.66937    30061.324    9.1863809 
    4560     1026.202   -7898.2395   -7783.7651    489.49359     30042.63    9.2030306 
    4570    1013.7858   -7896.8512   -7783.7619     541.2733    30024.989    9.2181435 
    4580    999.80005   -7895.2868   -7783.7576    905.19916    30008.568    9.2324452 
    4590    987.90111   -7893.9217   -7783.7198    999.67413    29994.044    9.2433316 
    4600    997.46733   -7894.8989   -7783.6299    741.58706     29981.64    9.2523391 
    4610    1011.2942   -7896.2991   -7783.4877    413.45839    29970.844    9.2612654 
    4620    1016.8124   -7896.7529    -7783.326    344.90385    29960.973    9.2670433 
    4630    1014.5949   -7896.3317   -7783.1522    484.87827    29951.882     9.268403 
    4640    1018.8074   -7896.6164   -7782.9669    450.97169    29943.808    9.2689686 
    4650    1015.4925   -7896.0453   -7782.7656    384.45519    29936.709     9.269821 
    4660    1014.0217   -7895.6694   -7782.5538    245.55624    29930.408    9.2698014 
    4670     1007.634   -7894.7202   -7782.3171    261.64439    29924.657    9.2710639 
    4680    1009.3474   -7894.6381   -7782.0439    546.96721    29919.521    9.2748804 
    4690    1017.5044   -7895.2376   -7781.7334    849.89887    29915.591    9.2808149 
    4700    1031.3644   -7896.4403   -7781.3901    792.09064     29913.47    9.2885626 
    4710    1056.8005    -7898.947   -7781.0593    564.94371    29913.055    9.2987995 
    4720    1046.5857   -7897.5329   -7780.7847    638.91107    29913.971     9.314433 
    4730    1015.5529   -7893.8518   -7780.5654      763.058    29916.334    9.3362609 
    4740    1011.3573   -7893.1637   -7780.3453    743.74969    29920.386    9.3578003 
    4750    1025.3798   -7894.4917   -7780.1091     692.8165    29926.117    9.3745855 
    4760    1016.4209   -7893.2478   -7779.8645    759.52492    29933.479    9.3863641 
    4770    1033.8905   -7894.9581   -7779.6261    406.58252    29942.499    9.3956959 
    4780    1040.5828   -7895.4787   -7779.4001   -22.916889    29952.485    9.4092444 
    4790    1036.8087   -7894.8779   -7779.2203    -190.1083    29962.534    9.4269535 
    4800    1033.2173   -7894.3277   -7779.0708   -162.21881    29972.274    9.4446997 
    4810    1048.7692   -7895.9521   -7778.9603   -104.59016    29981.728    9.4589085 
    4820    1066.8508   -7897.9327   -7778.9239   -91.218951    29991.011    9.4687091 
    4830    1061.5678   -7897.4269   -7779.0075   -131.63241    30000.161    9.4736148 
    4840    1036.8517   -7894.8772   -7779.2148   -37.471281    30009.119    9.4762005 
    4850    1012.1508    -7892.407      -7779.5    213.55748    30018.081    9.4796287 
    4860     1005.828   -7892.0162   -7779.8146    586.23411    30027.642    9.4845904 
    4870    1036.4823   -7895.7908   -7780.1696    638.91274    30038.519    9.4927213 
    4880    1050.6321   -7897.8126    -7780.613    583.16659    30050.898     9.511523 
    4890     1046.851   -7897.9622   -7781.1844    585.79402    30064.709     9.545781 
    4900    1043.0966   -7898.2384   -7781.8794    649.41959    30079.963    9.5962613 
    4910     1043.466   -7899.0962    -7782.696    630.51064    30096.783    9.6538051 
    4920    1028.7175   -7898.3571   -7783.6021     613.1253    30115.167    9.7036925 
    4930    1024.8606   -7898.8741   -7784.5493    421.39113     30135.05    9.7429335 
    4940    1029.3741     -7900.33   -7785.5017   -38.983295    30155.972    9.7797649 
    4950    1029.2412    -7901.239   -7786.4256   -454.95897    30176.971    9.8190495 
    4960    1031.6412   -7902.3815   -7787.3004   -714.78602    30197.119    9.8589515 
    4970    1024.5436   -7902.4028   -7788.1134   -598.73887     30215.86    9.8961888 
    4980    1016.7121   -7902.2637    -7788.848   -219.39759    30233.418    9.9281445 
    4990    1016.4095   -7902.8764   -7789.4944    22.223054     30250.56    9.9553987 
    5000    993.89115   -7900.9133   -7790.0433    184.01836    30267.861    9.9828615 
Loop time of 2692.32 on 16 procs for 3000 steps with 864 atoms

Performance: 0.096 ns/day, 249.289 hours/ns, 1.114 timesteps/s
96.5% CPU use with 16 MPI tasks x 1 OpenMP threads

MPI task timing breakdown:
Section |  min time  |  avg time  |  max time  |%varavg| %total
---------------------------------------------------------------
Pair    | 2264.1     | 2410.7     | 2492.2     | 114.5 | 89.54
Bond    | 0.00051618 | 0.00093073 | 0.0013759  |   0.0 |  0.00
Neigh   | 0.032921   | 0.035082   | 0.037659   |   0.7 |  0.00
Comm    | 87.759     | 167.59     | 305.4      | 386.4 |  6.22
Output  | 0.62898    | 0.63986    | 0.80175    |   5.2 |  0.02
Modify  | 89.996     | 113.32     | 139.74     | 147.2 |  4.21
Other   |            | 0.01827    |            |       |  0.00

Nlocal:        54.0000 ave          61 max          48 min
Histogram: 1 1 2 2 5 0 3 0 1 1
Nghost:        395.000 ave         412 max         377 min
Histogram: 1 0 2 3 1 3 2 2 1 1
Neighs:         0.00000 ave           0 max           0 min
Histogram: 16 0 0 0 0 0 0 0 0 0
FullNghs:      1499.88 ave        1804 max        1288 min
Histogram: 2 0 4 2 3 2 1 0 1 1

Total # of neighbors = 23998
Ave neighs/atom = 27.775463
Ave special neighs/atom = 0.0000000
Neighbor list builds = 300
Dangerous builds = 300
unfix   2

fix     3 all npt temp 1012.5 1012.5 $(100.0*dt) aniso 1.01325 1.01325 $(1000.0*dt)
fix     3 all npt temp 1012.5 1012.5 0.10000000000000000555 aniso 1.01325 1.01325 $(1000.0*dt)
fix     3 all npt temp 1012.5 1012.5 0.10000000000000000555 aniso 1.01325 1.01325 1
run     20000
Per MPI rank memory allocation (min/avg/max) = 8.897 | 8.899 | 8.901 Mbytes
Step Temp PotEng TotEng Press Volume c_msd[4] 
    5000    993.89115   -7900.9133   -7790.0433    184.01836    30267.861    9.9828615 
    5010    977.10086   -7899.0112   -7790.0142    206.36303    30268.109    10.012433 
    5020    986.98551    -7900.016   -7789.9163   -66.356417    30268.773     10.04302 
    5030    1006.0758     -7901.99   -7789.7608   -357.63285    30269.297    10.073102 
    5040    1008.9046   -7902.1251   -7789.5803   -386.35818    30269.062    10.103215 
    5050    1001.0114   -7901.0471   -7789.3827   -146.80985    30268.018    10.132056 
    5060    1007.4166   -7901.5362   -7789.1574    -115.0668    30266.603    10.157283 
    5070    1019.3749   -7902.6185   -7788.9057   -158.88406    30264.923    10.178459 
    5080     1010.682   -7901.3859   -7788.6428   -293.48799    30262.866    10.199318 
    5090    980.96331   -7897.7795   -7788.3515   -306.81569    30260.182    10.218637 
    5100    970.97887   -7896.2921   -7787.9779   -352.15446    30256.791    10.233693 
    5110    993.33957   -7898.2872   -7787.4787   -397.41433    30252.592    10.248389 
    5120    1010.7811    -7899.613   -7786.8589    -230.3353    30247.533    10.266557 
    5130    1024.2916   -7900.4212   -7786.1599   -49.347079    30241.935    10.287238 
    5140    1027.7323   -7900.0586   -7785.4136    160.45934    30236.216    10.309726 
    5150    1018.8988      -7898.3   -7784.6403    462.36379    30230.868    10.335337 
    5160     1018.814   -7897.4838   -7783.8336     725.8895    30226.567    10.363762 
    5170    1044.4001    -7899.505   -7783.0006    750.64299    30223.858    10.394113 
    5180    1058.4391     -7900.27   -7782.1995    836.35595    30222.869    10.426421 
    5190     1048.005   -7898.3991   -7781.4926    832.79014    30223.778    10.461316 
    5200    1060.5397   -7899.1936   -7780.8888    313.52266    30226.473    10.496812 
    5210    1063.8966   -7899.0738   -7780.3945   -273.73794    30229.891      10.5348 
    5220    1050.2829   -7897.1821   -7780.0215   -748.15611    30232.742    10.577686 
    5230    1037.6873   -7895.5036    -7779.748   -1068.7072    30233.944     10.62263 
    5240     1019.571   -7893.2646   -7779.5299   -1027.4096    30232.816     10.66404 
    5250    1037.2108   -7895.0488   -7779.3464   -1200.8412    30229.295      10.6973 
    5260    1062.5787   -7897.7503    -7779.218   -1385.4972    30223.056    10.729705 
    5270    1068.8496   -7898.4342   -7779.2025   -1419.7259    30213.678    10.770011 
    5280    1068.4058   -7898.5046   -7779.3223   -1369.8114    30201.054    10.816947 
    5290    1061.2352    -7897.961   -7779.5786   -1403.5558    30185.224    10.865111 
    5300    1052.2385   -7897.3491   -7779.9704   -1644.8098    30166.084    10.911291 
    5310    1031.7772   -7895.5848   -7780.4885   -1917.1959    30143.102    10.954041 
    5320    1000.8115   -7892.7282   -7781.0862   -1977.8739    30115.683    10.995478 
    5330    997.08421   -7892.9467   -7781.7205   -1851.2262    30083.689    11.038711 
    5340    1011.0827   -7895.1943   -7782.4065   -1479.1206    30047.401    11.084748 
    5350     1020.415   -7897.0112   -7783.1824    -1181.558    30007.586    11.129121 
    5360     1015.174    -7897.337   -7784.0928   -1164.3486    29964.869    11.170643 
    5370    999.26123   -7896.5966   -7785.1275   -1095.5716    29919.381    11.207737 
    5380    997.42318   -7897.5273   -7786.2633   -966.60516    29871.284    11.232653 
    5390      1010.45   -7900.1909   -7787.4737   -702.51576    29820.924    11.246999 
    5400      1024.77   -7903.0617   -7788.7471    -404.2659    29768.887    11.264524 
    5410    1018.7074   -7903.6423    -7790.004   -22.862959    29715.868    11.293968 
    5420    1001.3651   -7902.8394   -7791.1357    429.25511    29662.752     11.33438 
    5430    968.70882   -7900.0611   -7792.0001    781.74756    29610.546     11.38002 
    5440    985.55621   -7902.5438   -7792.6035    643.49843    29559.947    11.425542 
    5450    997.85477   -7904.3203   -7793.0081    475.51845    29510.789     11.46893 
    5460    1006.6488    -7905.581   -7793.2878     254.2639    29462.713    11.504311 
    5470    1005.4888   -7905.6481   -7793.4843    109.66404    29415.301    11.530361 
    5480    988.30377   -7903.8631   -7793.6163     334.0957    29368.315    11.551513 
    5490     977.4797   -7902.7045   -7793.6652    688.35165    29322.223    11.567198 
    5500    979.40336   -7902.8849    -7793.631    820.58787    29277.729    11.577081 
    5510    978.58825   -7902.6932   -7793.5302    804.07892    29235.143    11.585341 
    5520    978.82307   -7902.5626   -7793.3734     565.5129    29194.412    11.593437 
    5530    992.01661   -7903.8263   -7793.1654    333.56723    29155.081    11.602751 
    5540    1015.1034   -7906.1639   -7792.9276    286.93574    29116.685    11.613831 
    5550    1019.1518   -7906.3746   -7792.6867    567.75746    29079.176    11.624439 
    5560    1018.3075   -7906.0451   -7792.4513    729.68372    29043.062    11.633119 
    5570    1029.7163   -7907.1028   -7792.2364    717.96838    29008.659    11.642006 
    5580    1018.2962   -7905.6395    -7792.047    1047.8427    28976.055     11.65547 
    5590    997.53253   -7903.1466   -7791.8704    1346.8638    28945.821    11.674657 
    5600    976.88808   -7900.6208   -7791.6474    1626.3338    28918.599    11.697673 
    5610    997.11489   -7902.5871   -7791.3574    1645.7731    28894.888     11.72705 
    5620    1015.9766   -7904.3556   -7791.0219    1464.3177    28874.709    11.766092 
    5630    1003.7064   -7902.6442   -7790.6793     1386.832    28857.719    11.808137 
    5640    993.22011   -7901.1091   -7790.3139    1383.4914    28843.708    11.845165 
    5650    1015.7272   -7903.2185   -7789.9126    1418.5313    28832.635    11.880818 
    5660    1021.0542   -7903.3913   -7789.4911    1477.1326    28824.563    11.923089 
    5670    1016.7068   -7902.4961    -7789.081    1569.1135    28819.597    11.972692 
    5680     1019.286    -7902.381   -7788.6781    1756.3445    28817.902    12.027036 
    5690    1021.8831   -7902.2808   -7788.2882    1730.1306    28819.775    12.083331 
    5700    994.49917   -7898.8382   -7787.9003    1812.0361    28825.251    12.137353 
    5710    993.04878   -7898.2684   -7787.4924     1710.204    28834.395    12.185527 
    5720    999.16318   -7898.4885   -7787.0304    1707.3258    28847.055    12.224609 
    5730    997.31214   -7897.7801   -7786.5285    1873.6329    28863.232    12.251522 
    5740    1008.9166    -7898.538   -7785.9918    1852.6798     28883.19    12.267683 
    5750    1022.8143   -7899.5292   -7785.4327     1779.668    28906.918    12.282223 
    5760    1043.8551   -7901.3358   -7784.8922    1577.8884    28934.226    12.301197 
    5770    1051.8268   -7901.7417   -7784.4088     1591.558    28964.792     12.32672 
    5780    1049.3128   -7901.0709   -7784.0184    1440.0584    28998.538      12.3545 
    5790    1040.8512   -7899.8194   -7783.7109    1034.0377    29035.135    12.381813 
    5800    1035.7317   -7898.9985   -7783.4611    634.84931    29073.783    12.413152 
    5810    1049.9251    -7900.383   -7783.2623    425.41396    29113.653    12.451268 
    5820    1064.4054   -7901.8781    -7783.142    334.91771    29154.256    12.495935 
    5830    1048.3499   -7900.0665   -7783.1215     482.2755    29195.411    12.546398 
    5840    1037.0367   -7898.8757   -7783.1927    708.74034    29237.388    12.600097 
    5850    1059.8702   -7901.5691    -7783.339    661.77248    29280.579    12.652123 
    5860    1071.4758   -7903.1231   -7783.5984    586.69451    29324.897    12.703147 
    5870    1049.9121    -7901.136   -7784.0167    807.79981    29370.225    12.756237 
    5880    1033.0466   -7899.8045   -7784.5665    775.41849    29416.877    12.808545 
    5890    1017.1194   -7898.6673   -7785.2061    654.27097    29464.788    12.861372 
    5900    998.09727   -7897.2468   -7785.9075    701.19994    29513.709    12.913258 
    5910    978.17671   -7895.7466   -7786.6295    823.46054    29563.678    12.961522 
    5920    987.21426    -7897.481   -7787.3558    827.25917    29614.873    13.012224 
    5930    1001.4134   -7899.8008   -7788.0916    817.80739    29667.319    13.075841 
    5940    1023.0755    -7902.999   -7788.8734    488.49126    29720.851    13.150691 
    5950    1022.0426   -7903.7276   -7789.7172   -107.58081    29774.697      13.2285 
    5960     1003.444   -7902.5189   -7790.5832   -578.38995    29827.598    13.305621 
    5970    990.62564   -7901.9237   -7791.4179   -1027.3812    29878.452    13.380183 
    5980    977.69963   -7901.2399   -7792.1761   -1458.1522    29926.259    13.451258 
    5990    970.20597   -7901.0423   -7792.8143   -1897.3461     29970.07     13.51983 
    6000    961.63585    -7900.586   -7793.3141    -2150.914    30008.995    13.590669 
    6010    958.56772   -7900.6085   -7793.6788   -2212.3705    30042.512    13.661849 
    6020    957.31246   -7900.6948   -7793.9052   -2187.8366     30070.53    13.726554 
    6030    962.31331   -7901.3531   -7794.0056   -2078.3444    30093.207    13.779454 
    6040    974.28676   -7902.6876   -7794.0044    -2021.676    30110.825    13.816748 
    6050    975.90095   -7902.7863   -7793.9231    -1740.106    30123.672    13.838303 
    6060    975.47292   -7902.5968   -7793.7813   -1444.6999    30132.404    13.850881 
    6070    981.14518    -7903.039   -7793.5907   -1347.9718    30137.699    13.867194 
    6080    982.42679   -7902.9488   -7793.3576   -1188.6798    30139.927     13.89352 
    6090    1006.0388    -7905.337   -7793.1119   -1183.1478     30139.43    13.926183 
    6100     1021.237   -7906.8058   -7792.8853   -1233.2801    30136.321    13.961028 
    6110    1026.7854   -7907.2589   -7792.7195   -1447.0312    30130.493    13.998464 
    6120     1014.817   -7905.8122   -7792.6078   -1436.4346    30121.613    14.042168 
    6130    1008.1911   -7904.9935   -7792.5283   -1345.8652    30109.715    14.087162 
    6140    1006.0735   -7904.6871   -7792.4581   -1410.5497    30095.011    14.127466 
    6150     1000.887   -7904.0413   -7792.3909   -1497.6131     30077.44    14.163917 
    6160    996.32426    -7903.458   -7792.3166   -1430.2522    30056.906    14.197118 
    6170    994.08316   -7903.1125    -7792.221   -1204.9392    30033.636    14.226216 
    6180    1005.9101   -7904.3212   -7792.1105   -1193.2682    30008.083    14.251632 
    6190    1003.6094   -7903.9524   -7791.9983   -1001.8512    29980.422    14.271302 
    6200    988.96047    -7902.187    -7791.867   -721.71636    29951.101    14.286102 
    6210    1009.0665   -7904.2724   -7791.7096   -694.93056    29920.702     14.30044 
    6220    1015.3461   -7904.8025   -7791.5391   -564.06159    29889.402    14.316737 
    6230    1018.5286   -7904.9999   -7791.3815   -409.65926    29857.494    14.333446 
    6240    1018.2622   -7904.8279   -7791.2392   -224.67818    29825.325    14.348571 
    6250    1020.5004   -7904.9551   -7791.1167    194.04573    29793.355    14.360412 
    6260    1017.5295   -7904.5172   -7791.0103    574.07693     29762.44    14.369808 
    6270    1014.8316   -7904.1196   -7790.9136    779.98912    29733.374     14.37949 
    6280    1016.0999    -7904.174   -7790.8266    692.51412    29706.536    14.387168 
    6290    1005.6148   -7902.9197   -7790.7419    454.34943    29681.728    14.393662 
    6300    1006.9894    -7902.986   -7790.6548    93.440709     29658.39    14.402579 
    6310    1008.7675    -7903.089   -7790.5594   -165.89382    29635.757    14.415343 
    6320    1012.5611   -7903.4081   -7790.4554   -25.995601    29613.315    14.433533 
    6330    1013.1187   -7903.3453   -7790.3303    265.63929    29591.303    14.458775 
    6340    1012.2102   -7903.1033   -7790.1897    483.71065    29570.302    14.489702 
    6350    1009.8172   -7902.6714   -7790.0248    676.00026    29550.772    14.523635 
    6360    1035.0253    -7905.313   -7789.8543    737.08728    29533.057    14.553811 
    6370    1053.8307   -7907.2677   -7789.7113    861.22806    29517.311    14.582195 
    6380    1072.5087   -7909.3015   -7789.6615    794.67755    29503.696    14.609739 
    6390    1061.7586   -7908.1852   -7789.7444    874.12218    29492.103    14.630793 
    6400    1039.5153   -7905.9196   -7789.9601    890.14721    29482.598    14.642084 
    6410    1040.7241   -7906.3879   -7790.2935    598.71825     29475.13    14.645759 
    6420    1036.5367   -7906.3868   -7790.7596    402.05738    29469.118    14.648483 
    6430    1018.6439    -7904.989   -7791.3577     514.8275    29464.152    14.656451 
    6440    1019.0193   -7905.7526   -7792.0794    797.88904    29460.429    14.668261 
    6450    1036.1993   -7908.5297   -7792.9402    828.85813    29458.441    14.682865 
    6460    1037.3492   -7909.6849   -7793.9671    875.31083    29458.269    14.708372 
    6470    1009.8013    -7907.735   -7795.0901    1085.7335    29460.016    14.752885 
    6480    992.50673   -7906.9182   -7796.2025    983.33942    29463.994    14.812424 
    6490    982.80592   -7906.8497   -7797.2162    777.68113    29469.978    14.877291 
    6500      978.452   -7907.2297   -7798.0819    701.45527    29477.549     14.94282 
    6510    975.70962    -7907.624   -7798.7821    636.73163    29486.494    15.007709 
    6520     974.5804   -7908.0355   -7799.3196    522.57606    29496.649    15.072825 
    6530    966.52427   -7907.5268   -7799.7096    285.10055    29507.721    15.134686 
    6540    948.30123    -7905.736   -7799.9516    166.87592    29519.249    15.187714 
    6550    938.34366   -7904.7158   -7800.0421  -0.33451351     29530.94    15.229969 
    6560    940.93234   -7904.9419   -7799.9795   -146.79122     29542.46    15.263537 
    6570    956.87072   -7906.5259   -7799.7855   -280.74597    29553.486    15.292854 
    6580    959.75848   -7906.5482   -7799.4857    -405.8733    29563.739    15.323784 
    6590    944.29935   -7904.4339   -7799.0959   -345.48204    29573.012     15.36059 
    6600    934.01581   -7902.7933   -7798.6024   -192.69298    29581.439    15.408077 
    6610    946.62966   -7903.5901   -7797.9922   -361.69164    29589.267     15.46758 
    6620    955.23212   -7903.8433   -7797.2857   -811.14398    29596.161     15.53078 
    6630      963.931   -7904.0531   -7796.5251   -1240.7998    29601.216    15.580963 
    6640    974.77059   -7904.4846   -7795.7475   -1384.0715    29603.592    15.607464 
    6650    974.73326   -7903.7225   -7794.9895   -1485.3491    29602.956    15.617153 
    6660    976.02036   -7903.1502   -7794.2736   -1569.1297    29599.128    15.626069 
    6670     992.2788   -7904.2911   -7793.6009   -1510.3413    29591.991    15.645852 
    6680    986.42632   -7903.0165   -7792.9792   -1129.6143    29581.734    15.679089 
    6690     992.1306   -7903.0838   -7792.4101   -570.05942    29569.207    15.718797 
    6700    999.95384   -7903.4211   -7791.8747   -7.6458011    29555.606     15.75674 
    6710    988.75097   -7901.6743   -7791.3776    609.01165    29542.161    15.787202 
    6720    981.56829   -7900.3899   -7790.8944    896.29235    29530.123    15.805761 
    6730    992.21609   -7901.0897   -7790.4065    969.75444    29520.113    15.813408 
    6740    1003.0839   -7901.8163   -7789.9207    1023.0858    29512.309    15.820227 
    6750    1011.0331   -7902.2395   -7789.4573    842.99044    29506.731    15.833099 
    6760    1012.0802   -7901.9245   -7789.0255    895.88471    29503.093    15.854355 
    6770    1012.2358    -7901.545   -7788.6286    996.93235     29501.41    15.884291 
    6780    1003.7449   -7900.2185   -7788.2492    1233.2029    29501.927    15.917636 
    6790     1020.674    -7901.742   -7787.8843    1288.6005    29505.055    15.948938 
    6800    1034.1323   -7902.9011   -7787.5421    1290.3863    29510.938    15.977606 
    6810     1046.862   -7904.0364   -7787.2574     1118.419     29519.52    16.007134 
    6820    1055.7379   -7904.8249   -7787.0558    880.18304     29530.44    16.042833 
    6830    1060.4187    -7905.249   -7786.9577    766.50894    29543.208    16.086085 
    6840    1059.5351   -7905.1641   -7786.9714    771.46837    29557.578    16.135637 
    6850     1064.781   -7905.8866   -7787.1086    602.90276    29573.474    16.191105 
    6860    1042.9351   -7903.6904   -7787.3494    593.41426    29590.624    16.248205 
    6870    1029.1803   -7902.4767   -7787.6701    514.28265    29608.927    16.301042 
    6880    1014.8184   -7901.2239   -7788.0194    497.36251    29628.256    16.347691 
    6890     1019.063   -7902.0581   -7788.3801    444.83821    29648.549    16.386857 
    6900    1021.6966    -7902.732   -7788.7602    387.94769    29669.689    16.425434 
    6910    1032.1862   -7904.3202   -7789.1783    112.48002    29691.495    16.474338 
    6920    1050.7206   -7906.8778   -7789.6683   -245.66392    29713.414    16.538443 
    6930    1036.9345   -7905.9241   -7790.2525   -368.63183    29734.725    16.612692 
    6940     1016.352   -7904.2694   -7790.8938   -389.02258    29755.131    16.683243 
    6950    1012.0801    -7904.457    -7791.558   -630.06931    29774.516    16.739403 
    6960    997.68633   -7903.4988   -7792.2054   -639.14989     29792.47    16.781468 
    6970    996.16362   -7903.9464   -7792.8228   -625.80356    29808.924    16.817377 
    6980    973.34481   -7901.9536   -7793.3755   -466.20218    29823.954    16.862845 
    6990    959.50362    -7900.862   -7793.8279   -223.76472    29837.902    16.930638 
    7000    949.17014   -7900.0354    -7794.154   -120.39553    29851.256    17.017517 
    7010    934.74207   -7898.6022   -7794.3303   -31.455764     29864.29     17.10847 
    7020    962.25535   -7901.7049   -7794.3639   -166.09264    29877.152    17.191631 
    7030    989.67714   -7904.6874   -7794.2874    -160.6577    29889.631    17.262114 
    7040    999.45977   -7905.6477   -7794.1564    131.54504    29901.773    17.316359 
    7050    1000.3115   -7905.5779   -7793.9916    423.84762    29914.172    17.354866 
    7060    1006.8345   -7906.1115   -7793.7976    494.52009    29927.436    17.390326 
    7070    1021.4798   -7907.5331   -7793.5855    407.32756    29941.727    17.436976 
    7080    1026.2656   -7907.8654   -7793.3839    362.89755    29956.884    17.494129 
    7090    1029.8544   -7908.0886   -7793.2068    159.54894     29972.77    17.550898 
    7100    1021.2824   -7906.9782   -7793.0526   -208.81694    29988.923    17.600053 
    7110    1000.6481   -7904.5254   -7792.9016   -413.01496    30004.593    17.641397 
    7120    994.51313   -7903.6552   -7792.7157   -523.53555    30019.314    17.677373 
    7130    995.78836    -7903.542   -7792.4603   -457.36271    30032.871    17.713037 
    7140    1015.1575   -7905.3661   -7792.1238   -496.92799    30045.339    17.752793 
    7150     1040.219   -7907.7482   -7791.7102   -450.55401    30056.677       17.798 
    7160    1050.9015   -7908.4901   -7791.2604   -170.68011    30067.028    17.846692 
    7170    1034.2552   -7906.1553   -7790.7826    191.25406    30076.998    17.895833 
    7180    1010.9046   -7903.0179     -7790.25    332.40595    30087.314    17.943663 
    7190    987.90423   -7899.7872    -7789.585    522.80718    30098.397    17.989308 
    7200    1004.8437   -7900.8151   -7788.7233    468.62346    30110.587    18.035901 
    7210    1027.6748   -7902.3023   -7787.6636    298.27436    30123.794    18.083973 
    7220    1065.0685   -7905.3016   -7786.4916    -51.05754    30137.621     18.13174 
    7230    1093.1464   -7907.2873   -7785.3451    -350.9357     30151.32     18.18091 
    7240    1068.1139   -7903.5202   -7784.3705   -242.10865    30164.316    18.232024 
    7250    1045.8695   -7900.2542   -7783.5859     -189.308    30176.751    18.288484 
    7260    1042.0306   -7899.1723   -7782.9323   -419.39097      30188.7    18.353982 
    7270    1048.9704   -7899.3913   -7782.3771    -752.1068    30199.678    18.426799 
    7280     1054.507    -7899.563   -7781.9312   -742.50374    30209.031    18.498231 
    7290    1057.0433   -7899.5187   -7781.6039   -481.32387    30216.754    18.553875 
    7300    1048.4959   -7898.3546   -7781.3933   -148.75402     30223.41    18.590633 
    7310     1029.284   -7896.0891   -7781.2709    178.79055    30229.747    18.620468 
    7320    1025.0073    -7895.541   -7781.1999    100.44513    30236.409    18.649878 
    7330    1030.5304    -7896.113   -7781.1558   -371.46526    30243.239     18.68358 
    7340    1058.9159   -7899.2845   -7781.1608    -950.2982    30249.213    18.725953 
    7350     1072.072   -7900.8614   -7781.2702   -1136.2698    30253.126    18.779997 
    7360    1064.4997   -7900.2634   -7781.5169   -1110.3701    30254.515    18.844005 
    7370    1055.5734   -7899.6429   -7781.8921   -966.81477    30253.419    18.910596 
    7380    1052.2119   -7899.7568    -7782.381    -998.6797    30250.087    18.967946 
    7390    1061.8398   -7901.4431   -7782.9933   -1205.2298    30244.451    19.009693 
    7400    1059.8017   -7901.9456   -7783.7231   -1219.6049    30236.133    19.037707 
    7410    1067.9759   -7903.7143     -7784.58   -1428.2008    30224.975    19.056747 
    7420    1049.5805   -7902.6173    -7785.535   -1459.0214    30210.602    19.075241 
    7430    1025.4485    -7900.901   -7786.5107   -1511.0725    30192.885    19.093972 
    7440    998.76051   -7898.8263   -7787.4131   -1392.1983    30171.757    19.108796 
    7450    990.18974   -7898.6264   -7788.1693   -1111.9151    30147.484    19.115091 
    7460    1007.4074   -7901.1629   -7788.7851   -829.51469    30120.658    19.115677 
    7470    1013.4684   -7902.3425   -7789.2885   -509.94384    30091.939    19.119429 
    7480    1027.3576   -7904.3266   -7789.7233   -579.11706    30061.942    19.134632 
    7490    1035.7451   -7905.6608   -7790.1219   -575.53439    30030.631    19.159293 
    7500    1037.1937   -7906.2074   -7790.5069   -521.37332    29997.992    19.184604 
    7510    1030.1325   -7905.7897   -7790.8768   -364.11894    29964.178    19.205425 
    7520    1032.0288   -7906.3651   -7791.2407   -343.30368    29929.484     19.21748 
    7530    1015.2864   -7904.8449   -7791.5882   -256.31647     29894.04    19.223438 
    7540    1018.2405   -7905.4989   -7791.9126   -318.29515    29857.978    19.225599 
    7550    1023.8629   -7906.4397   -7792.2263   -292.78396    29821.212    19.225885 
    7560    1008.0301   -7904.9722   -7792.5249   -139.16051    29783.833    19.224596 
    7570    1008.4818   -7905.3004   -7792.8027    -184.5359    29746.111    19.224715 
    7580    1002.2216   -7904.8519   -7793.0526  -0.90079843    29708.046    19.230623 
    7590    977.12935   -7902.2515   -7793.2512    366.36979    29670.054    19.237533 
    7600    969.86787   -7901.5596   -7793.3694    682.01048    29632.908    19.232724 
    7610     970.5838   -7901.6586   -7793.3885    1004.8229    29597.329     19.21701 
    7620    968.37408   -7901.3336     -7793.31    1222.2899        29564    19.198164 
    7630    975.10962   -7901.9114   -7793.1365    1291.0001    29533.396    19.185413 
    7640    995.42623   -7903.9192   -7792.8779    1237.5765    29505.678    19.185284 
    7650    1016.9893   -7906.0171   -7792.5704    1143.3555    29480.726    19.194944 
    7660    1023.7993    -7906.464   -7792.2576    1098.4814    29458.359    19.204553 
    7670     1025.847   -7906.4036   -7791.9688    982.25872    29438.431    19.203904 
    7680    1024.7279    -7906.005    -7791.695    1078.6921    29420.762    19.191589 
    7690    1038.7511   -7907.3232    -7791.449    832.68933    29405.405    19.170644 
    7700     1025.116   -7905.5977   -7791.2445    798.57852    29391.983    19.154515 
    7710    1005.8638   -7903.2652   -7791.0596     777.0761    29380.355    19.156104 
    7720    1011.9246   -7903.7424   -7790.8606    541.74255    29370.419    19.176675 
    7730    1006.5022   -7902.9198    -7790.643    404.78234    29361.718    19.204146 
    7740    990.48507   -7900.8885   -7790.3984    493.92282     29353.97    19.227083 
    7750    994.10144   -7900.9892   -7790.0957    585.93909    29347.332    19.246674 
    7760    1000.1073   -7901.2853   -7789.7218    646.62797    29341.967    19.269599 
    7770    988.44042   -7899.5353   -7789.2732    892.66911    29338.068    19.300858 
    7780    988.42405   -7898.9832   -7788.7231     668.3683    29336.004    19.340347 
    7790    1005.4156   -7900.2001   -7788.0445    421.77455    29335.381    19.385199 
    7800    1016.7634   -7900.6712   -7787.2497     357.9877    29335.696    19.430328 
    7810    1034.4348    -7901.777   -7786.3842    357.03369    29336.774     19.47062 
    7820     1028.196   -7900.1882   -7785.4914    646.08859     29338.67    19.504724 
    7830    1028.4016   -7899.3243   -7784.6046    805.02918    29341.925    19.532212 
    7840    1051.8028   -7901.0684   -7783.7383    782.44517    29346.841     19.55693 
    7850    1049.8723     -7900.06   -7782.9451    1127.3739    29353.493    19.583633 
    7860    1059.7729    -7900.491   -7782.2717    1462.8467    29362.529    19.612516 
    7870    1066.8422   -7900.7366   -7781.7287    1563.9661     29374.62    19.645409 
    7880    1075.4687   -7901.3038   -7781.3336     1249.119    29389.945    19.679747 
    7890    1093.8084   -7903.1184   -7781.1024    666.07615     29407.85     19.71082 
    7900    1095.1428   -7903.2295   -7781.0647    261.44972    29427.171    19.742289 
    7910     1075.624   -7901.2078   -7781.2203    272.99646    29447.086    19.778848 
    7920    1052.8888    -7898.958   -7781.5066    262.72013    29467.534    19.823758 
    7930    1052.1958   -7899.2575   -7781.8835   -57.112854     29488.41    19.875632 
    7940    1018.7643   -7895.9523   -7782.3076    1.6740667    29509.197    19.926236 
    7950    997.41694   -7893.9882   -7782.7248    134.88819     29529.95    19.971528 
    7960    1008.0532   -7895.5372   -7783.0874   -2.1396841    29550.892    20.014732 
    7970    1037.5501   -7899.1701   -7783.4299   -282.35882    29571.757    20.061579 
    7980    1038.8188   -7899.6817   -7783.7999   -202.76805    29592.041      20.1131 
    7990    1011.7645    -7897.042   -7784.1782    151.06508    29611.906     20.16462 
    8000    1015.6418   -7897.8307   -7784.5343    142.31366    29631.977    20.214829 
    8010    1008.2137    -7897.318   -7784.8503     160.9516    29652.344     20.26275 
    8020    1000.1737    -7896.682   -7785.1111    88.949497     29673.02    20.306099 
    8030    1010.5028   -7898.0361    -7785.313   -237.35431    29693.803    20.346363 
    8040    1022.7047   -7899.5691   -7785.4849   -433.89042    29714.078    20.386402 
    8050    1009.5071   -7898.2525   -7785.6405   -390.98763    29733.434    20.422948 
    8060    993.86204   -7896.6286   -7785.7617   -322.13743    29751.917    20.448416 
    8070      997.158   -7897.0595    -7785.825   -336.47908    29769.665    20.466952 
    8080    1014.6412   -7899.0334   -7785.8487   -478.02774    29786.625     20.49243 
    8090    1041.5298   -7902.0611   -7785.8769   -365.60174    29802.575    20.531077 
    8100    1056.5367   -7903.8116   -7785.9534     22.29042    29817.782     20.58283 
    8110    1079.9428   -7906.5985   -7786.1292     181.2684    29832.979    20.642817 
    8120     1082.625   -7907.1951   -7786.4267    223.73948    29848.559     20.69995 
    8130    1057.6493   -7904.8054    -7786.823    324.60986    29864.657    20.749876 
    8140    1040.5983   -7903.3432   -7787.2629    246.04936    29881.447    20.787959 
    8150    1035.0156   -7903.1724   -7787.7149   -63.939074     29898.74     20.81249 
    8160    1008.8939   -7900.6913   -7788.1476    -275.9487    29915.938    20.825743 
    8170    997.35873   -7899.7817   -7788.5248   -574.85813    29932.524    20.841149 
    8180    1009.5463   -7901.4597   -7788.8433   -934.32978    29947.845    20.873166 
    8190    1003.7028   -7901.0912   -7789.1266   -1115.1222    29961.144     20.92361 
    8200    984.90116   -7899.2252    -7789.358   -1127.9803    29972.031      20.9839 
    8210    1005.4892   -7901.7053   -7789.5415   -1147.9242    29980.424    21.038997 
    8220    998.21491   -7901.0439   -7789.6916    -719.8827     29986.37    21.085131 
    8230    973.15042   -7898.3529   -7789.7965   -545.86764     29990.66     21.12468 
    8240    979.28743   -7899.0717   -7789.8307    -983.9765    29993.612    21.158275 
    8250    987.59302   -7899.9596   -7789.7921   -1515.2994    29994.367    21.192278 
    8260    988.47496   -7899.9654   -7789.6996   -1843.3763    29991.782    21.231638 
    8270    982.50344   -7899.1575   -7789.5578   -1644.2133    29985.172    21.264428 
    8280    976.76125   -7898.3091   -7789.3499   -1001.6994    29974.969    21.280473 
    8290    986.23928   -7899.0785    -7789.062   -527.77419    29962.462    21.289322 
    8300    996.33214   -7899.8385   -7788.6962    -307.0745    29948.712    21.296155 
    8310    998.05382   -7899.6103   -7788.2759   -458.03527    29934.181    21.307713 
    8320    993.63899   -7898.6534   -7787.8115   -588.70077    29918.595    21.326481 
    8330    993.63685   -7898.1337    -7787.292   -549.44105    29901.687    21.349549 
    8340    999.14717   -7898.1661   -7786.7097   -437.48189    29883.531    21.373331 
    8350    1017.1913   -7899.5562    -7786.087   -452.11544    29864.313    21.398425 
    8360    1020.9137    -7899.331   -7785.4466   -345.64523    29844.065    21.431529 
    8370    1020.3604   -7898.6483   -7784.8256   -191.96126    29823.002    21.476817 
    8380     1005.177   -7896.3502   -7784.2212   -60.566394    29801.458    21.524576 
    8390    997.05379   -7894.8435   -7783.6206   -85.944549    29779.666     21.56087 
    8400    1006.5525   -7895.2926   -7783.0102   -69.203577    29757.627     21.58389 
    8410    1016.8758   -7895.8326   -7782.3986    185.51231     29735.43    21.610017 
    8420    1035.8006   -7897.3712   -7781.8261    250.01936    29713.509    21.651898 
    8430    1031.2044   -7896.3579   -7781.3255    405.19905     29692.08    21.705326 
    8440    1019.4805   -7894.6273   -7780.9027    696.70002    29671.496    21.762784 
    8450    1032.7173   -7895.7437   -7780.5426    787.47071    29652.318    21.818385 
    8460    1036.0945   -7895.8266   -7780.2487    987.77105    29634.829    21.869765 
    8470    1038.5279   -7895.8882   -7780.0389    1001.8866    29619.396    21.915553 
[...]
   22890    1017.2275   -7902.0683    -7788.595    1027.9936    29135.988    68.596247 
   22900    1013.8117   -7901.8917   -7788.7995    1083.3077    29133.583    68.634463 
   22910    1019.7292   -7902.7456   -7788.9932    982.32837    29133.447    68.680964 
   22920    1037.9135   -7904.9913   -7789.2105    935.07238    29135.394    68.721647 
   22930    1021.5455   -7903.4131   -7789.4582    948.42073      29139.3    68.741738 
   22940    1019.4541   -7903.4444   -7789.7228    725.69983    29145.131     68.74456 
   22950    1023.9957     -7904.23   -7790.0017    544.59116    29152.469    68.742865 
   22960    1015.8609   -7903.6106   -7790.2898    684.65789    29160.976    68.732428 
   22970    1030.2059    -7905.522    -7790.601    805.78672    29170.868    68.705848 
   22980    1023.3687   -7905.0981   -7790.9398    883.14057    29182.423    68.671117 
   22990    1027.4631   -7905.9271   -7791.3121    679.80759    29195.715    68.639351 
   23000    1016.1779   -7905.0657   -7791.7096    629.64575    29210.402    68.625427 
   23010    996.32667   -7903.2483   -7792.1065    678.18707    29226.384    68.646699 
   23020    999.11408   -7903.9318   -7792.4792    406.36855    29243.654    68.694478 
   23030    996.63903    -7903.995   -7792.8184    406.18374    29261.783    68.736506 
   23040    1006.7955   -7905.4521   -7793.1425    286.74206    29280.652     68.76884 
   23050    999.60851   -7904.9586   -7793.4508    183.10697    29300.061    68.805448 
   23060    990.78837   -7904.2569    -7793.733    13.578962    29319.759    68.845795 
   23070    999.97766   -7905.5245   -7793.9755    -268.6225     29339.37    68.875974 
   23080    1005.5345   -7906.3631   -7794.1942   -249.11185    29358.382    68.911926 
   23090    1004.1858   -7906.4257   -7794.4073    124.50967    29376.837    68.989638 
   23100    1003.0253   -7906.5139   -7794.6249    531.19074    29395.464    69.114647 
   23110    992.58763   -7905.5598   -7794.8351     817.0405     29415.13     69.25976 
   23120    995.87319   -7906.1154   -7795.0243    644.81705    29436.359    69.406114 
   23130    993.53853   -7906.0223   -7795.1916      388.953    29458.871    69.542446 
   23140    988.10214   -7905.5508   -7795.3265    142.01195    29482.128    69.654113 
   23150    1004.1929   -7907.4525   -7795.4333   -2.9800761    29505.609    69.733125 
   23160    1015.5409   -7908.8211    -7795.536    52.098617    29529.024    69.801485 
   23170    1006.7083    -7907.961   -7795.6612    87.580648    29552.436    69.885802 
   23180    998.80421   -7907.2216   -7795.8035    116.24559    29575.955    69.987592 
   23190    998.80791    -7907.363   -7795.9444    44.854045    29599.615    70.089525 
   23200    996.64657    -7907.258   -7796.0806   -22.717279    29623.276    70.180587 
   23210    1007.7036   -7908.6271   -7796.2162   -74.580785    29646.794    70.246924 
   23220    1013.8737   -7909.4654   -7796.3663    -20.42798    29670.078    70.282488 
   23230    1005.6544   -7908.7235   -7796.5413   -5.2927692    29693.219    70.290656 
   23240     1000.034   -7908.2825   -7796.7272   -222.62191    29716.205    70.279981 
   23250    995.95591   -7908.0081   -7796.9078   -377.76587    29738.632    70.264503 
   23260    991.60972     -7907.69   -7797.0744   -454.86903    29760.161    70.261504 
   23270    977.97324   -7906.3008   -7797.2064   -390.13317    29780.642    70.282555 
   23280    968.73157   -7905.3383   -7797.2748   -295.90008    29800.191    70.328662 
   23290    979.74925   -7906.5552   -7797.2627    -412.3775     29818.97    70.386556 
   23300    976.92094   -7906.1443   -7797.1673   -625.96442    29836.757    70.443852 
   23310    961.10478   -7904.1987    -7796.986   -755.96906    29853.116    70.496246 
   23320    947.35764   -7902.3636   -7796.6844   -717.08871    29867.802    70.549316 
   23330    956.96783   -7902.9812     -7796.23   -804.47142    29880.832    70.607509 
   23340    966.68664   -7903.4517   -7795.6164    -893.4622    29892.037    70.674365 
   23350    982.46176   -7904.4679   -7794.8728   -1131.9364    29901.206    70.750873 
   23360    1006.9833     -7906.37   -7794.0395    -1517.765     29907.81     70.83484 
   23370    1012.0132   -7906.0745   -7793.1829    -1612.055    29911.094    70.918534 
   23380    1011.3211   -7905.1747   -7792.3603   -1403.3752    29910.862        70.99 
   23390    998.86914    -7903.007   -7791.5817    -1013.175    29907.549    71.042495 
   23400    987.79099   -7901.0277   -7790.8381   -393.40341    29902.059    71.073902 
   23410    997.40157   -7901.3747    -7790.113    192.84353    29895.701    71.081829 
   23420    992.48282   -7900.1169   -7789.4039    718.92905    29889.789     71.07767 
   23430    990.29578   -7899.1964   -7788.7274    641.97801    29885.359     71.07545 
   23440    998.93342   -7899.5079   -7788.0754    290.76294    29882.318    71.073135 
   23450    1010.4452   -7900.1665   -7787.4498     37.20498    29879.957     71.04238 
   23460     1018.244   -7900.4644   -7786.8778   -127.01434    29877.706    70.967262 
   23470    1022.6664   -7900.4469   -7786.3669   -250.92535    29875.206    70.860748 
   23480    1031.5774   -7900.9973   -7785.9233   -353.62576    29872.152    70.749648 
   23490    1028.1658   -7900.2367   -7785.5432   -115.61479      29868.4    70.651035 
   23500    1041.5188   -7901.4073   -7785.2243   -30.752956    29864.368    70.576571 
   23510     1058.987    -7903.118   -7784.9864    -103.3097    29860.243    70.537247 
   23520    1045.2075   -7901.4432   -7784.8488   -56.386649    29855.923    70.526824 
   23530    1033.0273   -7900.0351   -7784.7994    109.16178    29851.511    70.532307 
   23540    1028.3226   -7899.5131   -7784.8021    170.41638    29847.328    70.547972 
   23550    1018.6343   -7898.4726   -7784.8424    141.17976    29843.517    70.557117 
   23560    1004.3941   -7896.9365   -7784.8948    156.00628    29840.045    70.541428 
   23570    1002.4669   -7896.7583   -7784.9316    61.538687    29836.918    70.504993 
   23580    1000.9562    -7896.604   -7784.9459   -211.23926    29833.901     70.46027 
   23590    1000.0443   -7896.4875    -7784.931   -444.99055    29830.451    70.421138 
   23600    1014.7068   -7898.0894   -7784.8973    -814.5957    29825.995    70.390138 
   23610    1024.1372   -7899.1121   -7784.8681   -943.42903    29819.807    70.368573 
   23620    1024.5643   -7899.1557    -7784.864   -849.24709    29811.575    70.362386 
   23630    1027.5332    -7899.513   -7784.8901   -749.29971    29801.471    70.375268 
   23640    1039.3045   -7900.8909    -7784.955   -840.21303    29789.679    70.394196 
   23650    1037.8487   -7900.8603   -7785.0867   -870.27608    29776.056    70.397586 
   23660     1012.159   -7898.1933   -7785.2855   -745.58723    29760.571    70.382504 
   23670    985.62462   -7895.4461   -7785.4981   -672.22914    29743.452    70.352435 
   23680    996.73932   -7896.8762   -7785.6884   -670.45483    29724.849    70.305044 
   23690    1024.8323   -7900.1963   -7785.8747   -642.22846    29704.798    70.245554 
   23700    1022.7145    -7900.191   -7786.1057   -559.49002    29683.358    70.191359 
   23710    992.15667   -7897.0583   -7786.3818   -215.23495    29660.762    70.149213 
   23720    977.54593   -7895.6862   -7786.6395   -70.713945    29637.672    70.111659 
   23730    997.51816   -7898.1435   -7786.8689   -386.53375     29614.35    70.080039 
   23740    996.96939   -7898.3077   -7787.0943   -557.21954    29590.258    70.049567 
   23750    998.08191   -7898.6646   -7787.3271   -540.38627     29565.03    70.007917 
   23760    1013.6636   -7900.6496   -7787.5739   -405.86399    29538.692    69.958253 
   23770    1030.5492   -7902.8184   -7787.8591   -154.61869    29511.539    69.911371 
   23780    1034.0624   -7903.5749   -7788.2237    342.54808    29484.156    69.869738 
   23790     1009.245   -7901.2478    -7788.665    911.33135    29457.589    69.830819 
   23800    1002.9363   -7901.0329   -7789.1538    1086.5299    29432.948    69.782589 
   23810     1000.586   -7901.2807   -7789.6639    1282.6201    29410.703     69.72306 
   23820    993.51573   -7901.0195   -7790.1914    1654.2933    29391.288    69.667182 
   23830     982.9489    -7900.354   -7790.7045    1997.3265    29375.446    69.623899 
   23840    988.78521   -7901.4925    -7791.192    2065.7992    29363.854    69.591308 
   23850    988.30814   -7901.9016   -7791.6544     2066.265    29356.691    69.561393 
   23860    992.44038   -7902.8002    -7792.092     2031.796     29353.96    69.521238 
   23870    997.99637    -7903.848     -7792.52    2034.4791    29355.584    69.473835 
   23880    996.97881   -7904.1504   -7792.9359       2094.6    29361.578    69.445655 
   23890    1001.8635   -7905.1045   -7793.3451    1860.0307    29372.007    69.449781 
   23900    991.52751   -7904.3461   -7793.7397    1708.6098    29386.464    69.478517 
   23910    989.86927   -7904.5245   -7794.1031    1615.9286    29404.609    69.525978 
   23920    995.93811   -7905.5338   -7794.4354    1487.6665    29426.222    69.585325 
   23930    1000.5078   -7906.3552   -7794.7471    1445.6712    29451.086    69.658472 
   23940    1011.2144    -7907.856   -7795.0535    1176.9676    29479.064    69.741074 
   23950    1015.9384   -7908.6972   -7795.3677    637.75003    29509.584    69.808703 
   23960    1012.3368   -7908.6236   -7795.6959    312.27774    29541.594     69.84556 
   23970    1007.3389   -7908.4097   -7796.0396    217.04533     29574.38    69.860466 
   23980    1002.1485   -7908.1819   -7796.3907     32.70108    29607.675    69.882092 
   23990    998.34921   -7908.1068   -7796.7394   -236.25577    29641.101    69.931016 
   24000    993.55562   -7907.9084   -7797.0758    -724.5542    29674.025     70.00612 
   24010    980.52415   -7906.7613   -7797.3823   -1135.0374    29705.437    70.087882 
   24020     960.9157   -7904.8265   -7797.6349   -1163.4576    29734.474    70.159177 
   24030    961.40441   -7905.0562   -7797.8101   -1081.2361    29761.002    70.218363 
   24040    967.21113   -7905.7904   -7797.8966   -994.07443    29785.191     70.26992 
   24050    973.15654   -7906.4554   -7797.8983    -897.6594    29807.218    70.320476 
   24060    978.82946    -7907.004   -7797.8141   -704.42679    29827.315     70.36935 
   24070    968.61937   -7905.6847   -7797.6337   -350.56626    29845.921    70.416602 
   24080    972.10614   -7905.7734   -7797.3335   -189.21929    29863.737     70.47058 
   24090    987.95276   -7907.0993   -7796.8917   -172.59236    29881.144    70.536092 
   24100    986.22961   -7906.3244    -7796.309   -90.599839    29898.224     70.61428 
   24110    979.86756   -7904.8874   -7795.5817   -54.236676    29915.138    70.705836 
   24120    983.11067   -7904.3621   -7794.6946   -82.909306    29931.967    70.806506 
   24130    973.43537   -7902.2546   -7793.6664    23.292591    29948.682    70.910188 
   24140     979.3408   -7901.7969     -7792.55    100.08408    29965.474    71.013957 
   24150    1003.9093   -7903.3651   -7791.3775    145.06733    29982.524    71.118136 
   24160    1021.5585   -7904.2233   -7790.2669    161.61637    29999.931    71.215467 
   24170    1026.9144    -7903.865   -7789.3112    130.60916    30017.747     71.30181 
   24180    1028.8261   -7903.3004   -7788.5333   -5.0719882    30035.891    71.390795 
   24190    1035.8509    -7903.473   -7787.9223   -308.15363    30054.044    71.494979 
   24200    1023.7621   -7901.6569   -7787.4547    -433.4506      30071.6    71.606942 
   24210    1011.6746   -7899.9482   -7787.0943   -617.33149    30088.201    71.703039 
   24220    1006.6608   -7899.0791   -7786.7846   -764.87094    30103.471    71.775206 
   24230    995.00039   -7897.4858   -7786.4921   -675.96498    30117.122    71.829782 
   24240    1000.6111   -7897.8094   -7786.1898   -766.48679    30129.238    71.866465 
   24250    1023.7189   -7900.0891   -7785.8917   -795.17595    30139.691    71.883206 
   24260    1029.5592   -7900.4822   -7785.6333   -778.99012    30148.373    71.887229 
   24270    1009.2027   -7898.0004   -7785.4223   -411.60475    30155.409    71.874713 
   24280    1001.5721   -7896.9476   -7785.2207    -281.3688    30161.472    71.835825 
   24290    1003.1471   -7896.8952   -7784.9926   -315.20473    30166.893    71.780158 
   24300    1014.5019     -7897.92   -7784.7508   -330.34261    30171.617    71.730379 
   24310    1029.3119   -7899.3328   -7784.5116   -404.97844    30175.602    71.704807 
   24320    1049.3375   -7901.3649   -7784.3097   -618.95812    30178.648    71.719238 
   24330    1037.6491   -7899.9275   -7784.1762    -469.9846    30180.397      71.7709 
   24340    1022.2977   -7898.1382   -7784.0994   -389.73213    30181.067    71.831335 
   24350    1040.0751    -7900.078   -7784.0561   -402.38341    30180.846    71.875169 
   24360    1056.4362   -7901.9176   -7784.0706   -374.37902    30179.719    71.892963 
   24370     1053.528   -7901.7006    -7784.178   -220.82188    30177.781    71.889259 
   24380    1067.1668   -7903.4497   -7784.4056    -82.45376    30175.345    71.884989 
   24390    1068.1224    -7903.916   -7784.7653    78.649851    30172.735    71.906035 
   24400     1068.888   -7904.5217   -7785.2856    111.28749    30170.291    71.955743 
   24410    1058.9693   -7904.0942   -7785.9646   -154.09808    30168.045    72.008175 
   24420    1036.2474   -7902.3629    -7786.768   -361.20628    30165.487    72.040951 
   24430    1032.5231   -7902.8215    -7787.642   -678.92185    30162.097    72.052674 
   24440    1032.2733   -7903.7194   -7788.5678     -915.814    30157.202    72.043212 
   24450     1019.024   -7903.1623   -7789.4887   -990.91988    30150.299    72.024737 
   24460    1018.3302   -7903.9671   -7790.3709   -1306.9884    30141.101    72.013729 
   24470    988.98903     -7901.48   -7791.1568   -1217.9432    30129.062    72.010543 
   24480    964.23621   -7899.3403   -7791.7783   -1072.0483    30114.292    72.000185 
   24490    975.55928   -7901.0569   -7792.2318   -1204.6274    30097.056    71.967939 
   24500    979.32977   -7901.7989   -7792.5532   -1226.6911     30077.15    71.916266 
   24510    977.59877   -7901.8184   -7792.7658   -1323.1614     30054.48    71.862239 
   24520    996.98614   -7904.1216   -7792.9063   -1599.5376    30028.814    71.818144 
   24530    1003.0249   -7904.8928   -7793.0039   -1669.0696    29999.624    71.785805 
   24540    996.03406   -7904.1855   -7793.0764   -1539.5056    29966.764    71.761053 
   24550    977.91864   -7902.1916   -7793.1033   -1246.4666    29930.552    71.743352 
   24560    969.07199   -7901.1569   -7793.0555    -938.3705    29891.637    71.736825 
   24570    979.18535   -7902.1563   -7792.9267   -659.29816    29850.722    71.734235 
   24580    982.86692   -7902.3625   -7792.7223   -399.18153     29808.46    71.712129 
   24590    997.92124   -7903.7925   -7792.4729   -381.26111    29765.413     71.65206 
   24600    1004.4596   -7904.2455   -7792.1965   -450.14547    29721.699    71.568269 
   24610    993.99855    -7902.796    -7791.914   -270.93026    29677.248    71.482039 
   24620    966.23583   -7899.3685   -7791.5835    394.52062    29632.558    71.405974 
   24630    970.18807    -7899.397   -7791.1711    876.06228    29588.958    71.343271 
   24640    985.13206   -7900.5675   -7790.6745    1128.0583    29547.495    71.296316 
   24650      986.528   -7900.1772   -7790.1285    1461.0581    29508.785    71.264046 
   24660    980.43554   -7898.9174   -7789.5483    1669.3167    29473.485    71.242114 
   24670    994.36239   -7899.8545   -7788.9319    1740.4488    29442.022     71.22245 
   24680    1019.5273   -7902.0426   -7788.3128    1810.9933    29414.536    71.202627 
   24690    1027.8781    -7902.404   -7787.7427    2067.3024    29391.194    71.182505 
   24700    1031.2461   -7902.2907   -7787.2536    2300.6821    29372.459    71.162202 
   24710    1052.5308   -7904.2692   -7786.8578    2294.2352    29358.727    71.157923 
   24720    1060.3622   -7904.8626   -7786.5776    2324.0232    29350.007    71.183696 
   24730    1066.4221   -7905.3972   -7786.4362    2210.7089    29346.269    71.234627 
   24740    1074.5631   -7906.3068   -7786.4377    1978.6411    29347.268    71.294904 
   24750     1071.191   -7906.0794   -7786.5864    1726.9778    29352.476    71.346402 
   24760    1053.6521   -7904.3867   -7786.8503    1689.8028     29361.39    71.383105 
   24770    1056.6701   -7905.0738   -7787.2007    1621.8127    29373.854    71.415551 
   24780    1046.8776   -7904.3919   -7787.6111    1653.1521    29389.747    71.461284 
   24790    1037.5109   -7903.7986   -7788.0627    1529.0662    29409.058    71.533626 
   24800    1038.1125   -7904.3273   -7788.5243    1104.7402    29431.496    71.623841 
   24810    1041.3836   -7905.1627   -7788.9948    679.38923    29456.212    71.708729 
   24820    1035.1247   -7904.9406   -7789.4709    457.94239    29482.309    71.783513 
   24830    1027.7969   -7904.5871   -7789.9348     400.7892    29509.307    71.858889 
   24840     1006.955   -7902.6977   -7790.3704    532.72099    29537.102    71.949819 
   24850    959.81114    -7897.783   -7790.7146    548.75497    29565.912    72.046787 
   24860    952.87534   -7897.2075   -7790.9128    117.81038    29595.702    72.139349 
   24870    971.19207   -7899.3013   -7790.9633   -550.57951    29625.567    72.227954 
   24880    983.44373   -7900.6179   -7790.9133   -1035.9764    29654.132    72.314076 
   24890     979.0365   -7900.0147   -7790.8017   -1243.8045    29680.356    72.402899 
   24900    960.94681    -7897.826   -7790.6309   -1099.1363    29703.821    72.490542 
   24910    955.50882   -7896.9731   -7790.3846    -836.5893      29724.8    72.556124 
   24920    961.34686   -7897.2954   -7790.0557   -661.14404    29743.855    72.589363 
   24930    958.38033   -7896.5601   -7789.6513   -659.88013    29761.344    72.605139 
   24940     965.3887   -7896.8766   -7789.1861   -700.81613    29777.303    72.608143 
   24950    976.38675   -7897.5803   -7788.6629   -655.25287    29791.679    72.594106 
   24960    997.98335   -7899.4492   -7788.1226   -575.92934    29804.542    72.583003 
   24970    1007.9278   -7900.0351   -7787.5993   -271.57307    29816.144     72.59707 
   24980    1014.2442   -7900.2684   -7787.1279    28.579962    29827.082    72.633109 
   24990    1012.7051   -7899.6754   -7786.7066    298.81303    29838.049    72.676881 
   25000    1028.5858   -7901.0801   -7786.3398    149.37983    29849.539    72.719033 
Loop time of 17934.2 on 16 procs for 20000 steps with 864 atoms

Performance: 0.096 ns/day, 249.086 hours/ns, 1.115 timesteps/s
96.5% CPU use with 16 MPI tasks x 1 OpenMP threads

MPI task timing breakdown:
Section |  min time  |  avg time  |  max time  |%varavg| %total
---------------------------------------------------------------
Pair    | 15354      | 16008      | 16413      | 248.5 | 89.26
Bond    | 0.0028791  | 0.0054589  | 0.0088429  |   1.9 |  0.00
Neigh   | 0.22583    | 0.25025    | 0.38108    |   7.0 |  0.00
Comm    | 760.38     | 1120.5     | 1789.4     | 807.8 |  6.25
Output  | 42.017     | 42.197     | 44.184     |   7.9 |  0.24
Modify  | 639.76     | 762.73     | 945.79     | 331.8 |  4.25
Other   |            | 0.446      |            |       |  0.00

Nlocal:        54.0000 ave          58 max          49 min
Histogram: 1 0 1 1 4 2 4 1 0 2
Nghost:        404.812 ave         423 max         386 min
Histogram: 2 2 1 2 1 2 1 0 2 3
Neighs:         0.00000 ave           0 max           0 min
Histogram: 16 0 0 0 0 0 0 0 0 0
FullNghs:      1513.75 ave        1719 max        1324 min
Histogram: 1 1 2 2 3 1 3 0 2 1

Total # of neighbors = 24220
Ave neighs/atom = 28.032407
Ave special neighs/atom = 0.0000000
Neighbor list builds = 2000
Dangerous builds = 2000
unfix   3
                
Total wall time: 6:11:57
