LAMMPS (29 Sep 2021 - Update 3)
OMP_NUM_THREADS environment is not set. Defaulting to 1 thread. (src/comm.cpp:98)
  using 1 OpenMP thread(s) per MPI task
units	metal
atom_style	full

read_data	mixed.data
Reading data file ...
  orthogonal box = (0.0000000 0.0000000 0.0000000) to (16.534670 17.767358 74.594796)
  1 by 2 by 8 MPI processor grid
  reading atoms ...
  864 atoms
Finding 1-2 1-3 1-4 neighbors ...
  special bond factors lj:    0        0        0       
  special bond factors coul:  0        0        0       
     0 = max # of 1-2 neighbors
     0 = max # of 1-3 neighbors
     0 = max # of 1-4 neighbors
     1 = max # of special neighbors
  special bonds CPU = 0.002 seconds
  read_data CPU = 0.021 seconds

pair_style	quip
pair_coeff	* * /ocean/projects/cts180021p/wuziqi/clease/mint-PD/PhaseDiagram-Clease/Liquid/GAP_potential/gap_LiKCl.xml "Potential xml_label=GAP_2021_9_27_0_1_17_37_618" 17 19 3

neighbor	0.3 bin
neigh_modify	delay 10

timestep	0.001
compute	msd all msd
thermo_style	custom step temp pe etotal press vol c_msd[4]
thermo	10
dump	1 all custom 10 xyz-mix.dump type id x y z
dump	2 all custom 10 force-mix.dump type id fx fy fz

fix     1 all nve
run     2000
Neighbor list info ...
  update every 1 steps, delay 10 steps, check yes
  max neighbors/atom: 2000, page size: 100000
  master list distance cutoff = 6.22
  ghost atom cutoff = 6.22
  binsize = 3.11, bins = 6 6 24
  1 neighbor lists, perpetual/occasional/extra = 1 0 0
  (1) pair quip, perpetual
      attributes: full, newton on
      pair build: full/bin
      stencil: full/bin/3d
      bin: standard
Per MPI rank memory allocation (min/avg/max) = 8.894 | 8.906 | 8.915 Mbytes
Step Temp PotEng TotEng Press Volume c_msd[4] 
       0            0   -8413.4292   -8413.4292   -12531.916    21914.265            0 
      10    63.367096   -8420.5059   -8413.4372   -13062.757    21914.265 0.00028900792 
      20    162.23389   -8431.5423   -8413.4448   -13580.932    21914.265 0.0035442006 
      30    203.76318   -8436.1707   -8413.4406   -13263.999    21914.265  0.011998633 
      40     225.5427      -8438.6   -8413.4404   -13091.981    21914.265  0.023619499 
      50    238.39464   -8440.0352   -8413.4419   -13192.953    21914.265  0.036411648 
      60    237.91747   -8439.9798   -8413.4397    -13151.82    21914.265  0.049420327 
      70    242.25882   -8440.4649   -8413.4405   -12986.142    21914.265  0.062561747 
      80    243.33226   -8440.5825   -8413.4384   -12841.846    21914.265  0.075987004 
      90     256.1439    -8442.014   -8413.4408   -12985.089    21914.265  0.088683986 
     100    260.92723   -8442.5467   -8413.4399   -13129.532    21914.265   0.10092572 
     110    263.36735   -8442.8185   -8413.4395   -13314.209    21914.265   0.11296329 
     120    267.45703   -8443.2754   -8413.4402   -13403.997    21914.265   0.12509928 
     130    267.20277   -8443.2463   -8413.4395   -13198.457    21914.265   0.13819283 
     140    269.21359   -8443.4705   -8413.4393   -12839.711    21914.265   0.15259322 
     150     276.3754   -8444.2699   -8413.4398   -12564.061    21914.265   0.16775295 
     160    282.09052   -8444.9077   -8413.4401   -12400.914    21914.265   0.18315323 
     170    283.74907   -8445.0928   -8413.4402     -12430.3    21914.265    0.1989762 
     180    279.57367   -8444.6271   -8413.4402   -12727.353    21914.265   0.21536827 
     190    272.01519   -8443.7829   -8413.4391   -12943.608    21914.265   0.23180139 
     200    272.98877   -8443.8921   -8413.4397   -13066.814    21914.265    0.2476891 
     210    278.28656   -8444.4833     -8413.44   -13119.162    21914.265   0.26290373 
     220    281.61115   -8444.8543   -8413.4402    -13052.65    21914.265   0.27743582 
     230    283.45537   -8445.0589    -8413.439   -12948.839    21914.265   0.29133107 
     240    292.81696   -8446.1046   -8413.4404   -13016.029    21914.265    0.3048675 
     250    295.20203   -8446.3705   -8413.4402   -13077.887    21914.265   0.31931215 
     260    290.46684   -8445.8415   -8413.4394   -13040.528    21914.265   0.33532684 
     270    290.61991    -8445.858   -8413.4389   -13235.455    21914.265   0.35239777 
     280    301.25443   -8447.0456   -8413.4402   -13515.282    21914.265   0.36952956 
     290    308.28623   -8447.8304   -8413.4406   -13611.572    21914.265   0.38667041 
     300    309.20907   -8447.9319   -8413.4392   -13455.868    21914.265    0.4041006 
     310     314.5316   -8448.5273   -8413.4408   -13198.597    21914.265   0.42152557 
     320    312.09261   -8448.2546   -8413.4402   -12968.083    21914.265   0.43866959 
     330    305.84421   -8447.5573   -8413.4399   -12657.381    21914.265   0.45536472 
     340    303.20988   -8447.2632   -8413.4397   -12498.026    21914.265   0.47172581 
     350    307.13857   -8447.7018     -8413.44   -12492.368    21914.265   0.48754232 
     360    312.15901   -8448.2619   -8413.4401   -12369.505    21914.265   0.50223919 
     370     318.6847   -8448.9898     -8413.44   -12195.898    21914.265   0.51545083 
     380    326.66636   -8449.8808   -8413.4407   -12030.164    21914.265   0.52751087 
     390    328.67292   -8450.1043   -8413.4403   -11786.931    21914.265   0.53983918 
     400    329.42172   -8450.1875     -8413.44   -11529.418    21914.265   0.55338123 
     410    329.12824   -8450.1558   -8413.4411   -11363.621    21914.265   0.56856317 
     420    321.17839   -8449.2675   -8413.4396   -11329.503    21914.265   0.58578319 
     430    319.73313   -8449.1067     -8413.44   -11645.546    21914.265   0.60460993 
     440    321.87014   -8449.3455   -8413.4404   -12168.872    21914.265   0.62482739 
     450    321.69175   -8449.3257   -8413.4405   -12517.526    21914.265   0.64605131 
     460    321.58625   -8449.3131   -8413.4397   -12738.117    21914.265   0.66602281 
     470    327.73765   -8450.0009   -8413.4413    -13118.13    21914.265   0.68222539 
     480    325.78012   -8449.7811   -8413.4399   -13518.975    21914.265   0.69547134 
     490    325.26696   -8449.7242   -8413.4402   -13912.333    21914.265   0.70709849 
     500    326.02809   -8449.8096   -8413.4407    -14245.82    21914.265    0.7181905 
     510     321.8067   -8449.3384   -8413.4404   -14358.421    21914.265   0.73031831 
     520    314.82643   -8448.5595   -8413.4401   -14393.561    21914.265   0.74493886 
     530    311.55922   -8448.1945   -8413.4396    -14504.26    21914.265   0.76206346 
     540    316.52181   -8448.7487   -8413.4402   -14692.451    21914.265   0.78048733 
     550    323.45997   -8449.5224     -8413.44   -14675.954    21914.265   0.79880458 
     560    332.20295   -8450.4987   -8413.4409    -14432.97    21914.265   0.81596428 
     570    332.37528   -8450.5179   -8413.4409   -14008.452    21914.265   0.83234674 
     580    324.44532    -8449.632   -8413.4397   -13682.622    21914.265   0.84880328 
     590    322.54654   -8449.4211   -8413.4405   -13611.186    21914.265   0.86493346 
     600    320.03229     -8449.14   -8413.4399   -13618.158    21914.265   0.88136827 
     610     322.0694   -8449.3667   -8413.4393   -13770.866    21914.265   0.89972436 
     620    332.97088   -8450.5844    -8413.441   -14040.679    21914.265   0.91979176 
     630    336.52886   -8450.9806   -8413.4403   -14106.634    21914.265    0.9400978 
     640    340.63169   -8451.4378   -8413.4399   -14084.373    21914.265   0.95883362 
     650     349.6267   -8452.4431   -8413.4417   -14126.089    21914.265   0.97518253 
     660     345.3101   -8451.9607   -8413.4408    -13925.09    21914.265   0.98949595 
     670    335.30236   -8450.8431   -8413.4396   -13541.064    21914.265    1.0025057 
     680    335.35657   -8450.8495     -8413.44   -13120.509    21914.265    1.0157598 
     690    342.86707   -8451.6878   -8413.4405   -12807.122    21914.265    1.0306556 
     700    350.61517   -8452.5527    -8413.441   -12613.893    21914.265    1.0481195 
     710    351.61871   -8452.6647   -8413.4411    -12558.63    21914.265     1.067876 
     720    346.37378   -8452.0785     -8413.44   -12478.274    21914.265    1.0873947 
     730    347.79156   -8452.2373   -8413.4406   -12593.955    21914.265    1.1041491 
     740    351.02442    -8452.599   -8413.4417   -12781.856    21914.265    1.1188548 
     750    344.89782   -8451.9145   -8413.4406   -12888.282    21914.265     1.133643 
     760      340.342   -8451.4064   -8413.4407   -13050.736    21914.265    1.1491825 
     770    340.04955   -8451.3737   -8413.4407   -13326.749    21914.265    1.1643304 
     780      345.357   -8451.9656   -8413.4405   -13558.373    21914.265    1.1777023 
     790    357.12317   -8453.2788   -8413.4411   -13831.043    21914.265    1.1886997 
     800    366.64045   -8454.3407   -8413.4414   -14129.874    21914.265    1.1976392 
     810    368.68447   -8454.5688   -8413.4415   -14063.484    21914.265    1.2056605 
     820    366.60174   -8454.3361   -8413.4411   -13908.726    21914.265    1.2141717 
     830    365.85586   -8454.2531   -8413.4413   -13853.131    21914.265    1.2243585 
     840     368.4524   -8454.5423   -8413.4409   -13972.673    21914.265    1.2365636 
     850    371.87492   -8454.9262    -8413.443    -14131.16    21914.265    1.2503596 
     860     358.1746   -8453.3954   -8413.4405     -13818.7    21914.265    1.2649975 
     870    354.45705   -8452.9806   -8413.4404   -13465.958    21914.265     1.278191 
     880    366.65296   -8454.3425   -8413.4418   -13399.092    21914.265    1.2880847 
     890    376.93995   -8455.4909   -8413.4426    -13274.53    21914.265    1.2959326 
     900    375.96913   -8455.3817   -8413.4418   -13062.805    21914.265    1.3041818 
     910    374.01489   -8455.1632   -8413.4413   -12824.206    21914.265    1.3130528 
     920    378.94842   -8455.7136   -8413.4414   -12747.174    21914.265    1.3222121 
     930    388.54983   -8456.7859   -8413.4426   -12880.601    21914.265    1.3329508 
     940    389.80019   -8456.9258    -8413.443   -12981.003    21914.265    1.3457299 
     950    382.52604   -8456.1127   -8413.4413   -12918.004    21914.265    1.3587946 
     960    381.75271   -8456.0275   -8413.4424   -13120.356    21914.265    1.3710856 
     970    380.20365    -8455.854   -8413.4417   -13297.868    21914.265    1.3835601 
     980    384.06597   -8456.2848   -8413.4416    -13360.21    21914.265    1.3967998 
     990    391.39252    -8457.104   -8413.4436    -13319.56    21914.265    1.4114384 
    1000    385.55287   -8456.4508   -8413.4418   -13032.957    21914.265    1.4285977 
    1010    381.98963   -8456.0536   -8413.4421   -12900.345    21914.265    1.4480597 
    1020    382.08452   -8456.0644   -8413.4423   -12891.786    21914.265    1.4678099 
    1030    380.66666   -8455.9065   -8413.4425   -12820.478    21914.265    1.4859085 
    1040    378.02017   -8455.6107    -8413.442   -12814.774    21914.265    1.5012686 
    1050    381.70997   -8456.0224   -8413.4421   -12925.622    21914.265    1.5119118 
    1060    391.42566   -8457.1073   -8413.4432    -13146.33    21914.265    1.5173209 
    1070    396.24192   -8457.6441   -8413.4428   -13102.084    21914.265    1.5196151 
    1080    397.63032   -8457.7993    -8413.443   -12889.784    21914.265    1.5211703 
    1090    396.12759   -8457.6308   -8413.4422   -12537.537    21914.265    1.5231683 
    1100    400.33119   -8458.1002   -8413.4426   -12299.668    21914.265    1.5256834 
    1110    407.17314   -8458.8635   -8413.4428   -12099.612    21914.265    1.5296348 
    1120    413.19804   -8459.5369    -8413.444   -11926.861    21914.265    1.5369315 
    1130    409.94165   -8459.1721   -8413.4425   -11927.354    21914.265    1.5487344 
    1140    411.69689   -8459.3679   -8413.4425   -12274.932    21914.265    1.5644715 
    1150    417.92932   -8460.0654   -8413.4448   -12599.199    21914.265    1.5822789 
    1160    409.45399   -8459.1175   -8413.4423   -12608.558    21914.265    1.6004412 
    1170    405.75202   -8458.7057   -8413.4435   -12496.116    21914.265    1.6169469 
    1180    399.97271   -8458.0606    -8413.443   -12466.412    21914.265    1.6317671 
    1190    393.04741   -8457.2883   -8413.4433   -12618.331    21914.265    1.6460138 
    1200    381.93867   -8456.0489   -8413.4431   -12576.103    21914.265    1.6602667 
    1210    376.72969   -8455.4667   -8413.4419   -12745.258    21914.265    1.6726433 
    1220     387.4652   -8456.6661   -8413.4437   -13270.317    21914.265    1.6819979 
    1230    392.11995   -8457.1848   -8413.4433   -13698.725    21914.265    1.6894908 
    1240    392.35374   -8457.2109   -8413.4432   -14054.078    21914.265    1.6958816 
    1250    387.63167   -8456.6848   -8413.4439   -14383.659    21914.265    1.7022745 
    1260    377.01437   -8455.4984   -8413.4419   -14780.957    21914.265    1.7098627 
    1270    380.16106   -8455.8505   -8413.4429    -15291.91    21914.265    1.7186286 
    1280    386.65141    -8456.575   -8413.4435   -15684.863    21914.265    1.7280931 
    1290    386.45138   -8456.5524   -8413.4431   -15669.118    21914.265    1.7377267 
    1300    384.49318   -8456.3333   -8413.4425   -15192.167    21914.265    1.7465203 
    1310    389.16883   -8456.8559   -8413.4435   -14748.802    21914.265    1.7543822 
    1320    395.91985   -8457.6092   -8413.4437   -14540.669    21914.265    1.7626209 
    1330    402.24128   -8458.3144   -8413.4438   -14482.176    21914.265    1.7719127 
    1340    406.72312   -8458.8138   -8413.4433   -14593.779    21914.265    1.7822942 
    1350    413.88937   -8459.6138   -8413.4438   -14633.206    21914.265    1.7929881 
    1360    418.26368   -8460.1021   -8413.4441   -14272.723    21914.265    1.8043383 
    1370    412.53709   -8459.4628   -8413.4437   -13640.472    21914.265    1.8173742 
    1380    404.03017    -8458.513   -8413.4428   -13053.663    21914.265    1.8314414 
    1390    402.11865   -8458.3013   -8413.4444   -12796.252    21914.265    1.8446224 
    1400    396.75786   -8457.7017   -8413.4428   -12890.081    21914.265    1.8555613 
    1410     401.1626   -8458.1945   -8413.4442   -13251.623    21914.265    1.8625402 
    1420    405.53922    -8458.683   -8413.4445   -13540.901    21914.265    1.8651673 
    1430    404.12534   -8458.5245   -8413.4437   -13662.885    21914.265    1.8648977 
    1440    405.72045   -8458.7027    -8413.444   -13771.634    21914.265    1.8643414 
    1450    406.67484   -8458.8092    -8413.444   -13873.149    21914.265    1.8661066 
    1460    406.94702   -8458.8395   -8413.4439   -13898.845    21914.265    1.8707341 
    1470    405.99802   -8458.7335   -8413.4438    -13583.81    21914.265    1.8783175 
    1480    405.25435   -8458.6503   -8413.4436   -13097.342    21914.265    1.8881067 
    1490    408.19865    -8458.979   -8413.4439   -12662.726    21914.265    1.8977467 
    1500    414.56579   -8459.6887   -8413.4433   -12296.863    21914.265    1.9065246 
    1510    429.03716   -8461.3044   -8413.4447   -11735.577    21914.265    1.9156573 
    1520    435.43303   -8462.0188   -8413.4456   -11140.275    21914.265    1.9269758 
    1530    420.46896   -8460.3486   -8413.4446     -10759.3    21914.265    1.9420002 
    1540    404.55727   -8458.5707   -8413.4417   -10562.297    21914.265    1.9594173 
    1550     414.5371   -8459.6878   -8413.4456   -10873.945    21914.265    1.9756145 
    1560    415.64167   -8459.8093   -8413.4438    -11180.84    21914.265    1.9896674 
    1570    417.51903   -8460.0192   -8413.4444   -11574.862    21914.265      2.00287 
    1580    420.71133   -8460.3754   -8413.4444   -12084.028    21914.265    2.0173903 
    1590    422.23753   -8460.5459   -8413.4446   -12650.323    21914.265    2.0354221 
    1600    420.26548   -8460.3254   -8413.4441   -13157.964    21914.265    2.0567995 
    1610    418.97614   -8460.1816   -8413.4442   -13379.664    21914.265    2.0784503 
    1620    422.99101    -8460.629   -8413.4437   -13476.483    21914.265    2.0978277 
    1630    431.41255   -8461.5707    -8413.446   -13473.665    21914.265     2.115193 
    1640    426.28653   -8460.9963   -8413.4434   -13430.412    21914.265    2.1338075 
    1650    431.13487   -8461.5387    -8413.445   -13658.596    21914.265       2.1559 
    1660    436.17822   -8462.1019   -8413.4456   -13638.641    21914.265    2.1797337 
    1670    428.12023   -8461.2022   -8413.4447   -13252.346    21914.265    2.2035441 
    1680    422.66155   -8460.5919   -8413.4434   -13022.696    21914.265    2.2262152 
    1690    430.34848   -8461.4521    -8413.446   -12966.155    21914.265    2.2464937 
    1700    426.21611   -8460.9896   -8413.4446   -12849.343    21914.265    2.2649593 
    1710    421.63281   -8460.4781   -8413.4443    -12902.06    21914.265    2.2822078 
    1720    425.52952   -8460.9136   -8413.4451   -13254.993    21914.265    2.2992296 
    1730    433.21398   -8461.7705   -8413.4448   -13760.925    21914.265    2.3170264 
    1740    441.86781   -8462.7372   -8413.4461   -14050.542    21914.265    2.3352522 
    1750    438.27813    -8462.336   -8413.4454   -13921.401    21914.265    2.3528289 
    1760    429.17186   -8461.3192   -8413.4444   -13408.002    21914.265    2.3694072 
    1770    428.81898   -8461.2807   -8413.4453    -12917.73    21914.265    2.3858611 
    1780    433.34916   -8461.7857    -8413.445   -12638.931    21914.265    2.4026666 
    1790     441.0669   -8462.6474   -8413.4457   -12705.172    21914.265     2.419074 
    1800    447.24535   -8463.3359    -8413.445   -12842.309    21914.265    2.4345236 
    1810    451.04914   -8463.7611   -8413.4459   -13058.485    21914.265    2.4502124 
    1820    445.08252   -8463.0941   -8413.4445   -13035.825    21914.265    2.4671851 
    1830    441.70858   -8462.7187   -8413.4454   -12922.342    21914.265    2.4853863 
    1840    432.65555   -8461.7082   -8413.4449   -13058.866    21914.265    2.5046773 
    1850    428.24526   -8461.2146   -8413.4432   -13494.155    21914.265    2.5239509 
    1860    442.70809   -8462.8312   -8413.4464     -14052.9    21914.265    2.5417036 
    1870    445.34398   -8463.1238   -8413.4451   -14177.248    21914.265    2.5577578 
    1880    449.56383   -8463.5931   -8413.4436   -14088.107    21914.265    2.5732932 
    1890    469.70151   -8465.8424   -8413.4465   -13965.821    21914.265    2.5900107 
    1900    475.61979   -8466.5029   -8413.4468   -13338.709    21914.265    2.6092547 
    1910    460.77113   -8464.8444   -8413.4447   -12266.897    21914.265    2.6300063 
    1920    453.29076   -8464.0097   -8413.4444   -11600.031    21914.265    2.6488623 
    1930    455.01355   -8464.2038   -8413.4464   -11532.276    21914.265     2.664581 
    1940    446.57627   -8463.2611   -8413.4448   -11610.068    21914.265    2.6787843 
    1950    442.24787   -8462.7779   -8413.4445    -12067.88    21914.265     2.691974 
    1960    445.34565   -8463.1243   -8413.4453   -12574.104    21914.265    2.7033659 
    1970     445.3849   -8463.1293   -8413.4459   -12683.518    21914.265    2.7130116 
    1980    438.45896   -8462.3558    -8413.445   -12521.804    21914.265    2.7223802 
    1990    435.82997    -8462.062   -8413.4445   -12590.151    21914.265    2.7312795 
    2000    445.20858   -8463.1089   -8413.4452   -13039.215    21914.265    2.7384799 
Loop time of 1248.62 on 16 procs for 2000 steps with 864 atoms

Performance: 0.138 ns/day, 173.420 hours/ns, 1.602 timesteps/s
96.9% CPU use with 16 MPI tasks x 1 OpenMP threads

MPI task timing breakdown:
Section |  min time  |  avg time  |  max time  |%varavg| %total
---------------------------------------------------------------
Pair    | 403.68     | 683.86     | 1226.1     | 904.8 | 54.77
Bond    | 0.00014591 | 0.00034046 | 0.00068831 |   0.0 |  0.00
Neigh   | 0.017705   | 0.029739   | 0.054667   |   6.5 |  0.00
Comm    | 22.181     | 500.62     | 772.47     | 961.3 | 40.09
Output  | 0.2331     | 45.007     | 105.98     | 580.0 |  3.60
Modify  | 0.0082252  | 0.010066   | 0.012988   |   1.0 |  0.00
Other   |            | 19.1       |            |       |  1.53

Nlocal:        54.0000 ave          84 max          36 min
Histogram: 3 3 4 0 0 2 1 0 1 2
Nghost:        477.750 ave         592 max         348 min
Histogram: 2 0 2 1 3 3 1 0 0 4
Neighs:         0.00000 ave           0 max           0 min
Histogram: 16 0 0 0 0 0 0 0 0 0
FullNghs:      2234.12 ave        4892 max        1038 min
Histogram: 5 5 0 0 2 0 2 0 0 2

Total # of neighbors = 35746
Ave neighs/atom = 41.372685
Ave special neighs/atom = 0.0000000
Neighbor list builds = 199
Dangerous builds = 198
unfix   1

velocity    all create 450.0 1312343 dist gaussian
fix     2 all npt temp 450.0 450.0 $(100.0*dt) aniso 0.0 1.01325 $(1000.0*dt)
fix     2 all npt temp 450.0 450.0 0.10000000000000000555 aniso 0.0 1.01325 $(1000.0*dt)
fix     2 all npt temp 450.0 450.0 0.10000000000000000555 aniso 0.0 1.01325 1
run     3000
Per MPI rank memory allocation (min/avg/max) = 8.894 | 8.907 | 8.916 Mbytes
Step Temp PotEng TotEng Press Volume c_msd[4] 
    2000          450   -8463.1089   -8412.9107   -13013.164    21914.265    2.7384799 
    2010    446.24829   -8462.9247    -8413.145   -12909.371    21896.767    2.7361006 
    2020    442.51406   -8463.1488   -8413.7856   -12006.852    21845.009    2.7300833 
    2030    454.29677   -8465.3786   -8414.7011   -10616.503    21761.814    2.7210988 
    2040    460.00528   -8467.0349   -8415.7207    -8400.393    21652.168    2.7107417 
    2050    465.53877   -8468.6102   -8416.6787   -5973.2858    21523.812    2.7012158 
    2060    472.03181   -8470.1163   -8417.4604   -3331.7334    21385.883    2.6949426 
    2070    462.69186    -8469.581   -8417.9671   -668.88231    21248.077    2.6919755 
    2080    469.83883   -8470.6314   -8418.2202    1435.7157    21119.344    2.6896561 
    2090    482.63578   -8472.1935   -8418.3547    2438.6066    21005.838    2.6870414 
    2100    490.49009   -8473.2619    -8418.547    2358.5885    20909.678    2.6847451 
    2110    499.00182   -8474.5803   -8418.9159    1665.0166    20829.537    2.6827897 
    2120    499.91918   -8475.2571   -8419.4904    873.73041    20762.344    2.6817628 
    2130    502.61318   -8476.3006   -8420.2333   -143.56111    20704.747    2.6841276 
    2140     500.5721   -8476.9025   -8421.0629   -1391.0281    20653.162    2.6917195 
    2150    498.09871    -8477.436   -8421.8723   -2154.5072    20604.029    2.7034062 
    2160    498.78207   -8478.2227   -8422.5828   -2080.2303     20555.18    2.7162793 
    2170    497.84457   -8478.7155   -8423.1802   -1576.6622    20506.369    2.7289487 
    2180    493.02617   -8478.6854   -8423.6875   -820.21809      20458.4    2.7413438 
    2190    496.86679   -8479.5705   -8424.1443   -192.37838    20412.546    2.7536396 
    2200    504.93609   -8480.9455   -8424.6191    415.20283    20369.798    2.7669831 
    2210    504.11021   -8481.3805   -8425.1463    1134.2912    20331.069    2.7818069 
    2220     505.2305   -8482.0997   -8425.7405     1430.405    20297.336    2.7961534 
    2230    499.03423   -8482.0507   -8426.3827     1650.878    20268.858    2.8078653 
    2240    498.94058    -8482.705   -8427.0474    2090.8945    20245.742    2.8168424 
    2250     502.8023   -8483.8134    -8427.725    2584.2423     20228.54    2.8254443 
    2260    500.30969   -8484.2208   -8428.4105    2782.7626    20217.906    2.8362575 
    2270    503.37165   -8485.2569    -8429.105    2351.6545    20213.849    2.8495591 
    2280    518.25455   -8487.6631    -8429.851    1306.5579    20215.071    2.8641905 
    2290    508.11366   -8487.3272   -8430.6464    701.66324    20219.253    2.8782327 
    2300    484.41932   -8485.4604   -8431.4227    629.39143    20224.931    2.8915507 
    2310    477.40731   -8485.3866   -8432.1311     313.5819    20231.723    2.9074916 
    2320    489.98796   -8487.4568   -8432.7979   -100.60868    20238.931    2.9286268 
    2330    490.21116   -8488.1415   -8433.4577   -211.10317    20245.698    2.9540304 
    2340    485.70595   -8488.2989   -8434.1177   -259.10283    20251.759    2.9802924 
    2350     490.7744   -8489.5346   -8434.7879   -475.39183    20256.996    3.0049614 
    2360    487.73814   -8489.8698   -8435.4618   -580.13036    20260.992    3.0277965 
    2370    485.87741   -8490.3276   -8436.1272   -519.44404    20263.561    3.0494462 
    2380    487.21157   -8491.1405   -8436.7913   -364.59831    20264.888    3.0716109 
    2390    478.38664   -8490.8146   -8437.4499    164.50217    20265.432    3.0956764 
    2400    468.27096   -8490.3145   -8438.0782     864.5199    20266.371    3.1213449 
    2410     466.0916   -8490.6695   -8438.6763    1298.3362    20269.174    3.1466321 
    2420    473.41812   -8492.0785    -8439.268    1336.7742    20274.715    3.1696838 
    2430    473.77756    -8492.717   -8439.8664    1026.2446    20283.018    3.1911466 
    2440    469.56506    -8492.833   -8440.4523    217.61014    20293.239    3.2117548 
    2450    479.75259   -8494.5466   -8441.0294   -814.73812    20303.534    3.2307646 
    2460    485.52468   -8495.7907   -8441.6297   -1508.7508    20311.695    3.2479333 
    2470    479.94471   -8495.7993   -8442.2607   -1875.2383    20316.203    3.2648543 
    2480    481.09552   -8496.5832   -8442.9163   -1877.3169    20316.379    3.2828988 
    2490    471.90355   -8496.2174   -8443.5759   -1568.7274     20312.38    3.3032044 
    2500    453.91929   -8494.8293   -8444.1939   -1133.7627    20305.044    3.3261887 
    2510    451.71562   -8495.1344   -8444.7449   -1156.2415    20295.322    3.3490493 
    2520      450.378   -8495.4748   -8445.2344   -1158.3438    20283.385    3.3685619 
    2530    439.28187   -8494.6585   -8445.6559    -880.1119    20269.374    3.3844276 
    2540    450.78583   -8496.3159   -8446.0301   -640.73419    20253.924    3.3983368 
    2550    466.20078    -8498.405   -8446.3996   -167.14871      20237.7    3.4119413 
    2560    463.53727   -8498.4899   -8446.7816    501.74975    20221.758    3.4266912 
    2570    455.91089   -8498.0275   -8447.1699    1088.9136    20207.559      3.44372 
    2580    452.70661   -8498.0516   -8447.5515    1427.9887    20196.315    3.4625207 
    2590    455.69622   -8498.7626    -8447.929    1726.3975    20188.689    3.4824359 
    2600    453.98455   -8498.9488   -8448.3062    2131.9538    20185.221    3.5042637 
    2610     451.9447   -8499.0952   -8448.6801     2589.742    20186.672    3.5289178 
    2620    456.71746   -8500.0072   -8449.0597    2621.6807    20193.778    3.5561461 
    2630    462.40953   -8501.0347   -8449.4523    2114.2033    20206.401    3.5846259 
    2640    473.10152   -8502.6487   -8449.8735    1257.0482    20223.246    3.6135788 
    2650    467.53526   -8502.4759   -8450.3216    664.16339    20242.389    3.6422709 
    2660    457.22333   -8501.7801   -8450.7761    350.46381    20262.439    3.6680528 
    2670    451.66068   -8501.5967   -8451.2132   -273.78833    20282.514    3.6902715 
    2680    450.96424   -8501.9198   -8451.6141   -1047.8459    20301.258    3.7118123 
    2690    459.75659   -8503.2791   -8451.9925    -1673.051    20316.998    3.7348119 
    2700    459.85741   -8503.6693   -8452.3715   -1677.6646    20328.549    3.7591013 
    2710    454.78395   -8503.4869    -8452.755   -1274.4711    20335.997    3.7841568 
    2720    450.60941   -8503.3955   -8453.1294   -803.87726    20340.335    3.8094564 
    2730    458.68978   -8504.6597   -8453.4922   -482.70897    20342.694    3.8334462 
    2740    470.57951   -8506.3679   -8453.8741   -448.12608    20343.821    3.8560447 
    2750      457.662   -8505.3344   -8454.2815   -475.95818    20343.896    3.8777739 
    2760    442.79491   -8504.0741   -8454.6796   -577.83815    20342.876    3.8979781 
    2770    447.88736   -8505.0191   -8455.0566   -908.90477     20340.53    3.9165331 
    2780    447.07651    -8505.288    -8455.416   -921.00974    20336.264    3.9343675 
    2790    435.45412   -8504.3241   -8455.7485   -525.57738    20330.131    3.9516378 
    2800    433.84788   -8504.4377   -8456.0413   -437.75485    20322.933    3.9691576 
    2810    449.18951   -8506.4171   -8456.3094   -482.23626    20314.948    3.9874752 
    2820    455.45285   -8507.3731   -8456.5666   -259.07029    20306.204    4.0072184 
    2830    459.19628   -8508.0405   -8456.8165    78.515592    20297.194     4.030711 
    2840    462.10402   -8508.6153   -8457.0669    322.90907    20288.628    4.0611691 
    2850    460.02073    -8508.646     -8457.33    518.03715    20281.063    4.0990254 
    2860    459.97091   -8508.9306   -8457.6201    628.24123    20274.899    4.1412559 
    2870    447.66987   -8507.8592   -8457.9209    1096.0974     20270.43    4.1835956 
    2880    445.53893   -8507.9138   -8458.2133    1823.0479    20268.631    4.2224773 
    2890    458.34444   -8509.6322   -8458.5031    2413.3917    20271.008    4.2586318 
    2900    467.15906   -8510.9302   -8458.8179    2499.4712    20278.662    4.2949136 
    2910    462.22689   -8510.7135   -8459.1514    2155.4373    20291.632    4.3318506 
    2920    464.52931   -8511.3155   -8459.4966    1221.9258    20308.911    4.3698007 
    2930    457.30882   -8510.8609   -8459.8474    310.50676    20328.419    4.4092175 
    2940    446.47361   -8509.9885   -8460.1837    -570.9726    20348.005    4.4485835 
    2950    454.79658   -8511.2311   -8460.4978    -1747.407    20365.585     4.486912 
    2960    458.00839    -8511.901   -8460.8094   -2731.6245    20378.635    4.5238377 
    2970    438.92933   -8510.0747   -8461.1115   -2919.6596    20385.205    4.5562163 
    2980    437.14325   -8510.1558   -8461.3918   -3027.8935    20384.895    4.5804067 
    2990    435.93101   -8510.2735   -8461.6447   -2864.8124    20377.759    4.5967937 
    3000    434.03405   -8510.2863   -8461.8692   -2465.4574    20364.359    4.6091372 
    3010    444.03074   -8511.6018   -8462.0695   -1826.3956    20345.824    4.6228896 
    3020    448.56444   -8512.2991    -8462.261   -1216.9433    20323.713     4.641293 
    3030    437.79199    -8511.274   -8462.4376    -418.0873     20299.61    4.6627352 
    3040    445.84014   -8512.3161   -8462.5819    509.32914    20275.387     4.683747 
    3050    470.52342   -8515.2018   -8462.7142    1419.2371    20253.124    4.7037682 
    3060    470.64917   -8515.3739   -8462.8722    2603.0018    20234.879    4.7244222 
    3070    461.23545    -8514.512   -8463.0605    3432.1569    20223.029    4.7472651 
    3080     464.5084   -8515.1012   -8463.2846     3364.369    20219.079    4.7751209 
    3090    454.22078   -8514.2132   -8463.5441    3069.2044    20222.781    4.8078941 
    3100    444.80575   -8513.4303   -8463.8116    2593.2828    20233.237    4.8398188 
    3110    456.24079   -8514.9727   -8464.0784    1593.5072    20249.069    4.8688046 
    3120    463.48121   -8516.0601   -8464.3581    659.07033    20268.006    4.8935436 
    3130    452.73185   -8515.1625   -8464.6596    243.05716    20287.953    4.9163322 
    3140    437.17176   -8513.7139   -8464.9467   -313.28643    20307.781    4.9429222 
    3150    438.93047   -8514.1615   -8465.1981   -1046.7012    20326.261    4.9763532 
    3160    441.54507   -8514.6711   -8465.4161    -1932.484    20341.737    5.0167609 
    3170    445.22241   -8515.2793   -8465.6141   -2484.8034    20352.414    5.0616222 
    3180    452.08321    -8516.234   -8465.8034   -2750.9863    20357.178    5.1068828 
    3190    458.17967   -8517.1143   -8466.0036   -2800.4622    20355.594    5.1482353 
    3200    460.09651   -8517.5576   -8466.2332   -2466.0916    20347.765    5.1833218 
    3210    455.33216   -8517.2766   -8466.4836   -1711.4323    20334.671    5.2126715 
    3220    451.84543   -8517.1363   -8466.7322   -832.11954    20318.166    5.2388397 
    3230    455.22269   -8517.7547    -8466.974    26.268439     20300.33    5.2646143 
    3240    448.84032   -8517.2722   -8467.2034    780.05993    20283.121    5.2918986 
    3250    451.34316   -8517.7661   -8467.4181     1101.258    20268.163    5.3195175 
    3260    457.26946   -8518.6472   -8467.6381    1271.1254    20256.176    5.3451523 
    3270    444.79876   -8517.4762   -8467.8582    1427.9686    20247.479    5.3718365 
    3280    455.22115   -8518.8614   -8468.0808    1289.2914     20242.23    5.4040472 
    3290    463.19969   -8519.9914   -8468.3208    1335.8975    20240.109    5.4439309 
    3300    464.88385   -8520.4528   -8468.5943    1233.9097    20241.044    5.4907154 
    3310    458.93328   -8520.0895   -8468.8948    839.34712    20244.653    5.5438003 
    3320    436.23668   -8517.8427   -8469.1798     744.2796    20250.091    5.6026804 
    3330    436.75535   -8518.1357    -8469.415    598.07007    20256.989    5.6635235 
    3340    451.92441   -8520.0268   -8469.6139    392.35781    20264.975    5.7215675 
    3350    444.59154   -8519.3809   -8469.7861    254.94793    20273.618    5.7739068 
    3360     449.7523   -8520.1046   -8469.9341   -327.37833    20282.488    5.8181899 
    3370    468.24731   -8522.3154   -8470.0817   -1114.9497    20290.295    5.8558483 
    3380      476.356     -8523.41   -8470.2718    -1630.255    20295.382     5.890603 
    3390    476.58115   -8523.6869   -8470.5235     -1766.74    20296.682     5.923285 
    3400    472.95224   -8523.5931   -8470.8346   -1511.5772    20294.029    5.9523136 
    3410     465.4223   -8523.0963   -8471.1778    -1050.815    20288.081     5.976949 
    3420    471.23913    -8524.104   -8471.5366   -483.53555    20280.006     5.998342 
    3430    474.94433   -8524.8826   -8471.9019   -305.32204    20271.034     6.017267 
    3440    481.49095   -8525.9832   -8472.2721   -310.96083    20261.648    6.0324294 
    3450    489.15555   -8527.2231    -8472.657   -417.52003    20251.837    6.0430361 
    3460      482.972   -8526.9292   -8473.0529   -227.29642    20241.475    6.0503979 
    3470    479.19175   -8526.8925   -8473.4379    55.192699    20230.954    6.0574392 
    3480    471.28801   -8526.3676   -8473.7947    732.05662    20220.994    6.0663673 
    3490    467.60151   -8526.2759   -8474.1143    1442.5652    20213.014    6.0772312 
    3500    473.89421   -8527.2777   -8474.4141    1598.4578     20208.44    6.0895286 
    3510    476.70467   -8527.8868   -8474.7097    1011.0368    20207.446    6.1022465 
    3520    491.03669    -8529.808   -8475.0321     58.80365    20208.681    6.1142317 
    3530    488.88913   -8529.9373    -8475.401   -761.03036    20210.061    6.1257832 
    3540    473.68211   -8528.6411   -8475.8011   -1339.7273    20209.755    6.1369582 
    3550    464.22177   -8527.9821   -8476.1975   -1833.1305    20206.469    6.1468736 
    3560    471.89205   -8529.2324   -8476.5921   -2328.9971    20199.145    6.1530648 
    3570    468.49688   -8529.2625   -8477.0009   -2245.0327    20186.921    6.1535024 
    3580    448.41463   -8527.4123    -8477.391   -1728.7704    20170.119    6.1499703 
    3590    455.89006   -8528.6017   -8477.7465   -1446.2624    20149.889    6.1453001 
    3600    460.92423   -8529.4999   -8478.0831    -1045.688    20127.057     6.140413 
    3610    456.28601   -8529.2937   -8478.3943   -264.86101    20102.665    6.1336891 
    3620    471.34582   -8531.2748   -8478.6954     197.4003    20078.333    6.1232614 
    3630    480.04375   -8532.5712   -8479.0216     348.5629    20055.113    6.1095169 
    3640    481.30103   -8533.0889    -8479.399    354.98468    20033.322    6.0949889 
    3650    470.63284     -8532.31   -8479.8102    714.91961     20013.03    6.0837974 
    3660    464.37801   -8532.0313   -8480.2293     1245.556    19994.926    6.0810547 
    3670     459.2506   -8531.8716   -8480.6415    2128.2413    19980.192    6.0882737 
    3680    459.14634    -8532.254   -8481.0355    2680.2396    19970.505    6.1033897 
    3690    473.46372   -8534.2469   -8481.4313    2544.8129     19966.84    6.1242117 
    3700    470.76007    -8534.353    -8481.839    2325.4689    19968.864    6.1506073 
    3710    460.84632    -8533.646   -8482.2379    1978.6974     19975.93    6.1824898 
    3720    462.75765   -8534.2356   -8482.6143    1294.8534    19987.096     6.218685 
    3730    468.01228   -8535.1852   -8482.9777    540.40176    20000.801     6.254926 
    3740    458.27293    -8534.454    -8483.333    10.748622    20015.376    6.2862405 
    3750    455.37987   -8534.4697   -8483.6714   -482.46795      20029.6    6.3130164 
    3760    463.13042    -8535.662   -8483.9991   -1128.8829    20042.343    6.3387493 
    3770    454.18363   -8534.9857   -8484.3208   -1357.1199     20052.36    6.3670954 
    3780    451.67617   -8535.0117   -8484.6265   -1647.8534    20059.101    6.3996035 
    3790    463.63653    -8536.651   -8484.9316   -2023.3528    20061.987    6.4339507 
    3800    449.89766   -8535.4236   -8485.2369   -1967.7864    20060.397    6.4661173 
    3810    436.16155   -8534.1682   -8485.5137   -1758.3708    20054.538    6.4932677 
    3820    444.58909   -8535.3496   -8485.7551   -1593.2602    20044.914    6.5147779 
    3830    457.44116   -8537.0108   -8485.9825   -1068.5665    20032.117    6.5325915 
    3840     463.7639   -8537.9521   -8486.2185   -873.20796     20017.22    6.5490746 
    3850    459.30182   -8537.7047   -8486.4689   -602.00846    20000.817    6.5638794 
    3860    448.07483   -8536.6977   -8486.7143    -181.7121    19983.529    6.5759362 
    3870    456.82021   -8537.9108   -8486.9519    83.016124    19966.249    6.5868151 
    3880    456.93957   -8538.1649   -8487.1926    659.28172    19949.689    6.6012196 
    3890     446.9928   -8537.2926   -8487.4299    1383.0819    19935.042    6.6219837 
    3900    451.21008   -8537.9961   -8487.6629     1321.076    19923.617    6.6462992 
    3910    455.97195   -8538.7667   -8487.9023    794.50204     19915.28    6.6666427 
    3920    457.08184   -8539.1384   -8488.1503    357.17251    19908.928    6.6762314 
    3930    462.82958   -8540.0378   -8488.4084    12.468012    19903.537    6.6751843 
    3940    459.51611   -8539.9387    -8488.679   -275.21704    19898.324    6.6721313 
    3950    453.89807    -8539.582    -8488.949   -373.77061    19892.706    6.6773658 
    3960    469.48233    -8541.601   -8489.2295   -490.71134    19886.412    6.6954353 
    3970    480.60641   -8543.1664   -8489.5541   -507.72516    19879.226    6.7240741 
    3980    475.64339   -8542.9923   -8489.9336   -509.11304    19871.133    6.7590789 
    3990    477.35887   -8543.6116   -8490.3615   -653.11277    19862.097    6.7975232 
    4000    472.07663   -8543.4782   -8490.8173   -587.90175    19851.923    6.8384876 
    4010    463.96738    -8543.025   -8491.2687   -712.15399    19840.677    6.8833066 
    4020    461.22018   -8543.1333   -8491.6835    -1057.205    19828.122    6.9322399 
    4030    468.58771   -8544.3392   -8492.0675   -1314.5632    19813.608    6.9809112 
    4040    476.04229   -8545.5461   -8492.4429   -1232.2601      19796.7    7.0255293 
    4050    477.74768   -8546.1173   -8492.8239   -1186.7584     19777.54    7.0638452 
    4060    477.42498   -8546.4706   -8493.2131     -1223.58    19756.292    7.0946643 
    4070    473.39259    -8546.413   -8493.6053   -1105.0365    19733.021    7.1182343 
    4080    472.52192   -8546.7031   -8493.9926   -1220.8939    19707.951    7.1360355 
    4090    484.10466   -8548.3974   -8494.3948   -1309.8712    19680.956    7.1509647 
    4100    489.36389   -8549.4145   -8494.8252   -901.35113    19652.029    7.1647885 
    4110    487.62125   -8549.6789    -8495.284   -114.30157    19622.106    7.1795496 
    4120    482.21621   -8549.5459   -8495.7539    563.49309      19592.8    7.1978672 
    4130     479.7342   -8549.7316   -8496.2165    1185.3813    19565.562    7.2165652 
    4140    489.23164   -8551.2448   -8496.6703    1778.2895    19541.668    7.2317882 
    4150    503.43458   -8553.3147   -8497.1558    2264.3245    19522.226    7.2441499 
    4160    490.26436   -8552.3684   -8497.6787     3028.804    19508.198     7.255509 
    4170    470.56861   -8550.6893   -8498.1967    3604.1694    19500.904    7.2680899 
    4180    461.75834    -8550.191   -8498.6812    3302.0767    19501.198    7.2857058 
    4190    463.78138   -8550.8688   -8499.1333    2383.1848    19508.304    7.3142344 
    4200    477.09678   -8552.7864   -8499.5655    1091.2415    19520.124    7.3574229 
    4210    487.23934   -8554.3554   -8500.0031   -84.536147    19533.905    7.4098388 
    4220    486.09265   -8554.6901   -8500.4658   -728.74231    19547.206    7.4620516 
    4230    479.98835   -8554.4942   -8500.9508   -897.83853    19558.686    7.5098726 
    4240    492.94243   -8556.4555    -8501.467   -1175.8201    19567.934    7.5542487 
    4250    501.36271   -8557.9688    -8502.041    -1654.273     19574.39    7.5963414 
    4260    491.12987   -8557.4398   -8502.6535   -1679.5057    19577.268    7.6353632 
    4270    490.93423   -8558.0363   -8503.2719   -1729.8723    19576.522    7.6693255 
    4280    489.24419   -8558.4661   -8503.8902     -1991.05    19572.116    7.6975409 
    4290    478.10095   -8557.8306   -8504.4978   -2222.8598    19563.669    7.7207172 
    4300    479.61164     -8558.59   -8505.0886    -2364.405     19550.82    7.7403929 
    4310    486.63626   -8559.9625   -8505.6775   -2020.0542    19533.477     7.756616 
    4320    496.45513   -8561.6594   -8506.2791   -1498.9672    19512.414    7.7676711 
    4330    499.10666   -8562.5833   -8506.9072   -670.81967    19488.917    7.7737374 
    4340    485.93045   -8561.7401   -8507.5338   -89.201798    19464.692    7.7787786 
    4350    491.50238   -8562.9827   -8508.1549    93.039925    19440.987    7.7869524 
    4360    499.98854   -8564.5696   -8508.7951    234.91218    19418.209    7.8002056 
    4370    507.27446   -8566.0498   -8509.4625    315.16841    19396.597    7.8177108 
    4380    519.60433   -8568.1469   -8510.1843    339.82888    19376.317    7.8369915 
    4390    520.95137   -8569.0751   -8510.9622    34.273808    19357.308    7.8567693 
    4400     517.2431    -8569.481   -8511.7817   -348.01033    19338.958    7.8761935 
    4410    506.41249   -8569.0992   -8512.6082   -367.07035    19320.542     7.895003 
    4420    503.56792   -8569.5825   -8513.4088   -317.55125     19301.96    7.9152435 
    4430    517.51379   -8571.9432   -8514.2138   -562.61931    19283.214    7.9378616 
    4440    524.15038   -8573.5327    -8515.063   -908.82651    19263.866    7.9623991 
    4450    512.92615   -8573.1631   -8515.9454   -1135.2775     19243.27    7.9905805 
    4460    497.75491   -8572.3376   -8516.8123   -867.34361    19221.087     8.023742 
    4470    493.55256   -8572.6891   -8517.6326   -113.59108    19197.912    8.0602357 
    4480    497.04851   -8573.8645    -8518.418       943.57    19175.271    8.0976705 
    4490    490.95389   -8573.9383   -8519.1716     1815.667    19155.241     8.139601 
    4500    498.07614   -8575.4776   -8519.9164    1988.2905    19139.425    8.1909178 
    4510    504.44252   -8576.9715   -8520.7002    1554.7073    19128.011    8.2517021 
    4520    504.15532   -8577.7685   -8521.5292    1274.9184    19120.127    8.3193833 
    4530    501.51048   -8578.3279   -8522.3836    1435.0123    19115.126    8.3923569 
    4540    496.25756   -8578.5831   -8523.2248    1717.9712    19113.175    8.4687437 
    4550    502.36699    -8580.106   -8524.0662    1700.0711    19114.689    8.5460133 
    4560    501.80144   -8580.8967     -8524.92    1460.7015    19119.554    8.6223204 
    4570    493.10555   -8580.7861   -8525.7794    857.07444    19127.141    8.6993903 
    4580    487.76829   -8581.0272   -8526.6159    116.10489    19136.179    8.7797244 
    4590    475.14818   -8580.4045    -8527.401   -150.95251    19145.218    8.8619536 
    4600    463.93459   -8579.8696    -8528.117     147.6929    19153.734    8.9458978 
    4610    458.63277   -8579.9261   -8528.7649    260.17476    19162.195    9.0334532 
    4620    459.56139   -8580.6238   -8529.3591   -21.215232    19170.823    9.1235104 
    4630    466.68981   -8581.9813   -8529.9214   -674.74694    19179.041    9.2126912 
    4640    473.08901   -8583.2511   -8530.4773    -1255.056    19185.609    9.2988395 
    4650     467.1631   -8583.1481   -8531.0353   -1440.0486    19189.479    9.3791068 
    4660    458.31314   -8582.7039   -8531.5784   -1648.4947    19190.281    9.4507958 
    4670    465.51774   -8584.0349   -8532.1057   -1812.1941    19187.735    9.5131901 
    4680    473.37527   -8585.4603   -8532.6546   -1439.9884    19181.758    9.5654468 
    4690    447.42352   -8583.1112   -8533.2004   -452.57805    19173.229    9.6094415 
    4700    444.28242   -8583.2499   -8533.6895    211.63659      19164.1    9.6496136 
    4710    470.64561   -8586.6696   -8534.1684    179.93735     19155.65    9.6918585 
    4720    458.59538   -8585.8126   -8534.6556    558.99527    19148.006    9.7370706 
    4730    448.08707   -8585.0984   -8535.1136    510.79132    19141.686    9.7809911 
    4740    459.73742   -8586.8385   -8535.5541    128.54381    19136.588    9.8243822 
    4750    460.01938   -8587.3107   -8535.9949   -478.89347    19131.894     9.871356 
    4760    477.87038   -8589.7693   -8536.4621   -992.08587    19126.441    9.9232476 
    4770    481.33911   -8590.6851    -8536.991    -917.7651    19119.315    9.9783564 
    4780    452.38321   -8588.0001    -8537.536   -335.86894    19110.721    10.030048 
    4790    452.98111   -8588.5805   -8538.0498   -460.32893    19101.624    10.072619 
    4800    464.29832   -8590.3519   -8538.5587   -902.03034    19091.897    10.104499 
    4810    455.58563   -8589.8768   -8539.0555   -817.01085    19080.863    10.127341 
    4820    463.79011   -8591.2711   -8539.5347   -567.07889    19068.622    10.149478 
    4830    464.41269   -8591.8102   -8540.0042   -143.19134    19055.728    10.177177 
    4840    453.88851   -8591.0849   -8540.4529    275.82831    19043.021    10.208658 
    4850    460.37066   -8592.2473   -8540.8923    497.35843    19031.293    10.239438 
    4860    469.52817   -8593.7244   -8541.3478    543.99646    19020.963     10.26652 
    4870    467.73428    -8594.005   -8541.8286    601.92393    19012.094    10.289631 
    4880    463.07326   -8593.9783   -8542.3218     808.4955     19004.76    10.311055 
    4890    464.20867   -8594.6116   -8542.8284    1069.9947    18999.276    10.334681 
    4900    455.47155   -8594.1519   -8543.3433    1483.2782    18996.128     10.36404 
    4910    448.63172   -8593.8916    -8543.846    1460.4224    18995.959    10.401271 
    4920     449.1256   -8594.4295   -8544.3289    969.73925    18998.605    10.447109 
    4930    445.79181   -8594.4993   -8544.7705    635.42331    19003.134    10.499596 
    4940    449.58467   -8595.3204   -8545.1686    200.48206    19008.747    10.554424 
    4950    443.83739   -8595.0292   -8545.5185   -116.26449    19014.609     10.60716 
    4960    444.60722   -8595.4251   -8545.8285   -564.09244    19020.021     10.65553 
    4970    444.17551   -8595.6635   -8546.1151   -591.71631    19024.219    10.698969 
    4980    445.81423   -8596.1206   -8546.3894   -346.18178    19027.163     10.73933 
    4990    451.14372   -8596.9858   -8546.6601   -272.75642    19029.304     10.77981 
    5000    446.59249   -8596.7393   -8546.9213   -70.712428    19030.872     10.82039 
Loop time of 1969.94 on 16 procs for 3000 steps with 864 atoms

Performance: 0.132 ns/day, 182.402 hours/ns, 1.523 timesteps/s
96.3% CPU use with 16 MPI tasks x 1 OpenMP threads

MPI task timing breakdown:
Section |  min time  |  avg time  |  max time  |%varavg| %total
---------------------------------------------------------------
Pair    | 681.31     | 1203       | 1961       |1095.3 | 61.07
Bond    | 0.00023627 | 0.00068815 | 0.0018463  |   0.0 |  0.00
Neigh   | 0.028772   | 0.047928   | 0.085669   |   8.7 |  0.00
Comm    | 0.39592    | 511.1      | 1118.5     |1370.7 | 25.94
Output  | 0.44584    | 0.45016    | 0.512      |   2.4 |  0.02
Modify  | 0.20391    | 255.29     | 764.97     |1519.7 | 12.96
Other   |            | 0.01437    |            |       |  0.00

Nlocal:        54.0000 ave          81 max          34 min
Histogram: 3 3 1 3 0 0 2 1 1 2
Nghost:        514.312 ave         684 max         357 min
Histogram: 2 2 0 4 2 0 2 0 2 2
Neighs:         0.00000 ave           0 max           0 min
Histogram: 16 0 0 0 0 0 0 0 0 0
FullNghs:      2632.12 ave        5285 max        1034 min
Histogram: 5 1 4 0 0 0 3 1 0 2

Total # of neighbors = 42114
Ave neighs/atom = 48.743056
Ave special neighs/atom = 0.0000000
Neighbor list builds = 300
Dangerous builds = 300
unfix   2

fix     3 all npt temp 450.0 450.0 $(100.0*dt) aniso 1.01325 1.01325 $(1000.0*dt)
fix     3 all npt temp 450.0 450.0 0.10000000000000000555 aniso 1.01325 1.01325 $(1000.0*dt)
fix     3 all npt temp 450.0 450.0 0.10000000000000000555 aniso 1.01325 1.01325 1
run     20000
Per MPI rank memory allocation (min/avg/max) = 8.895 | 8.909 | 8.922 Mbytes
Step Temp PotEng TotEng Press Volume c_msd[4] 
    5000    446.59249   -8596.7393   -8546.9213   -70.712428    19030.872     10.82039 
    5010    447.48231   -8596.8351   -8546.9178     229.6175    19030.917       10.833 
    5020    454.54766   -8597.6208   -8546.9153    236.89154    19031.377    10.846733 
    5030    459.22643    -8598.145   -8546.9176    59.693249    19032.326    10.869483 
    5040    478.32053   -8600.3081   -8546.9507   -675.13315    19033.289    10.904781 
    5050    473.07828   -8599.8125   -8547.0399   -1291.7866    19032.935    10.947362 
    5060     457.9943   -8598.2769    -8547.187   -1909.9572     19029.98    10.989547 
    5070    451.82782    -8597.771    -8547.369   -2654.7128    19023.126    11.024233 
    5080    448.31971    -8597.587   -8547.5763   -3153.9752     19010.94    11.047746 
    5090    452.23385   -8598.2542   -8547.8068   -3347.9227    18992.445    11.058863 
    5100    466.03226   -8600.0693   -8548.0827   -3139.2676     18967.27    11.056749 
    5110    460.00051    -8599.723   -8548.4092   -2236.8189     18935.91    11.043655 
    5120    456.65451   -8599.7088   -8548.7683    -1086.325    18900.103    11.021372 
    5130    466.82856   -8601.2264    -8549.151    421.84545    18862.247    10.990082 
    5140    464.26744   -8601.3461   -8549.5564    2260.9305    18825.392    10.958034 
    5150      446.578   -8599.7735   -8549.9571    3805.9791    18793.074    10.936579 
    5160    443.35246   -8599.7941   -8550.3375    4215.1228    18768.172    10.930577 
    5170     454.9495   -8601.4663    -8550.716    3651.3209    18751.485    10.941591 
    5180    462.72318   -8602.7084   -8551.0909    2849.6643    18741.992    10.970978 
    5190    473.70437   -8604.2967   -8551.4543     2039.019    18738.137    11.015967 
    5200    470.93551   -8604.3298   -8551.7962    1251.7911    18738.299    11.071995 
    5210    464.69058   -8603.9374   -8552.1004    726.87488    18740.983    11.134288 
    5220    470.37828   -8604.8382   -8552.3668    300.86371    18745.101    11.199605 
    5230    469.08794   -8604.9425    -8552.615    360.67385     18749.88    11.265875 
    5240    463.06613   -8604.5121   -8552.8564    379.89496    18755.343    11.333929 
    5250    458.47555    -8604.231   -8553.0874   -29.953977    18761.476    11.404353 
    5260    448.93448   -8603.3759   -8553.2966   -664.03066    18767.498    11.475042 
    5270    451.17421   -8603.8168   -8553.4877   -1429.7455    18772.172    11.544327 
    5280     451.8701   -8604.0752   -8553.6684   -1732.9283    18774.116    11.614781 
    5290    448.67681   -8603.8881   -8553.8375   -1551.6404    18772.742    11.688409 
    5300    455.87006   -8604.8401   -8553.9871   -1310.5536    18768.349    11.765977 
    5310    460.75912   -8605.5234   -8554.1251   -598.69768    18761.513    11.846678 
    5320    451.15165   -8604.5689   -8554.2422    694.21114     18753.69    11.927328 
    5330    458.42658   -8605.4945   -8554.3564    1540.5579    18747.219    12.006252 
    5340    464.52045    -8606.319   -8554.5011    1860.5945    18743.741    12.085409 
    5350    468.40863   -8606.9499   -8554.6982    1674.1536    18743.824    12.167657 
    5360    469.92868   -8607.3579   -8554.9367    1373.8631    18747.179    12.254282 
    5370    468.82801   -8607.5048   -8555.2064    1054.7683    18753.193    12.342041 
    5380    469.83519   -8607.9228    -8555.512    896.35771    18761.257    12.427524 
    5390    468.41585   -8608.1068   -8555.8543    704.15321    18771.009    12.513279 
    5400    463.34861   -8607.9074   -8556.2202    581.83154    18782.058    12.601223 
    5410    455.44537   -8607.3961   -8556.5905    724.99665    18794.188    12.688506 
    5420     456.5089    -8607.873   -8556.9487    743.80276     18807.61    12.773702 
    5430    465.37327   -8609.2083   -8557.2952    286.27626     18822.28    12.857539 
    5440    462.73042   -8609.2447   -8557.6264   -367.84195    18837.348    12.935462 
    5450    466.99921   -8610.0397   -8557.9452   -1302.9296    18851.492    13.001171 
    5460    470.46576   -8610.7471   -8558.2659   -2057.8603    18862.947    13.051969 
    5470     468.4394   -8610.8513   -8558.5962   -2436.7111    18870.272    13.086147 
    5480    478.48697   -8612.3229    -8558.947   -2953.2262    18872.644    13.102864 
    5490    480.09443   -8612.8886   -8559.3333   -2729.9922    18869.296    13.104739 
    5500    460.22629   -8611.0751   -8559.7362   -1623.8832    18860.758    13.098716 
    5510    436.87374   -8608.8196   -8560.0857   -685.75144    18849.107    13.092159 
    5520    460.73256   -8611.7773   -8560.3819   -850.47732    18836.049    13.089572 
    5530    479.25626   -8614.1375   -8560.6758   -1038.1733    18821.488    13.091342 
    5540    470.05036   -8613.4152   -8560.9804   -743.03053     18805.15     13.09438 
    5550     469.9559   -8613.7128   -8561.2885   -238.01289    18787.653    13.094855 
    5560    459.58511   -8612.8577   -8561.5903    348.23962    18769.954    13.091267 
    5570    444.25343   -8611.4205   -8561.8634    1001.6883    18753.189    13.088138 
    5580    446.07743     -8611.86   -8562.0994    1427.0558    18738.573    13.093174 
    5590    454.79401     -8613.05    -8562.317     1438.372    18726.853    13.110803 
    5600    464.22887   -8614.3233   -8562.5378    1152.9879    18718.046    13.141246 
    5610    477.48404   -8616.0551    -8562.791    756.09739    18711.561    13.179857 
    5620    470.42209   -8615.5618   -8563.0856    1095.8498     18706.76    13.220862 
    5630    451.12642   -8613.7157   -8563.3918    2030.7092    18704.255    13.262364 
    5640     447.4492   -8613.5929   -8563.6792     2472.063    18705.622    13.305502 
    5650    453.86242   -8614.5814   -8563.9524    2569.9158    18711.742    13.348015 
    5660    459.73013   -8615.5141   -8564.2305    2378.4326    18722.755    13.387204 
    5670     459.2636   -8615.7565   -8564.5249    1919.3579    18738.255    13.422251 
    5680    457.72766   -8615.8828   -8564.8226    904.24444    18757.245    13.453208 
    5690    460.98883   -8616.5341   -8565.1101   -333.48885    18777.766      13.4785 
    5700    456.28622   -8616.2832   -8565.3838   -1107.4721    18797.494    13.494903 
    5710    461.01022   -8617.0764     -8565.65   -1846.0273    18814.815    13.501232 
    5720    465.05106   -8617.7945   -8565.9174   -2488.2243    18828.321    13.498131 
    5730    464.61186   -8618.0257   -8566.1975   -2491.5532    18836.911    13.487731 
    5740    460.50464   -8617.8581   -8566.4882   -2370.7374    18840.515    13.472275 
    5750    456.53383   -8617.6995   -8566.7724   -2334.2705    18839.414    13.452602 
    5760    462.87193   -8618.6924   -8567.0583   -2372.3774    18833.724    13.429506 
    5770    451.56966   -8617.7196   -8567.3463   -2187.2417    18823.484    13.404939 
    5780     446.5367   -8617.4299   -8567.6181    -1963.263     18809.06    13.379925 
    5790    458.39652   -8619.0117   -8567.8769   -1408.4834    18791.036    13.353768 
    5800    452.85093   -8618.6361   -8568.1199   -416.34644    18770.572     13.32838 
    5810    455.52099   -8619.1543   -8568.3402    149.95512     18749.51    13.307523 
    5820     477.0779   -8621.7895   -8568.5707    29.353644    18728.915    13.294947 
    5830    481.23542   -8622.5253   -8568.8427    308.67728    18708.756    13.290394 
    5840    480.38694   -8622.7494   -8569.1615    647.60561    18689.484    13.290022 
    5850    473.81114   -8622.3725   -8569.5182    840.79647    18671.735    13.290918 
    5860     459.4693   -8621.1334   -8569.8789    1329.9992    18655.945    13.294328 
    5870    461.51937   -8621.7009   -8570.2177     1906.534    18642.945     13.30471 
    5880    469.08756   -8622.8691   -8570.5416    2136.2776     18633.72     13.32274 
    5890    472.52655   -8623.5813   -8570.8703    1712.8712    18628.631    13.346465 
    5900    468.58113   -8623.4785   -8571.2075    572.70403    18626.779    13.372631 
    5910    463.47414   -8623.2402    -8571.539   -590.77049    18626.039    13.396087 
    5920    459.82246   -8623.1495   -8571.8556   -919.39085    18624.318    13.416105 
    5930    447.69563   -8622.0811     -8572.14   -218.02843    18621.039    13.437768 
    5940    448.77481   -8622.4399   -8572.3784    562.70246    18617.398    13.463876 
    5950    471.64042   -8625.2142    -8572.602    640.45524    18614.755     13.49312 
    5960    484.02238   -8626.8496   -8572.8562    559.08732    18613.365    13.520837 
    5970    476.21515   -8626.2766   -8573.1541     686.0351      18613.1    13.543074 
    5980    471.43928   -8626.0752   -8573.4855    1153.5644    18614.226    13.562985 
    5990    462.94203   -8625.4737   -8573.8318    1561.7195    18617.563    13.590618 
    6000    459.02221   -8625.3816    -8574.177    1265.4459    18623.739    13.632946 
    6010    464.75338   -8626.3576   -8574.5136    493.51742    18632.212    13.688822 
    6020    477.63536   -8628.1339   -8574.8529   -635.80747    18641.486    13.750769 
    6030    483.35268   -8629.1309   -8575.2122   -1811.1858    18649.412    13.807328 
    6040    468.56947   -8627.8554   -8575.5857    -2204.825    18653.892     13.84733 
    6050    470.05662   -8628.3963   -8575.9608   -2422.3291    18654.083    13.867503 
    6060     471.9122   -8628.9903   -8576.3478   -2531.0713    18649.602    13.870805 
    6070    459.74699   -8628.0171   -8576.7316   -1920.4547    18640.416    13.862742 
    6080    463.88309   -8628.8429    -8577.096   -1008.8368      18627.7    13.852332 
    6090    467.03372   -8629.5409   -8577.4426   -4.7751369     18613.22     13.84927 
    6100    472.89902   -8630.5391   -8577.7865    948.94563    18598.904    13.859567 
    6110    471.39781   -8630.7306   -8578.1454    1684.9163    18586.554     13.88417 
    6120    460.75147   -8629.9105    -8578.513    2134.4801    18577.535    13.921216 
    6130    455.16913   -8629.6428    -8578.868    2196.0059    18572.673    13.969486 
    6140    467.20075   -8631.3297   -8579.2127     1493.285    18571.941    14.028465 
    6150    464.15093   -8631.3372   -8579.5604    725.13442    18574.103    14.096007 
    6160    451.24101   -8630.2232   -8579.8866   -188.24532    18577.604    14.169172 
    6170    459.26618   -8631.4123   -8580.1805   -1067.2886    18580.714     14.24141 
    6180    468.04232   -8632.6767   -8580.4659    -1636.967    18581.784    14.305597 
    6190     467.2051   -8632.8815   -8580.7641   -1612.3227    18579.829    14.357401 
    6200    460.24176   -8632.4115   -8581.0709   -1573.7332    18574.813    14.395805 
    6210    457.94697   -8632.4617    -8581.377   -1422.9454    18566.875    14.419879 
    6220    465.81411   -8633.6493    -8581.687   -994.49494    18556.375    14.430045 
    6230    469.41986   -8634.3787   -8582.0142    64.909222    18544.235    14.431088 
    6240    455.16025   -8633.1123   -8582.3385    1622.6927    18532.507    14.429067 
    6250    440.45563    -8631.766   -8582.6325    2585.1532    18523.943    14.431869 
    6260    437.27156   -8631.6598   -8582.8815    2596.9297    18520.254    14.445506 
    6270    447.96187   -8633.0665   -8583.0956    2122.3934     18521.48    14.471971 
    6280    454.91545   -8634.0551   -8583.3086    1830.1486    18526.761    14.507455 
    6290    439.27417   -8632.5157    -8583.514    1991.0574    18535.569    14.545987 
    6300    448.55001   -8633.7404    -8583.704    1308.2266    18547.907    14.583424 
    6310    456.47408   -8634.7959   -8583.8755     414.6655    18562.573     14.61451 
    6320    461.12691   -8635.4867   -8584.0473   -112.00289    18577.938    14.634895 
    6330    471.39715   -8636.8255   -8584.2404   -608.09107    18592.917    14.648981 
    6340    466.80343   -8636.5434   -8584.4708   -1067.2355    18606.563    14.667272 
    6350    453.22884   -8635.2815   -8584.7231   -1500.8104     18618.01    14.694469 
    6360    442.66323   -8634.3483   -8584.9686   -1962.9765    18626.432    14.728202 
    6370    439.40055   -8634.2087   -8585.1929   -2265.4137    18631.012    14.761375 
    6380    442.33298   -8634.7421   -8585.3991   -2357.5899    18631.206    14.788102 
    6390    441.84462   -8634.8831   -8585.5946   -2264.6897    18626.881    14.809193 
    6400    443.81427   -8635.2915   -8585.7833   -2037.7887    18618.248    14.827968 
    6410    444.45185   -8635.5432   -8585.9639   -1107.5049    18605.927    14.850647 
    6420    449.78316   -8636.3101   -8586.1361    217.48431    18591.683    14.884169 
    6430    454.93226   -8637.0467   -8586.2983    1419.1181    18578.032    14.933663 
    6440    458.82431   -8637.6467   -8586.4642    1831.6334    18567.133     15.00048 
    6450    457.23825   -8637.6404   -8586.6348    2100.7355    18559.883    15.079733 
    6460    452.15953   -8637.2386   -8586.7995    2148.5688    18556.727     15.16915 
    6470    448.84387   -8637.0269   -8586.9577    1795.8943    18557.661    15.269992 
    6480      449.471    -8637.251   -8587.1118    1275.0041    18561.986    15.379516 
    6490    457.36491   -8638.2977    -8587.278    742.01761    18568.681    15.488901 
    6500    455.58995   -8638.2938   -8587.4721    563.12363    18576.758    15.591529 
    6510    446.25542   -8637.4694    -8587.689    881.66052    18585.892    15.691586 
    6520    446.41494   -8637.7142   -8587.9159    1011.4966    18596.527    15.797779 
    6530    440.13704   -8637.2278   -8588.1298    1156.9156    18608.969    15.912077 
    6540    445.33058   -8637.9906   -8588.3133    641.54796    18623.302    16.028086 
    6550    454.13027   -8639.1273   -8588.4683   -350.41219    18638.537    16.132473 
    6560    455.48674   -8639.4309   -8588.6207   -1276.3443    18652.877    16.214777 
    6570    458.82205   -8639.9791   -8588.7968   -2162.5666    18664.518    16.279433 
    6580     456.1041   -8639.8846   -8589.0055   -2437.8405    18671.896    16.338552 
    6590    448.66968   -8639.2905   -8589.2408    -2177.238    18674.527    16.395674 
    6600    446.12869   -8639.2505   -8589.4841    -1496.381    18672.985    16.443543 
    6610    440.51264    -8638.863   -8589.7231   -504.13391    18668.645    16.478406 
    6620     433.3673   -8638.2822   -8589.9395     421.4343    18663.404    16.502833 
    6630    437.09977   -8638.8874   -8590.1282    891.23809    18658.997    16.516608 
    6640    446.64567   -8640.1225   -8590.2985    1177.3992    18656.365    16.518128 
    6650    459.95064   -8641.7871   -8590.4789    1374.1284    18656.035    16.513412 
    6660    453.81301    -8641.311   -8590.6875    1576.4774    18658.375     16.50921 
    6670    441.13233   -8640.1237   -8590.9148    1917.1407    18663.767    16.504359 
    6680    446.07689   -8640.9058   -8591.1453    2038.4637    18672.748    16.498154 
    6690    457.89864   -8642.4734   -8591.3942    2029.2071    18685.524    16.492268 
    6700    445.00863   -8641.3083   -8591.6669      2236.91    18702.101    16.487352 
    6710     433.4334   -8640.2958   -8591.9456    2138.1727    18722.735    16.489419 
    6720    435.97843   -8640.8434   -8592.2093    1168.1151    18747.093    16.508081 
    6730    443.93149   -8641.9759   -8592.4547   -622.33343     18773.24    16.544406 
    6740    439.68828   -8641.7323   -8592.6844   -2207.0783    18797.842     16.59093 
    6750    441.43614   -8642.1678   -8592.9249   -3240.2864    18817.872    16.639666 
    6760    447.50862   -8643.1397   -8593.2195   -3997.5677    18831.276    16.686773 
    6770    439.30484   -8642.5995   -8593.5944   -4010.9364    18836.764    16.733394 
    6780    438.52245   -8642.9738   -8594.0559   -3553.3241     18834.38    16.783747 
    6790    437.88297   -8643.4399   -8594.5934   -3125.0053    18825.047    16.839548 
    6800    437.88775   -8644.0266   -8595.1796   -2642.1866    18809.748    16.894132 
    6810    446.41534   -8645.5825   -8595.7842    -2345.221    18789.469    16.940998 
    6820    451.97592   -8646.8007   -8596.3821   -1919.7085     18764.97    16.981199 
    6830    444.52187   -8646.5112   -8596.9241   -1047.0659    18737.219    17.016411 
    6840    445.17832   -8647.0244   -8597.3641    249.53411    18707.974     17.04798 
    6850    444.41457   -8647.2669   -8597.6918    1658.5693    18679.718    17.080555 
    6860    436.47049   -8646.6009   -8597.9119     3130.576    18655.202    17.122356 
    6870    434.98626   -8646.5661   -8598.0427    3983.9353     18637.07    17.181601 
    6880    457.80959   -8649.2064   -8598.1371    3800.4791    18626.714    17.258239 
    6890    458.44689   -8649.3828   -8598.2424    3710.7496     18623.86    17.348387 
    6900    434.88354   -8646.8606   -8598.3487    3726.6036    18628.213    17.447533 
    6910     443.0885   -8647.8668   -8598.4397    3047.3644    18639.537    17.550062 
    6920    446.70219    -8648.337   -8598.5067    2146.2675    18656.532    17.653508 
    6930    446.88616   -8648.4024   -8598.5516    830.39786    18677.359    17.754098 
    6940    454.26338   -8649.2469   -8598.5731   -857.73442    18699.429    17.843826 
    6950    451.13823   -8648.9097   -8598.5846   -2247.1595    18719.548    17.917295 
    6960    441.16209   -8647.7996   -8598.5873   -2961.7028    18735.114    17.977003 
    6970      446.433   -8648.3827   -8598.5824   -2870.8425    18744.839    18.030658 
    6980    448.36289   -8648.5906    -8598.575   -2226.9235    18748.916    18.085643 
    6990    448.11225   -8648.5546    -8598.567    -1455.238    18748.621    18.143225 
    7000    456.31531   -8649.4647   -8598.5621   -1117.6424    18745.423    18.197828 
    7010    460.31323    -8649.923   -8598.5744   -679.00182    18740.133    18.246195 
    7020    458.20427   -8649.7285   -8598.6151    47.371928    18733.628    18.293146 
    7030    441.60536   -8647.9282   -8598.6665    1077.2715    18727.363    18.346483 
    7040    440.40193   -8647.8284   -8598.7009    1890.6265    18723.254    18.408572 
    7050    450.21844   -8648.9419   -8598.7194    2257.2546    18722.813    18.480751 
    7060    446.85186   -8648.5884   -8598.7414     2131.232    18726.695    18.567825 
    7070    444.75875   -8648.3829   -8598.7694     1511.599    18734.604    18.669429 
    7080    446.37888   -8648.5893    -8598.795     716.4779    18745.335    18.781307 
    7090    452.32962   -8649.2797   -8598.8216    42.950122    18757.384    18.898839 
    7100    459.83806   -8650.1521   -8598.8565   -749.23217    18769.352    19.020676 
    7110    465.60315   -8650.8466   -8598.9079   -1084.4245    18779.809    19.146062 
    7120    461.34871   -8650.4395   -8598.9753   -1116.0059    18788.086    19.271514 
    7130    458.29673   -8650.1753   -8599.0516   -1453.4448    18794.021    19.390813 
    7140    458.23306   -8650.2597   -8599.1431   -1954.7016    18796.993    19.494934 
    7150    454.89186   -8650.0079   -8599.2641   -2364.8395    18796.126    19.579977 
    7160    460.41612   -8650.7929   -8599.4328   -2594.1323    18790.656    19.646641 
    7170    454.77081   -8650.3806   -8599.6502   -1906.4731    18780.338    19.694057 
    7180    445.96296   -8649.6457   -8599.8979    -500.8337    18766.546    19.720783 
    7190    447.57449   -8650.0852   -8600.1576    864.87047    18751.953    19.729647 
    7200    450.81059    -8650.723   -8600.4344    2064.4771    18739.232    19.732126 
    7210    449.93873   -8650.9317   -8600.7403    3024.9386    18730.671    19.744314 
    7220    440.84996   -8650.2409   -8601.0634    3166.0636    18727.961    19.776847 
    7230    443.06522    -8650.812   -8601.3874    2200.2871    18731.238    19.831012 
    7240    441.26078   -8650.9237   -8601.7004    1215.9654      18738.8    19.900016 
    7250    433.59268   -8650.3482   -8601.9803     55.76026    18748.627    19.976081 
    7260     445.9105   -8651.9715   -8602.2295   -1321.7895     18758.41    20.051503 
    7270     445.2566   -8652.1272   -8602.4582   -1947.0521    18765.663    20.115756 
    7280    438.76397   -8651.6127   -8602.6679   -2120.4868    18769.118    20.162631 
    7290    443.65138   -8652.3422   -8602.8522   -1956.5956    18768.452    20.191521 
    7300     453.7585   -8653.6439   -8603.0265   -1412.2987    18764.009    20.204541 
    7310    456.87782   -8654.1705    -8603.205   -663.06584    18756.879    20.209303 
    7320     463.3816    -8655.095   -8603.4041    28.764816    18748.483    20.214382 
    7330    446.09902   -8653.3698   -8603.6068     1014.282    18740.263     20.22229 
    7340    442.06054   -8653.1011   -8603.7886    1291.2178    18733.944     20.23297 
    7350    445.81349   -8653.6848   -8603.9536    1027.5655     18730.09    20.248573 
    7360    430.83075   -8652.1522   -8604.0924    769.37503    18728.243    20.268349 
    7370    435.83904   -8652.8135    -8604.195    524.83532    18727.907    20.282045 
    7380    443.25165    -8653.712   -8604.2667    351.25638    18728.603    20.281658 
    7390    444.44211   -8653.8951   -8604.3169    245.71445    18730.021    20.265723 
    7400    460.76334   -8655.7628    -8604.364   -339.48321    18731.812    20.237872 
    7410    464.78761   -8656.2739   -8604.4262   -567.30368    18733.003    20.203073 
    7420    476.28268   -8657.6567   -8604.5266   -853.56478    18733.054    20.166146 
    7430    485.59723   -8658.8619   -8604.6928   -1140.7954    18731.432      20.1332 
    7440    472.01681   -8657.5885   -8604.9343   -1127.4349    18727.641    20.109804 
    7450    457.84261   -8656.3018   -8605.2287   -947.90191    18721.673    20.097887 
    7460    447.76531   -8655.4803   -8605.5314   -503.13712    18713.932    20.096327 
    7470    461.54421   -8657.3184   -8605.8325   -274.53169     18705.19    20.102383 
    7480    469.30905    -8658.498   -8606.1458    88.845598    18695.981    20.113663 
    7490    466.28567   -8658.4891   -8606.4743    516.18839     18686.97    20.130245 
    7500    461.08862   -8658.2355   -8606.8003    730.05817    18678.922    20.150952 
    7510    457.46252   -8658.1292   -8607.0986    750.06374    18672.295    20.170663 
    7520    470.83583   -8659.8963   -8607.3739    164.07656    18667.028    20.186092 
    7530    475.32989     -8660.66   -8607.6362   -341.64326    18662.117    20.198044 
    7540    471.44846   -8660.4721   -8607.8813   -661.92461    18656.553     20.20794 
    7550    471.74284   -8660.7274   -8608.1038   -974.94837    18649.701    20.214321 
    7560    468.82426   -8660.6103   -8608.3122    -1134.565    18640.989    20.213294 
    7570    460.84287   -8659.9148   -8608.5071   -1152.6417    18630.103    20.200355 
    7580    456.95977   -8659.6624   -8608.6879   -844.59254     18617.06     20.17481 
    7590    455.05031   -8659.6115     -8608.85   -70.525167      18602.5    20.142053 
    7600     456.4338   -8659.9155   -8608.9996    534.22223    18587.784    20.107207 
    7610     460.7298   -8660.5392   -8609.1441    1076.3408     18574.11    20.073481 
    7620    470.04296   -8661.7391   -8609.3051    1613.0123    18562.495    20.042505 
    7630    463.18675   -8661.1633   -8609.4941    2318.9777    18554.049    20.014131 
    7640    460.84997   -8661.1172   -8609.7087    2251.9127    18549.926    19.990052 
    7650    465.59869   -8661.8941   -8609.9558    1538.8036    18550.005    19.975554 
    7660    460.58536   -8661.6089   -8610.2299    935.02856    18553.074    19.979029 
    7670    461.50158   -8662.0096   -8610.5284    361.44434    18557.961    20.006057 
    7680    455.05881   -8661.6028   -8610.8403   -180.17925    18563.568    20.051051 
    7690     451.4867   -8661.5119   -8611.1479   -844.41333    18568.813    20.098267 
    7700    462.53515   -8663.0418   -8611.4453   -1733.4776    18572.389     20.13362 
    7710    482.18569   -8665.5528   -8611.7642    -2709.765    18572.614    20.151099 
    7720    488.32857     -8666.62   -8612.1462   -3218.9214    18567.707    20.148059 
    7730    477.55875   -8665.8736   -8612.6012   -3197.9181     18556.68    20.122788 
    7740     463.4143   -8664.7754   -8613.0808   -2893.5197    18539.577    20.073754 
    7750    474.32696    -8666.481   -8613.5691   -2444.7542    18516.964     20.00063 
    7760    480.52171    -8667.661   -8614.0581   -1669.8071    18489.778    19.908965 
    7770    483.16488   -8668.4382   -8614.5404   -767.68644    18459.533    19.808953 
    7780    478.51882   -8668.3852   -8615.0057    96.322411     18427.95    19.711598 
    7790    471.78995   -8668.0652   -8615.4363    1022.3572    18396.752    19.623692 
    7800    476.18826   -8668.9505   -8615.8309    1962.5358    18367.723    19.546503 
    7810    479.39041   -8669.6825   -8616.2058    3241.8812    18342.657    19.480917 
    7820    474.20983   -8669.4676   -8616.5688    4533.3473    18323.846      19.4344 
    7830    479.28104   -8670.4137   -8616.9492    5252.8087    18313.566    19.420886 
    7840    484.87652   -8671.4751   -8617.3864    4731.8444    18312.959    19.449648 
    7850    473.87519   -8670.7241   -8617.8626    3437.3002    18321.083    19.515816 
    7860    468.82034   -8670.6336    -8618.336    2115.2244    18335.602    19.607628 
    7870    465.24878   -8670.6769   -8618.7777    924.66276    18354.035    19.711203 
    7880    469.07236   -8671.5121   -8619.1864   -370.24637    18374.092    19.807648 
    7890    473.72142   -8672.4162   -8619.5718   -1615.3461    18393.374    19.883916 
    7900    474.66778   -8672.9177   -8619.9678   -2600.2336    18409.541    19.942092 
    7910     457.1147   -8671.3568    -8620.365   -2784.4645    18420.886    19.991993 
    7920    457.34335   -8671.7635   -8620.7462   -2982.4451    18426.896    20.038901 
    7930    457.64202   -8672.1618   -8621.1111   -2689.0559    18427.344    20.076769 
    7940    454.01642   -8672.1109   -8621.4647   -2057.3426    18422.779    20.099206 
    7950    456.76092   -8672.7592   -8621.8069   -1891.9881    18414.291    20.104629 
    7960    460.51449    -8673.519   -8622.1479   -1728.7624    18402.258    20.091209 
    7970     467.4381   -8674.6336   -8622.4902   -1094.3311    18387.127    20.063387 
    7980    479.91499   -8676.3926   -8622.8574   -619.78468    18370.004    20.031293 
    7990    477.45801   -8676.5215   -8623.2604    345.84236    18351.921    20.002349 
    8000    467.19821   -8675.7907    -8623.674    1887.9091    18334.697    19.982795 
    8010    462.33519   -8675.6468   -8624.0726    3358.3833    18321.102    19.979163 
    8020     465.7632    -8676.423   -8624.4664    3983.1414    18313.722    19.994353 
    8030    463.52045    -8676.577   -8624.8706    4029.4105    18313.735    20.021444 
    8040    467.49695     -8677.44   -8625.2901    3587.7225    18321.181    20.046416 
    8050    470.96524   -8678.2712   -8625.7343    2781.5223    18335.267     20.06284 
    8060    463.12116   -8677.8445   -8626.1826    1557.4925    18354.464    20.076435 
    8070    474.98243    -8679.602    -8626.617   -432.54277    18376.397    20.092406 
    8080    482.91008   -8680.9171   -8627.0478   -2674.6549    18397.385    20.108318 
    8090     464.2313   -8679.2641   -8627.4784    -3854.573    18413.447    20.111445 
    8100    459.93165   -8679.2044   -8627.8984   -4582.4665    18422.206    20.090573 
    8110     466.6287   -8680.3797   -8628.3265   -4402.9432    18422.415    20.044552 
    8120    459.01088   -8679.9568   -8628.7534   -3123.8932    18414.536     19.97741 
    8130    459.04405   -8680.3614   -8629.1544   -1818.0006    18400.823    19.895316 
    8140    455.58731   -8680.3367   -8629.5153   -840.94011    18383.756    19.808504 
    8150    455.49529   -8680.6559   -8629.8448   -459.09225    18365.144    19.730169 
    8160    464.04045   -8681.9224    -8630.158    119.61137    18345.887    19.669356 
    8170    467.18029   -8682.5811   -8630.4664    1204.2735    18327.129    19.629073 
    8180    470.48366   -8683.2593   -8630.7761    2100.2577    18310.772    19.610004 
    8190    471.97159   -8683.7602   -8631.1111    2462.8351    18298.404     19.61264 
    8200     451.5146   -8681.8275   -8631.4603    2933.8912    18290.767     19.63749 
    8210    450.28253   -8682.0395   -8631.8098    2848.5785    18288.553    19.683977 
    8220    472.89914   -8684.9359   -8632.1832    2030.5962    18291.541    19.748182 
    8230    488.36576   -8687.0824   -8632.6045    1348.3852    18298.307    19.824224 
    8240    494.94003   -8688.2872   -8633.0759    673.89221    18307.544    19.902264 
    8250    488.17459   -8688.0405   -8633.5839    -515.4272     18317.91    19.971927 
    8260    478.27628   -8687.4515   -8634.0991   -1705.5465    18327.242    20.027019 
    8270    481.93982   -8688.3683   -8634.6072   -2556.9644    18333.342    20.065185 
    8280    494.22401   -8690.2677   -8635.1363   -2728.6847    18334.734    20.087285 
    8290    477.99775    -8689.003   -8635.6816   -2052.2017     18331.16    20.099152 
    8300     460.0831    -8687.499   -8636.1761   -1366.3297    18323.773    20.105603 
    8310    471.39439   -8689.2134   -8636.6287   -1147.2065    18313.804    20.109017 
    8320    469.63773   -8689.4517   -8637.0629   -640.69549    18301.849    20.108418 
    8330    469.17501   -8689.8257   -8637.4885    270.32524     18288.88    20.104733 
    8340    477.77236   -8691.2144   -8637.9182    1343.3056    18276.525    20.104139 
    8350    487.01608   -8692.7029   -8638.3755    2305.1671    18266.746    20.112735 
    8360    479.85668   -8692.4048   -8638.8761    2809.5364     18261.25    20.137274 
    8370    465.07333   -8691.2712   -8639.3916    2975.9947     18260.97    20.181143 
    8380    467.52671   -8692.0454   -8639.8921    2242.2951    18266.076    20.238994 
    8390    477.09653   -8693.6019   -8640.3811    704.61152    18275.189    20.302528 
    8400     467.9643   -8693.0553   -8640.8532   -875.03926    18285.554    20.366357 
    8410    461.03667   -8692.7175   -8641.2882   -2133.3129    18294.267    20.426901 
    8420    471.75406    -8694.329   -8641.7041    -2730.348    18299.047    20.481432 
    8430     477.2056   -8695.3677   -8642.1347    -2458.637    18298.852    20.527471 
    8440    470.62019   -8695.0636   -8642.5652    -1902.462    18294.145    20.564115 
    8450    484.29911   -8697.0387   -8643.0144   -2112.7212    18285.792    20.591432 
    8460    480.82357    -8697.146   -8643.5094    -1851.748    18273.713    20.609842 
    8470    471.22737   -8696.5838   -8644.0177   -988.42125    18258.451    20.620136 
[...]
   22890    434.53819   -8793.3645   -8744.8911   -1369.6468    17512.945    24.287332 
   22900    444.14512    -8794.579   -8745.0339   -1216.6214    17510.056    24.267245 
   22910    447.26413   -8795.0575   -8745.1645   -949.94348    17505.081    24.248996 
   22920    433.24795   -8793.6101   -8745.2807   -152.58112    17498.538    24.239965 
   22930    439.65084   -8794.4245   -8745.3808    768.69218    17491.705    24.249327 
   22940    439.33962   -8794.4734   -8745.4644    2037.8058    17486.207    24.283545 
   22950    448.50551    -8795.573   -8745.5415    2905.8537    17484.091     24.34621 
   22960    461.14036   -8797.0715   -8745.6306    3323.1984    17486.875    24.432396 
   22970    453.00314    -8796.269   -8745.7358    3136.6167     17495.29    24.533994 
   22980     453.8369   -8796.4728   -8745.8466     2066.504    17509.037    24.649061 
   22990    455.57444   -8796.7709   -8745.9509    1104.8784    17526.466    24.768664 
   23000    444.99389   -8795.6977   -8746.0579    796.60289    17546.059    24.877186 
   23010    437.49533   -8794.9582    -8746.155    209.01389    17567.142    24.969461 
   23020    462.88554   -8797.8761   -8746.2406   -1335.6936    17588.604    25.049757 
   23030    471.12581   -8798.9043   -8746.3495   -2701.4856    17607.939    25.118792 
   23040     444.8533   -8796.1314   -8746.5073   -2990.9391    17622.884      25.1713 
   23050    451.31248   -8797.0621   -8746.7176   -3435.1143    17632.638    25.203632 
   23060    451.80478   -8797.3956   -8746.9961   -3227.8399    17636.542    25.214605 
   23070    434.61735   -8795.8171   -8747.3349   -2147.5313    17634.985    25.206215 
   23080    434.43917   -8796.1649   -8747.7026   -1585.1177      17629.6    25.182197 
   23090    444.19469   -8797.6495    -8748.099   -1395.1629    17621.358    25.143352 
   23100    441.77292   -8797.8014   -8748.5209   -986.86034    17610.722    25.088434 
   23110    435.83909   -8797.5662   -8748.9477   -737.85226    17598.288    25.013793 
   23120    438.73723   -8798.2955   -8749.3537   -20.429275    17584.611    24.918868 
   23130    444.57085   -8799.3346   -8749.7421    518.88402    17570.781    24.813146 
   23140     425.1266   -8797.5028   -8750.0793    962.53359    17557.772    24.711673 
   23150     429.6397   -8798.2777   -8750.3508    991.56246    17546.294    24.628057 
   23160      432.901   -8798.8608   -8750.5701    1244.8234    17536.496    24.566901 
   23170    418.83642   -8797.4563   -8750.7344    1637.0147    17528.808    24.523512 
   23180    425.64902   -8798.3172   -8750.8354    1575.5837    17523.836     24.48906 
   23190    438.14338   -8799.7543   -8750.8787    1082.4125    17521.494    24.458421 
   23200     449.5409   -8801.0429    -8750.896    660.00956    17521.019    24.430555 
   23210    442.05383   -8800.2148    -8750.903    799.51853    17521.798    24.404082 
   23220    431.39106   -8799.0165   -8750.8942    354.26278     17523.86    24.380705 
   23230    433.80263   -8799.2394   -8750.8481    -788.1739    17526.438    24.364716 
   23240    438.50455   -8799.6784   -8750.7626   -1441.1317    17527.748    24.360534 
   23250    431.74542   -8798.8058    -8750.644   -1157.2579    17526.716    24.366954 
   23260    430.16538   -8798.4793   -8750.4937   -714.40309     17523.69    24.375467 
   23270    426.34776   -8797.8691   -8750.3094    37.663846    17519.469    24.378668 
   23280    426.59843   -8797.6842   -8750.0965    1167.0919    17515.356    24.371421 
   23290    423.30321   -8797.0758   -8749.8557    1876.4536    17513.185    24.358521 
   23300    416.24778   -8796.0233   -8749.5902    1832.3172    17514.119    24.355061 
   23310    430.78755   -8797.3532   -8749.2982    1008.1181    17518.085    24.369611 
   23320     452.8049   -8799.5076   -8748.9965   -123.64982    17523.747    24.399434 
   23330    449.53005   -8798.8774   -8748.7316   -776.56453     17529.31    24.437038 
   23340    440.58206   -8797.6652   -8748.5176   -776.46492    17533.689    24.470105 
   23350    439.13204   -8797.3145   -8748.3287   -298.42271    17536.828    24.490758 
   23360    452.25038   -8798.6099   -8748.1607    133.37042    17539.456    24.501803 
   23370    448.44994   -8798.0532   -8748.0279    657.12026    17542.344    24.513786 
   23380    436.05759   -8796.5732   -8747.9303    1299.6606    17546.422    24.540974 
   23390    445.28494   -8797.5201   -8747.8478    1200.8858    17552.689    24.591008 
   23400     455.3554   -8798.5636    -8747.768    385.61712    17560.989    24.661928 
   23410    459.39554   -8798.9391   -8747.6929   -316.86423    17570.049    24.743612 
   23420    449.28997   -8797.7436   -8747.6246   -105.92193    17578.786    24.826113 
   23430     440.8608   -8796.7366   -8747.5579    111.07446    17587.394    24.908565 
   23440    452.22747   -8797.9165   -8747.4698   -247.79576    17596.197    24.991413 
   23450    455.51662    -8798.188   -8747.3745   -611.82217    17604.655    25.070165 
   23460     436.2382   -8795.9498   -8747.2868   -681.95609    17612.177    25.140325 
   23470    445.95909   -8796.9462   -8747.1988   -1519.2344    17618.416    25.197204 
   23480     457.9576   -8798.2034   -8747.1175   -2093.2725    17622.097    25.237026 
   23490    449.91527   -8797.2502   -8747.0614   -1510.5744    17622.342    25.260356 
   23500    453.04991   -8797.5548   -8747.0164   -655.15522    17619.956    25.270668 
   23510    445.45546   -8796.6511   -8746.9599    243.19477    17616.438    25.269093 
   23520    442.86785   -8796.2882   -8746.8856    360.77234    17613.186    25.251874 
   23530    457.39433   -8797.8184   -8746.7954    255.07254    17610.501    25.214337 
   23540    455.92074   -8797.5685   -8746.7099    589.65469    17608.293    25.161759 
   23550      440.316   -8795.7422   -8746.6243    1618.6296     17607.23     25.10897 
   23560    437.72477   -8795.3427   -8746.5139    2127.0125    17608.863    25.068001 
   23570    445.24204   -8796.0401   -8746.3726      1808.34    17614.074    25.043128 
   23580     459.4515   -8797.4677   -8746.2152    442.91655    17622.306    25.037133 
   23590    459.44219   -8797.3104   -8746.0589   -1306.4904    17631.312    25.044658 
   23600    456.46822   -8796.8408   -8745.9211   -2522.0309    17638.191    25.049721 
   23610    448.72319   -8795.8535   -8745.7978   -2831.0304    17640.857    25.041219 
   23620    438.99656    -8794.645   -8745.6743   -2583.8855    17638.679    25.025666 
   23630    443.36161   -8794.9905   -8745.5328   -1982.3176    17632.061    25.018871 
   23640    450.90534    -8795.663   -8745.3638   -1365.5851    17621.951    25.030223 
   23650    453.97674   -8795.8066   -8745.1648   -519.64859     17609.46    25.054966 
   23660    459.40419   -8796.1798   -8744.9326    628.34069    17596.037     25.08282 
   23670    465.46157   -8796.6041   -8744.6812    1930.7278     17583.65    25.109563 
   23680    456.58555   -8795.3659   -8744.4331    3189.6427    17574.556    25.142759 
   23690    456.24555   -8795.0888    -8744.194     3312.191    17570.741    25.188862 
   23700    469.08347   -8796.2837   -8743.9568    2657.7512    17572.541     25.24135 
   23710    456.59425   -8794.6662   -8743.7324    1881.4551    17578.941    25.290455 
   23720     440.1327   -8792.6161   -8743.5186    816.55891    17588.601    25.330171 
   23730    449.52886    -8793.426   -8743.2804   -474.66606    17599.731    25.355383 
   23740    460.32865   -8794.3558   -8743.0054   -1545.3181    17610.163     25.36596 
   23750    470.73258   -8795.2351   -8742.7242    -2328.778    17618.025    25.370161 
   23760    472.28275   -8795.1544   -8742.4706   -2376.6508    17621.983    25.368817 
   23770    457.18231   -8793.2624    -8742.263   -1488.5377    17621.977    25.351459 
   23780    441.09604   -8791.2755   -8742.0706   -701.83289    17619.397    25.306734 
   23790    465.42237   -8793.7775    -8741.859   -740.68132    17615.461    25.230805 
   23800    483.54522   -8795.5776   -8741.6374   -708.33418     17610.23    25.132005 
   23810    472.10395   -8794.1076   -8741.4437   -80.186631    17603.843    25.028458 
   23820    466.92428   -8793.3531    -8741.267    209.68417    17597.214    24.937382 
   23830    468.06515   -8793.3178   -8741.1044    284.46621    17590.882     24.86686 
   23840    470.51578   -8793.4649   -8740.9782    503.72372    17585.005    24.820812 
   23850     468.8682   -8793.2143   -8740.9113    1416.3204     17580.09    24.799743 
   23860    461.27628   -8792.3648   -8740.9088    1904.6427    17577.543    24.801934 
   23870    461.59446   -8792.4668   -8740.9752    1390.9671    17578.116    24.837055 
   23880     452.9912   -8791.6243   -8741.0925    782.27954    17581.108    24.916571 
   23890    458.97275   -8792.4306   -8741.2315    186.73946    17585.486    25.037062 
   23900    459.09172    -8792.579   -8741.3666   -697.78429    17590.142    25.180224 
   23910     466.1711   -8793.5109   -8741.5088   -1496.2518    17593.625    25.318938 
   23920    485.48898   -8795.8674   -8741.7104   -2191.9033    17594.551    25.430188 
   23930     487.7932   -8796.4545   -8742.0405   -2558.8624    17591.737    25.504223 
   23940    473.39675   -8795.3296   -8742.5215   -1964.1275    17584.622    25.541569 
   23950    451.32895   -8793.4294    -8743.083   -605.85295    17574.188     25.54811 
   23960    449.71414    -8793.804   -8743.6377    479.17097    17562.642    25.526121 
   23970    477.06571     -8797.41   -8744.1926    667.33089    17551.743     25.47675 
   23980    478.13927   -8798.0949   -8744.7578    809.64747    17541.926    25.404125 
   23990    443.45243   -8794.7291   -8745.2613    2260.9228     17533.68    25.317572 
   24000    425.95277    -8793.147   -8745.6314    3587.8394    17529.275    25.235239 
   24010    451.51032   -8796.2782   -8745.9115    3242.4945    17530.753    25.172244 
   24020    462.89381   -8797.8013   -8746.1648    2469.0017    17537.789    25.133139 
   24030    453.30832   -8796.9789   -8746.4116    1611.8053    17549.118    25.116425 
   24040    453.91334   -8797.2741   -8746.6394    209.90386    17563.185    25.115148 
   24050    449.81691   -8797.0134   -8746.8356   -826.02123    17577.788    25.117057 
   24060    441.09513    -8796.201   -8746.9962   -1709.6517    17591.046    25.112699 
   24070    439.52978   -8796.1477   -8747.1175   -2812.5726    17601.366     25.09909 
   24080    440.44816    -8796.343   -8747.2103   -3692.6122    17606.908    25.074852 
   24090    438.40962   -8796.1946   -8747.2894   -3523.8869    17606.224    25.037618 
   24100    446.35567   -8797.1577    -8747.366   -2679.8423    17599.508    24.988972 
   24110    450.71018   -8797.7136   -8747.4362   -1404.0488    17588.206    24.934094 
   24120    459.52218   -8798.7742   -8747.5138   -387.12558    17574.383    24.877096 
   24130    456.65712    -8798.548   -8747.6072    214.25643    17559.777    24.817861 
   24140    459.06994   -8798.9288   -8747.7189    321.95904    17545.425     24.75519 
   24150    455.54819   -8798.6644   -8747.8473    265.40949    17531.566    24.691671 
   24160    440.39414   -8797.0994   -8747.9728    200.57685    17518.121    24.632924 
   24170    450.00582   -8798.2861   -8748.0873    190.19398    17504.991    24.578965 
   24180     446.3954   -8797.9908   -8748.1947    1300.2602    17492.331    24.526161 
   24190    424.22046   -8795.5874   -8748.2649    3001.9843    17481.962    24.476395 
   24200    458.33839   -8799.4423   -8748.3139    3437.7684    17476.499    24.439963 
   24210    467.52505   -8800.5466   -8748.3935    3690.9617    17476.865    24.425354 
   24220    439.45773   -8797.5464   -8748.5242    3956.0745    17483.552    24.437202 
   24230    445.28352   -8798.3501    -8748.678    2585.2214    17496.764    24.477851 
   24240    440.56558    -8797.957   -8748.8113    777.25299    17514.448    24.540583 
   24250    433.67312   -8797.2776   -8748.9007   -1272.4967    17533.535    24.610027 
   24260    433.48782    -8797.288   -8748.9318     -3328.73    17550.521    24.673536 
   24270    439.71412   -8797.9692   -8748.9184   -4992.7179    17561.904    24.724174 
   24280    455.18425   -8799.6872   -8748.9108   -5848.3848    17564.821    24.754446 
   24290    441.84385   -8798.2262   -8748.9378   -4489.4153    17558.014    24.762313 
   24300    436.53385   -8797.6578   -8748.9618   -2321.4362    17543.554     24.75473 
   24310    449.33938   -8799.0752   -8748.9507   -579.68179    17524.977    24.730768 
   24320    438.16472   -8797.7827   -8748.9047    1099.3033    17505.358    24.681424 
   24330    432.55219   -8797.0705   -8748.8186    1964.8713    17487.444     24.60528 
   24340    446.65564   -8798.5104   -8748.6853    2171.7417    17472.737    24.517484 
   24350    453.53487   -8799.1141   -8748.5216    2281.9191     17461.68     24.44071 
   24360    453.91345   -8798.9865   -8748.3518    2953.1198    17454.593    24.389534 
   24370     446.5867   -8797.9953   -8748.1779    3413.3915    17452.463    24.369081 
   24380    436.40199   -8796.6723    -8747.991    3374.2753     17456.09    24.378268 
   24390    436.18992   -8796.4218   -8747.7642    2467.8971    17465.371    24.413708 
   24400    458.15233   -8798.5952   -8747.4877    1215.8054    17478.859    24.471945 
   24410    452.08154   -8797.6179   -8747.1875    906.88215    17494.682    24.546625 
   24420    437.16829   -8795.6526   -8746.8859     567.0528    17512.184    24.634191 
   24430    452.66423   -8797.0389   -8746.5435   -849.28253    17530.621    24.732662 
   24440    450.47888   -8796.4112   -8746.1596   -2229.6731    17547.725    24.836515 
   24450    426.69242   -8793.3686   -8745.7704   -3093.0131    17561.194     24.93656 
   24460    438.24844   -8794.2554   -8745.3681   -4365.3542    17569.338    25.020909 
   24470    458.45157   -8796.1046   -8744.9636   -5195.5433    17570.059    25.078274 
   24480    450.83775   -8794.9166    -8744.625   -4642.1952    17562.019    25.106961 
   24490    451.43704   -8794.7129   -8744.3544   -3113.9137    17546.083    25.117094 
   24500    470.68677   -8796.6242   -8744.1184   -1146.6969    17524.761    25.120989 
   24510    464.21092   -8795.6893   -8743.9059    1517.5598    17501.513    25.125986 
   24520    455.60631   -8794.5392   -8743.7157    3431.8269    17480.644    25.128478 
   24530    464.03119    -8795.324   -8743.5607    4305.8889    17465.408    25.120705 
   24540    455.79869   -8794.3081   -8743.4631    4637.0324    17457.392    25.105696 
   24550     450.6948    -8793.695   -8743.4193     4658.491    17457.232    25.091942 
   24560    465.31583    -8795.327   -8743.4203    3784.7148    17464.885    25.078163 
   24570    472.35185   -8796.1606    -8743.469    2248.0532    17478.958    25.055206 
   24580    464.93077   -8795.4207    -8743.557    550.43701     17496.95    25.022335 
   24590    449.53959   -8793.8004   -8743.6536   -668.31056    17516.089    24.986626 
   24600    453.95928     -8794.37   -8743.7301   -2217.2407    17534.134    24.947796 
   24610    483.51489   -8797.7433   -8743.8065   -3646.9956    17548.471    24.894297 
   24620    479.03426   -8797.3728   -8743.9358   -3490.6158    17556.871    24.816922 
   24630    463.26051   -8795.7986   -8744.1212   -2850.2103     17559.37    24.718973 
   24640    463.74121   -8796.0681    -8744.337   -2285.1175    17556.933     24.60908 
   24650    444.45114   -8794.1317   -8744.5525   -1311.0861    17550.654    24.497013 
   24660    458.81483   -8795.9459   -8744.7644   -1282.7209    17541.969    24.391934 
   24670    473.79594   -8797.8662   -8745.0135   -1659.9322    17530.998    24.300872 
   24680    457.76945   -8796.3581   -8745.2932   -1089.1839     17517.34     24.22715 
   24690    474.09789   -8798.4912   -8745.6049   -606.79671     17501.74    24.175067 
   24700    466.90925   -8798.0287   -8745.9442    841.92121     17485.22     24.14778 
   24710    449.22734    -8796.366    -8746.254    2540.5353    17470.158     24.13773 
   24720    466.29475   -8798.5464   -8746.5305    2684.1859     17459.15    24.136981 
   24730    472.60801   -8799.5272   -8746.8071    2220.7578    17452.626    24.142384 
   24740    461.36989   -8798.5559   -8747.0894    1374.7779    17449.829    24.147967 
   24750    439.43138   -8796.3615   -8747.3423    551.27533    17449.382    24.147378 
   24760     430.0256    -8795.508   -8747.5379   -25.804736    17449.911    24.143824 
   24770     434.9287   -8796.1857   -8747.6688   -233.58513    17450.495     24.14611 
   24780    445.19618   -8797.4107   -8747.7484   -379.85871    17450.703    24.157914 
   24790    443.53382   -8797.2694   -8747.7925   -147.31478    17450.314    24.175238 
   24800     438.4431   -8796.7128   -8747.8038    88.887276    17449.703    24.196464 
   24810     440.7581   -8796.9562    -8747.789   -344.13505    17449.136    24.219305 
   24820    437.96372   -8796.6092   -8747.7537   -925.94589     17447.96    24.233732 
   24830    449.07706   -8797.8119   -8747.7167     -1569.78    17445.183    24.229871 
   24840    458.59995   -8798.8511   -8747.6935   -1298.7775    17439.875    24.210644 
   24850    454.46573   -8798.3908   -8747.6945   -115.06083    17432.485    24.187162 
   24860    450.71021   -8797.9859   -8747.7085    998.00064    17424.866    24.165181 
   24870    446.46196   -8797.5179   -8747.7143    2018.9118    17418.881    24.140945 
   24880    445.70581   -8797.4186   -8747.6994    3001.7626    17416.271    24.114236 
   24890    459.42744   -8798.9423   -8747.6925    3449.2376    17418.663    24.095202 
   24900    447.06829    -8797.574   -8747.7029    3079.8853    17426.832    24.098269 
   24910    458.07491   -8798.8207   -8747.7218    1229.9689    17440.047    24.129675 
   24920    468.33885   -8799.9797   -8747.7358   -719.97122    17455.444    24.183303 
   24930    456.28366   -8798.6673   -8747.7681   -1672.8221    17469.847    24.248541 
   24940    440.29295   -8796.9185   -8747.8032   -1684.6064    17481.586    24.314077 
   24950    436.55604   -8796.5138   -8747.8153   -1445.3138    17490.521    24.369629 
   24960    438.50596   -8796.7159   -8747.7999   -1551.6348    17496.973    24.403485 
   24970    456.54801   -8798.7105   -8747.7819   -2077.1292    17500.719    24.408734 
   24980    459.78108    -8799.073   -8747.7837   -2080.6313    17500.984    24.393043 
   24990    448.09011   -8797.7978   -8747.8126   -967.49985    17497.863    24.371452 
   25000    434.15326   -8796.2706   -8747.8401    132.96293    17493.054    24.353013 
Loop time of 12893.4 on 16 procs for 20000 steps with 864 atoms

Performance: 0.134 ns/day, 179.074 hours/ns, 1.551 timesteps/s
95.9% CPU use with 16 MPI tasks x 1 OpenMP threads

MPI task timing breakdown:
Section |  min time  |  avg time  |  max time  |%varavg| %total
---------------------------------------------------------------
Pair    | 3482.2     | 7433.7     | 12623      |3833.2 | 57.66
Bond    | 0.0013816  | 0.0033199  | 0.0087905  |   3.0 |  0.00
Neigh   | 0.17226    | 0.35598    | 0.61532    |  28.2 |  0.00
Comm    | 77.034     | 4043.6     | 8377.2     |4305.6 | 31.36
Output  | 1.2873     | 1.315      | 1.7145     |   9.0 |  0.01
Modify  | 191.46     | 1414.3     | 6239.7     |5290.6 | 10.97
Other   |            | 0.09244    |            |       |  0.00

Nlocal:        54.0000 ave          86 max          33 min
Histogram: 5 2 1 2 0 1 0 1 1 3
Nghost:        538.000 ave         695 max         337 min
Histogram: 2 0 3 1 0 3 1 0 3 3
Neighs:         0.00000 ave           0 max           0 min
Histogram: 16 0 0 0 0 0 0 0 0 0
FullNghs:      2891.75 ave        5695 max        1007 min
Histogram: 6 1 1 2 0 0 1 1 0 4

Total # of neighbors = 46268
Ave neighs/atom = 53.550926
Ave special neighs/atom = 0.0000000
Neighbor list builds = 2000
Dangerous builds = 2000
unfix   3
                
Total wall time: 4:28:37
