LAMMPS (29 Sep 2021 - Update 3)
OMP_NUM_THREADS environment is not set. Defaulting to 1 thread. (src/comm.cpp:98)
  using 1 OpenMP thread(s) per MPI task
Reading data file ...
  orthogonal box = (0.0000000 0.0000000 0.0000000) to (15.969932 15.719106 81.083077)
  2 by 1 by 8 MPI processor grid
  reading atoms ...
  864 atoms
Finding 1-2 1-3 1-4 neighbors ...
  special bond factors lj:    0        0        0       
  special bond factors coul:  0        0        0       
     0 = max # of 1-2 neighbors
     0 = max # of 1-3 neighbors
     0 = max # of 1-4 neighbors
     1 = max # of special neighbors
  special bonds CPU = 0.001 seconds
  read_data CPU = 0.026 seconds
Neighbor list info ...
  update every 1 steps, delay 10 steps, check yes
  max neighbors/atom: 2000, page size: 100000
  master list distance cutoff = 6.22
  ghost atom cutoff = 6.22
  binsize = 3.11, bins = 6 6 27
  1 neighbor lists, perpetual/occasional/extra = 1 0 0
  (1) pair quip, perpetual
      attributes: full, newton on
      pair build: full/bin
      stencil: full/bin/3d
      bin: standard
Setting up Verlet run ...
  Unit style    : metal
  Current step  : 0
  Time step     : 0.001
Per MPI rank memory allocation (min/avg/max) = 8.888 | 8.903 | 8.913 Mbytes
Step Temp PotEng TotEng Press Volume c_msd[4] 
       0            0   -6930.8241   -6930.8241   -4495.9065    20354.533            0 
      10    65.904237   -6938.1841   -6930.8324   -5379.5912    20354.533 0.0005000384 
      20    168.73131   -6949.6632    -6930.841   -6364.5261    20354.533 0.0061479459 
      30    200.57733   -6953.2127    -6930.838   -5696.6671    20354.533  0.020662009 
      40    199.55606   -6953.0935   -6930.8327   -4580.1506    20354.533   0.03833664 
      50    226.88579   -6956.1474   -6930.8379   -4419.7801    20354.533  0.051806208 
      60    238.47957   -6957.4392   -6930.8365   -4645.7272    20354.533  0.061424452 
      70    236.06355   -6957.1692   -6930.8359    -4807.043    20354.533  0.069853138 
      80    232.99362   -6956.8259   -6930.8351    -5036.908    20354.533  0.079308594 
      90    234.23747   -6956.9654   -6930.8358   -5260.6038    20354.533  0.090830495 
     100    232.00556   -6956.7159   -6930.8353   -5208.0306    20354.533   0.10432197 
     110    232.79067   -6956.8033   -6930.8352   -5031.3164    20354.533   0.11840709 
     120    238.30149    -6957.419   -6930.8361   -4942.2097    20354.533   0.13201584 
     130    238.74514   -6957.4687   -6930.8363   -4988.8033    20354.533   0.14538478 
     140    232.54984   -6956.7771   -6930.8358   -4942.4536    20354.533   0.15867927 
     150    225.40044   -6955.9792   -6930.8355   -4787.8719    20354.533   0.17110203 
     160    224.38726   -6955.8659   -6930.8352   -4620.0724    20354.533    0.1817825 
     170    231.86358   -6956.7009   -6930.8362   -4442.3359    20354.533   0.19072597 
     180    237.58036   -6957.3391   -6930.8366   -4192.2572    20354.533   0.19889867 
     190    235.69365   -6957.1279    -6930.836   -3927.7806    20354.533   0.20710191 
     200    234.44619   -6956.9885   -6930.8356   -3773.8119    20354.533   0.21513007 
     210    236.73114   -6957.2437    -6930.836   -3777.5502    20354.533   0.22305549 
     220    238.14425   -6957.4012   -6930.8359   -3899.9101    20354.533    0.2315521 
     230     238.4388   -6957.4341   -6930.8359   -4006.5782    20354.533   0.24098695 
     240    239.23886    -6957.523   -6930.8356   -3984.7528    20354.533   0.25141959 
     250     242.0724   -6957.8401   -6930.8366   -3793.3442    20354.533   0.26265129 
     260       239.05   -6957.5024    -6930.836   -3540.3897    20354.533   0.27417391 
     270    235.84511    -6957.145   -6930.8361   -3272.6541    20354.533   0.28493922 
     280    231.62838   -6956.6748   -6930.8363   -2948.2435    20354.533   0.29437431 
     290    226.51317   -6956.1028    -6930.835   -2633.8875    20354.533   0.30220439 
     300    232.88912   -6956.8151    -6930.836   -2478.1682    20354.533   0.30835486 
     310    239.65399   -6957.5709   -6930.8371   -2317.7128    20354.533   0.31386348 
     320    236.98534   -6957.2718   -6930.8357   -2020.1819    20354.533   0.31985126 
     330    235.73864   -6957.1329   -6930.8359   -1957.4113    20354.533   0.32664959 
     340    236.09186   -6957.1723   -6930.8359   -2003.6376    20354.533   0.33435107 
     350    237.19352   -6957.2955   -6930.8363   -2145.8328    20354.533   0.34289663 
     360     235.6501   -6957.1226   -6930.8355   -2186.0282    20354.533   0.35153924 
     370      237.245   -6957.3009   -6930.8359   -2246.4379    20354.533   0.35886165 
     380     239.0727   -6957.5047   -6930.8358   -2396.5837    20354.533   0.36451066 
     390    241.64207   -6957.7913   -6930.8358   -2701.0958    20354.533   0.36907283 
     400    244.68963   -6958.1321   -6930.8366    -3058.184    20354.533   0.37340775 
     410    240.84575   -6957.7024   -6930.8357   -3233.9135    20354.533   0.37836011 
     420    237.91038    -6957.375   -6930.8357   -3296.1667    20354.533    0.3837999 
     430    237.53548   -6957.3335    -6930.836     -3297.92    20354.533   0.38923076 
     440    236.65311   -6957.2351   -6930.8361   -3132.9159    20354.533   0.39408345 
     450    236.54722   -6957.2227   -6930.8355   -2838.3736    20354.533   0.39819744 
     460    240.22636   -6957.6339   -6930.8363   -2750.9298    20354.533   0.40204023 
     470    240.52465   -6957.6669    -6930.836   -2995.4918    20354.533   0.40599969 
     480    237.66852   -6957.3482   -6930.8359   -3342.9489    20354.533   0.40967234 
     490     233.8587   -6956.9231   -6930.8358   -3484.3142    20354.533   0.41268728 
     500    232.08796   -6956.7258   -6930.8361   -3205.4816    20354.533   0.41521326 
     510    230.70203   -6956.5715   -6930.8364   -2716.5526    20354.533   0.41731564 
     520    228.05602   -6956.2759   -6930.8359   -2363.5724    20354.533   0.41870774 
     530    227.97164    -6956.267   -6930.8365   -2215.6832    20354.533   0.41939371 
     540    224.82248   -6955.9152   -6930.8359   -2142.5726    20354.533   0.41965215 
     550    224.12424   -6955.8368   -6930.8354   -2230.4398    20354.533   0.41896539 
     560    230.14975   -6956.5094   -6930.8358   -2549.6413    20354.533   0.41694428 
     570    236.18881   -6957.1833   -6930.8361   -2919.3179    20354.533   0.41431605 
     580    239.11248   -6957.5092   -6930.8358   -3311.7801    20354.533   0.41218239 
     590    240.41038    -6957.654   -6930.8359   -3417.9605    20354.533   0.41128732 
     600     241.9108   -6957.8213   -6930.8358   -3319.9933    20354.533   0.41181297 
     610    244.71998   -6958.1355   -6930.8366   -3218.6172    20354.533   0.41378595 
     620     241.0794   -6957.7291   -6930.8363   -3147.9995    20354.533   0.41727735 
     630    235.50013   -6957.1059   -6930.8355   -3135.0665    20354.533   0.42154918 
     640    235.11112   -6957.0634   -6930.8364   -3257.6948    20354.533   0.42544554 
     650    231.17765   -6956.6238   -6930.8356   -3363.2824    20354.533   0.42831027 
     660    230.96587      -6956.6   -6930.8354    -3278.616    20354.533   0.42962018 
     670    236.71051   -6957.2418   -6930.8364   -3057.6575    20354.533   0.43008462 
     680    237.89077   -6957.3735   -6930.8365   -2729.6334    20354.533   0.43147958 
     690    233.77068   -6956.9134    -6930.836   -2455.8007    20354.533   0.43467882 
     700    232.73214   -6956.7972   -6930.8356   -2458.1317    20354.533   0.43896836 
     710     238.6713   -6957.4612    -6930.837     -2772.14    20354.533   0.44306523 
     720    238.40713   -6957.4307    -6930.836    -2807.083    20354.533   0.44626276 
     730     240.4682   -6957.6606    -6930.836   -2649.5036    20354.533   0.44805059 
     740    245.36669   -6958.2082   -6930.8372   -2598.8991    20354.533   0.44927166 
     750    241.62154   -6957.7892    -6930.836   -2531.0184    20354.533   0.45180545 
     760    240.83361   -6957.7015   -6930.8361   -2663.8574    20354.533   0.45609454 
     770    242.81641   -6957.9232   -6930.8366   -2904.7405    20354.533   0.46149917 
     780    240.55873   -6957.6716   -6930.8369   -3011.4883    20354.533   0.46731331 
     790    234.48344    -6956.992    -6930.835   -2984.9723    20354.533   0.47270083 
     800    241.36903   -6957.7616   -6930.8365   -3043.6074    20354.533   0.47702973 
     810    248.02611   -6958.5044   -6930.8367   -3212.7271    20354.533   0.48113406 
     820    247.07524   -6958.3983   -6930.8367   -3298.0857    20354.533   0.48604281 
     830    241.62282   -6957.7892   -6930.8358   -3451.0521    20354.533   0.49200069 
     840    241.09937   -6957.7309   -6930.8359   -3767.5583    20354.533    0.4980224 
     850    243.86884   -6958.0407   -6930.8367   -3969.0277    20354.533   0.50315689 
     860    240.67295   -6957.6839   -6930.8364   -3878.9651    20354.533   0.50749313 
     870    234.88256   -6957.0377   -6930.8362   -3705.4216    20354.533   0.51123394 
     880     230.9712   -6956.6008   -6930.8356   -3732.8653    20354.533   0.51418617 
     890    234.71187   -6957.0191   -6930.8366   -3903.3458    20354.533   0.51649556 
     900    236.69755   -6957.2408   -6930.8368   -4096.5729    20354.533   0.51925856 
     910    234.14135   -6956.9543   -6930.8355   -4214.9524    20354.533   0.52270274 
     920     239.2214   -6957.5215    -6930.836    -4371.806    20354.533    0.5260843 
     930    246.23434   -6958.3046   -6930.8368   -4388.3174    20354.533   0.52947161 
     940    244.93011   -6958.1585   -6930.8361    -4140.633    20354.533    0.5331014 
     950    244.54566   -6958.1146   -6930.8351   -3874.4856    20354.533   0.53608506 
     960     253.5944   -6959.1267   -6930.8378   -3771.8165    20354.533   0.53803089 
     970     248.3829   -6958.5442   -6930.8367   -3524.3442    20354.533   0.53986141 
     980    238.35135   -6957.4243   -6930.8358   -3260.4338    20354.533   0.54101785 
     990    236.50322   -6957.2181   -6930.8358   -3175.8957    20354.533   0.54134372 
    1000    241.19481   -6957.7423   -6930.8367   -3304.4267    20354.533   0.54225539 
    1010    241.95562   -6957.8272   -6930.8367   -3391.2596    20354.533   0.54502288 
    1020    240.16869   -6957.6269   -6930.8357   -3447.0496    20354.533   0.54930268 
    1030    245.53617   -6958.2267   -6930.8368   -3456.4918    20354.533   0.55419445 
    1040    247.77076    -6958.476   -6930.8368   -3298.5887    20354.533   0.55950896 
    1050     244.2442   -6958.0816   -6930.8358   -3136.4369    20354.533   0.56417367 
    1060    244.98518   -6958.1647   -6930.8363    -3248.508    20354.533   0.56688242 
    1070    245.91228   -6958.2687   -6930.8368   -3519.1406    20354.533   0.56812185 
    1080    243.86214    -6958.039   -6930.8358   -3692.2455    20354.533   0.56934968 
    1090    246.84293   -6958.3726   -6930.8369   -3906.5524    20354.533   0.57178329 
    1100      244.881   -6958.1533   -6930.8365   -4089.2355    20354.533   0.57651628 
    1110    240.43499   -6957.6569    -6930.836   -4077.0823    20354.533    0.5832495 
    1120    237.92872   -6957.3775   -6930.8362   -4003.4461    20354.533   0.59023617 
    1130    236.51172   -6957.2189   -6930.8357   -4042.4172    20354.533   0.59550452 
    1140    238.96444   -6957.4936   -6930.8368   -4040.0227    20354.533   0.59831056 
    1150    235.78148   -6957.1379   -6930.8361   -3879.2914    20354.533   0.59921996 
    1160    234.20341   -6956.9615   -6930.8358   -3837.8249    20354.533    0.5985221 
    1170    240.41902   -6957.6544   -6930.8353    -3935.141    20354.533   0.59722217 
    1180    255.54411   -6959.3435   -6930.8372     -4092.55    20354.533   0.59743217 
    1190    258.99242   -6959.7285   -6930.8375   -4046.2257    20354.533    0.6011544 
    1200    248.88394   -6958.5986   -6930.8352   -3714.2841    20354.533   0.60762836 
    1210    248.47025   -6958.5542    -6930.837   -3470.6197    20354.533   0.61448368 
    1220    244.95446   -6958.1613   -6930.8363   -3177.7538    20354.533   0.62050251 
    1230     241.8534   -6957.8153   -6930.8362   -3046.6572    20354.533   0.62473384 
    1240    239.93171   -6957.6017    -6930.837   -2953.8402    20354.533   0.62763822 
    1250    233.26136   -6956.8559   -6930.8352   -2777.3686    20354.533   0.63038166 
    1260    237.93988   -6957.3787   -6930.8361   -2775.1391    20354.533    0.6330371 
    1270    246.35675   -6958.3182   -6930.8368   -2888.4422    20354.533   0.63643977 
    1280    248.45813   -6958.5525   -6930.8366   -2920.0425    20354.533   0.64183599 
    1290    245.47675   -6958.2198   -6930.8365   -2685.1116    20354.533   0.64908358 
    1300    241.63357   -6957.7906    -6930.836   -2354.7632    20354.533   0.65669456 
    1310    242.43427   -6957.8804   -6930.8365   -2080.8148    20354.533   0.66291632 
    1320    245.28186   -6958.1979   -6930.8364   -1915.3295    20354.533    0.6669735 
    1330    248.60459   -6958.5691   -6930.8369   -2012.6907    20354.533   0.66938419 
    1340    247.35187   -6958.4291   -6930.8367   -2148.5782    20354.533   0.67162517 
    1350    244.12194   -6958.0683   -6930.8361   -1975.6824    20354.533   0.67460298 
    1360    246.17117   -6958.2975   -6930.8367   -1695.7314    20354.533   0.67795806 
    1370    247.81913   -6958.4815   -6930.8369   -1406.6961    20354.533   0.68155459 
    1380    246.54204   -6958.3387   -6930.8366   -1365.9532    20354.533   0.68550067 
    1390    245.37096   -6958.2083   -6930.8368   -1609.7263    20354.533   0.68946972 
    1400    243.36629   -6957.9841   -6930.8362   -2040.6718    20354.533   0.69316197 
    1410    243.94371   -6958.0489   -6930.8367    -2492.182    20354.533   0.69632692 
    1420    241.91407   -6957.8222   -6930.8364   -2641.5513    20354.533   0.69908731 
    1430    240.29252    -6957.641   -6930.8361   -2738.6597    20354.533   0.70169952 
    1440    243.00906   -6957.9446   -6930.8366   -2920.7186    20354.533   0.70454594 
    1450    244.25454   -6958.0838   -6930.8369   -3048.4377    20354.533   0.70795341 
    1460    242.09952    -6957.843   -6930.8364   -2976.5792    20354.533   0.71130224 
    1470    243.45842   -6957.9943   -6930.8362   -3081.8274    20354.533    0.7132231 
    1480    250.70065   -6958.8033   -6930.8373   -3338.8349    20354.533   0.71370178 
    1490    252.18388   -6958.9685    -6930.837   -3376.1382    20354.533    0.7144344 
    1500    251.43885   -6958.8853   -6930.8369   -3315.8008    20354.533   0.71637247 
    1510    251.24938    -6958.864   -6930.8368   -3301.7557    20354.533   0.71942223 
    1520    249.70733   -6958.6922    -6930.837   -3282.0336    20354.533   0.72323431 
    1530    244.44696   -6958.1054    -6930.837   -3302.2244    20354.533   0.72763008 
    1540    236.75683   -6957.2464   -6930.8358   -3274.9713    20354.533    0.7323608 
    1550    237.57971   -6957.3389   -6930.8365   -3428.4116    20354.533   0.73683196 
    1560    241.15015   -6957.7371   -6930.8364   -3593.4236    20354.533   0.74115804 
    1570    245.97302   -6958.2754   -6930.8368   -3733.6516    20354.533   0.74547586 
    1580    248.38573   -6958.5448    -6930.837   -3697.1233    20354.533   0.74963233 
    1590    246.86432   -6958.3746   -6930.8366   -3466.8015    20354.533   0.75351214 
    1600     247.7118   -6958.4687    -6930.836   -3388.9239    20354.533   0.75677589 
    1610    253.82537   -6959.1519   -6930.8373    -3531.034    20354.533   0.75955216 
    1620    251.92871   -6958.9401   -6930.8371   -3648.0728    20354.533   0.76294914 
    1630    244.66821   -6958.1291    -6930.836   -3657.5504    20354.533   0.76703359 
    1640    244.28177   -6958.0866   -6930.8366   -3671.0399    20354.533   0.77099433 
    1650    244.83575   -6958.1483   -6930.8365   -3788.3144    20354.533   0.77508445 
    1660    246.40424   -6958.3232   -6930.8364    -3813.853    20354.533   0.77989624 
    1670     250.2724    -6958.755   -6930.8367   -3565.9239    20354.533   0.78529205 
    1680    252.16532   -6958.9666   -6930.8372   -3320.4462    20354.533   0.79034429 
    1690    248.06278   -6958.5083   -6930.8366    -3241.467    20354.533   0.79410211 
    1700    246.18953   -6958.2989   -6930.8361   -3435.3007    20354.533   0.79613512 
    1710    251.37963   -6958.8788   -6930.8371   -3765.1983    20354.533   0.79697816 
    1720    252.49637   -6959.0036   -6930.8373   -4015.6546    20354.533   0.79809077 
    1730    246.19105   -6958.2991   -6930.8361   -4012.8085    20354.533   0.80001418 
    1740    244.72061   -6958.1349   -6930.8359   -3836.2711    20354.533   0.80174398 
    1750    250.77886   -6958.8116   -6930.8368   -3664.5304    20354.533   0.80300604 
    1760    253.23106   -6959.0851   -6930.8368   -3574.9487    20354.533   0.80474848 
    1770     250.9182   -6958.8268   -6930.8365   -3643.0638    20354.533   0.80759401 
    1780    248.19059    -6958.522   -6930.8359    -3925.933    20354.533   0.81194222 
    1790    251.50586   -6958.8923   -6930.8365   -4358.7518    20354.533   0.81788965 
    1800    254.74644   -6959.2547   -6930.8373   -4555.0094    20354.533   0.82537267 
    1810    250.83969   -6958.8178   -6930.8362   -4276.5786    20354.533   0.83331392 
    1820     251.8855   -6958.9345   -6930.8362   -4012.9598    20354.533   0.83972246 
    1830      255.594   -6959.3496   -6930.8377   -3901.3718    20354.533   0.84445553 
    1840    246.70995   -6958.3569   -6930.8361   -3626.6691    20354.533   0.84851616 
    1850    241.86654   -6957.8157   -6930.8351   -3456.7016    20354.533   0.85180041 
    1860    250.43531   -6958.7737   -6930.8372    -3514.864    20354.533    0.8548436 
    1870    251.67809   -6958.9117   -6930.8366    -3317.435    20354.533   0.85904271 
    1880    249.74232   -6958.6953   -6930.8361   -2814.4162    20354.533   0.86408884 
    1890    251.03758   -6958.8407    -6930.837   -2598.2462    20354.533   0.86903478 
    1900    247.47063   -6958.4421   -6930.8364   -2762.2368    20354.533   0.87371783 
    1910    246.41436   -6958.3238   -6930.8359   -3170.3298    20354.533   0.87809892 
    1920    252.32808   -6958.9847   -6930.8371   -3481.0709    20354.533    0.8826292 
    1930    251.70282   -6958.9148    -6930.837   -3522.0143    20354.533   0.88826081 
    1940    246.41342   -6958.3234   -6930.8356   -3409.4835    20354.533   0.89502972 
    1950     251.5574   -6958.8983   -6930.8367   -3383.3627    20354.533   0.90192896 
    1960    256.70331    -6959.473   -6930.8374   -3284.7665    20354.533   0.90797257 
    1970    251.99325   -6958.9465   -6930.8363   -3170.8424    20354.533   0.91214044 
    1980    249.36931   -6958.6536    -6930.836    -3268.664    20354.533   0.91382089 
    1990    253.19383   -6959.0808   -6930.8367   -3484.4565    20354.533   0.91429439 
    2000    255.75062   -6959.3664    -6930.837   -3645.8324    20354.533   0.91593526 
Loop time of 1493.76 on 16 procs for 2000 steps with 864 atoms

Performance: 0.116 ns/day, 207.467 hours/ns, 1.339 timesteps/s
97.5% CPU use with 16 MPI tasks x 1 OpenMP threads

MPI task timing breakdown:
Section |  min time  |  avg time  |  max time  |%varavg| %total
---------------------------------------------------------------
Pair    | 688.38     | 1209.2     | 1479.1     | 588.4 | 80.95
Bond    | 0.00018358 | 0.00065531 | 0.001704   |   0.0 |  0.00
Neigh   | 0.018031   | 0.027898   | 0.036283   |   3.5 |  0.00
Comm    | 13.828     | 266.06     | 761.77     |1208.6 | 17.81
Output  | 0.44065    | 9.4484     | 21.96      | 271.5 |  0.63
Modify  | 0.0096605  | 0.01117    | 0.013807   |   1.1 |  0.00
Other   |            | 9.027      |            |       |  0.60

Nlocal:        54.0000 ave          71 max          39 min
Histogram: 3 2 1 1 0 4 1 0 3 1
Nghost:        497.125 ave         591 max         387 min
Histogram: 1 2 1 1 1 3 2 1 2 2
Neighs:         0.00000 ave           0 max           0 min
Histogram: 16 0 0 0 0 0 0 0 0 0
FullNghs:      2382.00 ave        3956 max        1259 min
Histogram: 3 2 2 0 2 3 1 1 1 1

Total # of neighbors = 38112
Ave neighs/atom = 44.111111
Ave special neighs/atom = 0.0000000
Neighbor list builds = 199
Dangerous builds = 198
Setting up Verlet run ...
  Unit style    : metal
  Current step  : 2000
  Time step     : 0.001
Per MPI rank memory allocation (min/avg/max) = 8.897 | 8.905 | 8.914 Mbytes
Step Temp PotEng TotEng Press Volume c_msd[4] 
    2000        862.5   -6959.3664   -6863.1532   -94.079612    20354.533   0.91593526 
    2010    760.16725   -6947.9189   -6863.1211    2015.7623    20354.717   0.92896208 
    2020    605.35199   -6930.4467   -6862.9188    5001.1442    20357.434   0.95239127 
    2030    555.51331   -6924.3888   -6862.4204    5705.9395    20365.941   0.97213732 
    2040    539.78862   -6921.7735   -6861.5593    5293.4319    20381.256   0.98692695 
    2050     521.4202    -6918.653   -6860.4878    4683.2713    20402.995    1.0005507 
    2060    514.79448   -6916.8734   -6859.4473     3942.933    20430.455    1.0146369 
    2070    547.74905   -6919.6045   -6858.5023    3212.5505    20462.774    1.0296665 
    2080    562.74833   -6920.3375   -6857.5621    3101.7162    20499.151    1.0477152 
    2090    541.95905   -6917.0479   -6856.5916    3170.6122    20539.402    1.0680912 
    2100    556.10911   -6917.5503   -6855.5155    2215.6083     20583.45     1.086451 
    2110    576.07085   -6918.5135   -6854.2519    1169.0907    20630.212    1.1024788 
    2120    569.93758    -6916.471   -6852.8936    376.33905    20678.366    1.1178209 
    2130    571.24122    -6915.212   -6851.4891   -518.29785    20726.824    1.1330925 
    2140    569.61725   -6913.5745   -6850.0329   -1098.4596    20774.454    1.1496065 
    2150    563.13373   -6911.3708   -6848.5524     -1331.32    20820.451    1.1672537 
    2160    560.41194    -6909.559   -6847.0442   -1654.8631    20864.401     1.184933 
    2170    572.61711   -6909.3675   -6845.4912    -1685.424    20905.911    1.2026544 
    2180    586.18558   -6909.2793   -6843.8894   -1284.4706    20944.929    1.2220328 
    2190    604.49254   -6909.6917   -6842.2597   -1157.5858    20981.845     1.243814 
    2200    617.51907   -6909.4771   -6840.5919   -1225.7735    21016.816    1.2683636 
    2210    616.61849    -6907.712   -6838.9273   -1430.6899    21049.751    1.2943066 
    2220    613.02679   -6905.6451   -6837.2611   -2047.9493    21080.349    1.3180664 
    2230    626.75313    -6905.482   -6835.5668   -2798.6703     21107.85    1.3374525 
    2240    650.11833   -6906.3409   -6833.8192   -3359.8164    21131.338    1.3533391 
    2250    652.53672   -6904.8358   -6832.0443   -3235.0328    21150.187    1.3670775 
    2260    644.19737   -6902.1511   -6830.2899   -2295.4135    21164.645    1.3797339 
    2270    656.25298   -6901.7327   -6828.5267    -1323.314    21175.887    1.3923325 
    2280    659.81404   -6900.3494   -6826.7462   -657.16565    21185.183    1.4068621 
    2290    663.17375   -6898.9557   -6824.9776   -752.91516    21193.367    1.4228509 
    2300     675.8671    -6898.593    -6823.199   -1270.7311    21200.374    1.4374672 
    2310    678.93455   -6897.1426   -6821.4064   -1568.3807    21205.634     1.448947 
    2320     685.9533   -6896.1403   -6819.6212   -1553.0557    21208.802     1.456585 
    2330    706.08729   -6896.5841    -6817.819    -1467.762    21209.904    1.4622507 
    2340    707.96417   -6894.9766   -6816.0022   -982.87791    21209.141    1.4709488 
    2350    705.09174    -6892.859    -6814.205   -567.53906    21207.121    1.4840653 
    2360    713.86703   -6892.0358   -6812.4028   -749.86657    21204.334    1.4995978 
    2370     713.4614   -6890.1895   -6810.6018     -955.068    21200.636    1.5164073 
    2380    714.75904   -6888.5394   -6808.8069   -667.36637    21195.842    1.5336641 
    2390    740.33419   -6889.5825   -6806.9971    -187.8473    21190.294    1.5509063 
    2400    769.13003   -6890.9551   -6805.1575    389.44903     21184.62    1.5685377 
    2410    766.38781   -6888.8484   -6803.3567    1195.4339    21179.604    1.5871246 
    2420    770.12906   -6887.5318   -6801.6228     1230.782    21176.136    1.6047573 
    2430    784.88603   -6887.4476   -6799.8923    1046.0743    21174.313    1.6218935 
    2440    798.31452   -6887.2247   -6798.1715    955.99621    21173.873    1.6410095 
    2450    786.92736   -6884.2717   -6796.4888    1329.9982    21174.752    1.6628717 
    2460    799.37929   -6884.0226   -6794.8506    1574.8624    21177.331    1.6848582 
    2470    804.53311    -6882.957   -6793.2101    1684.9798    21181.888    1.7075566 
    2480    817.72675   -6882.8178   -6791.5992    1886.6325    21188.553    1.7303234 
    2490    835.55412   -6883.2089   -6790.0016    1596.8895    21197.457    1.7517031 
    2500    837.72609   -6881.9046    -6788.455    1332.9626     21208.27    1.7738704 
    2510     851.9255    -6882.006   -6786.9725    990.05251    21220.584     1.796538 
    2520     852.7206   -6880.6755   -6785.5533    1339.6027    21234.033    1.8197697 
    2530    830.48117     -6876.86   -6784.2185    2080.8202    21249.006    1.8439149 
    2540    831.34721   -6875.6682   -6782.9302    1930.6959    21266.301    1.8668419 
    2550    845.57803   -6875.9569   -6781.6314     1404.042    21285.767    1.8911734 
    2560    842.14742   -6874.3001   -6780.3573    1285.5571    21306.758    1.9197443 
    2570    829.86756   -6871.6924   -6779.1194    1501.0745    21329.104    1.9498162 
    2580    844.95516   -6872.1461   -6777.8901    1456.7202    21352.995    1.9762306 
    2590    886.23856   -6875.5089   -6776.6476    1220.9376    21378.365    1.9984608 
    2600    876.69364   -6873.2697   -6775.4732    1515.2895    21404.975    2.0207875 
    2610    864.71626    -6870.869   -6774.4086    1597.9136    21433.087    2.0444319 
    2620    877.64702    -6871.294   -6773.3912    805.73703    21462.709    2.0687371 
    2630     870.3751   -6869.5027   -6772.4111    321.03886    21492.927    2.0955135 
    2640     856.3999   -6867.0208   -6771.4881    312.58855    21523.101    2.1251328 
    2650    855.97028   -6866.0737   -6770.5889      324.637    21553.162     2.154982 
    2660    873.20906   -6867.0967   -6769.6889    255.90501    21583.113    2.1814708 
    2670    892.49135   -6868.3687     -6768.81    34.829717    21612.844    2.2056655 
    2680     887.2456   -6866.9717   -6767.9981    24.911268    21642.124    2.2342322 
    2690    880.68757   -6865.5105   -6767.2685   -157.48127    21670.887    2.2695242 
    2700    876.74883   -6864.3931   -6766.5904   -296.74679    21698.931    2.3089066 
    2710    886.01604   -6864.7872   -6765.9508   -653.17335    21726.051    2.3484603 
    2720    878.83551   -6863.3857   -6765.3503   -1101.6924    21751.797    2.3866571 
    2730    878.31326   -6862.7773   -6764.8002   -1697.7357    21775.545    2.4207701 
    2740    876.91443   -6862.0999   -6764.2787   -2078.6406    21796.603    2.4504941 
    2750    877.53348    -6861.684   -6763.7938   -2157.4875    21814.489    2.4767561 
    2760     884.9938   -6862.0724     -6763.35   -2209.8102    21829.091    2.5020608 
    2770     886.0701   -6861.7945    -6762.952     -1970.66    21840.454    2.5290112 
    2780    890.69082   -6861.9693   -6762.6114   -1844.4907    21848.893    2.5575851 
    2790    905.72743   -6863.3818   -6762.3466   -1573.8353    21854.657    2.5877173 
    2800    895.16982   -6862.0253   -6762.1677   -825.85717    21858.216    2.6202668 
    2810     902.4894   -6862.7542   -6762.0801   -623.75619    21860.499    2.6552027 
    2820    913.82963    -6864.027   -6762.0879   -734.75459    21861.853    2.6919939 
    2830    909.33299   -6863.6486   -6762.2112   -937.49268    21862.151    2.7296067 
    2840    904.96486      -6863.4   -6762.4498   -919.59256    21861.164    2.7649906 
    2850    892.10482   -6862.3024   -6762.7868    -356.8473    21858.994    2.7943388 
    2860    873.29114   -6860.5998   -6763.1828     54.90176    21856.352    2.8181535 
    2870    866.80992   -6860.2938   -6763.5999    -496.4702    21853.705    2.8404581 
    2880    843.97178   -6858.1619   -6764.0155   -1205.6996    21850.394    2.8645476 
    2890    813.42663   -6855.1137   -6764.3748   -1237.9539    21845.555    2.8885046 
    2900    820.74359    -6856.194   -6764.6389   -1168.6493    21839.077    2.9093752 
    2910    846.99215   -6859.3094   -6764.8262    -1091.243    21831.068     2.928489 
    2920    865.63985   -6861.5444    -6764.981   -1132.4729    21821.625    2.9481849 
    2930    878.69213    -6863.173   -6765.1536   -1145.1067    21810.721    2.9682108 
    2940    868.92356   -6862.2779   -6765.3482   -801.03966    21798.414    2.9881319 
    2950    881.91256   -6863.9483   -6765.5696   -826.72996    21785.069    3.0059572 
    2960      890.134   -6865.1342   -6765.8384   -396.44863    21770.797    3.0208261 
    2970    853.05443   -6861.2911   -6766.1316    564.22581    21756.192    3.0345409 
    2980    842.48715   -6860.3841   -6766.4034    904.96119    21742.424    3.0466629 
    2990    859.88088   -6862.5651   -6766.6441    853.33982    21729.995    3.0578223 
    3000    861.19567   -6862.9518   -6766.8841    937.63799    21718.866    3.0714811 
    3010    840.72453   -6860.8827   -6767.0986    972.44508    21709.131    3.0896213 
    3020     857.1256    -6862.906   -6767.2923    26.740168    21700.666    3.1107362 
    3030    848.69694   -6862.1384    -6767.465   -608.08249    21692.369    3.1342257 
    3040    840.35623   -6861.3513   -6767.6083   -928.39787    21683.361    3.1547797 
    3050    861.10989   -6863.7785   -6767.7204   -1300.5126    21673.147    3.1707211 
    3060    871.08127   -6864.9956   -6767.8252   -1021.9877    21661.333    3.1872225 
    3070    857.89335   -6863.6323    -6767.933    -166.7066    21648.315    3.2078927 
    3080    856.97797   -6863.6267   -6768.0295    240.71343     21635.13    3.2323432 
    3090    889.04693   -6867.3089   -6768.1344   -148.69071    21622.278    3.2562011 
    3100    885.36757   -6867.0522   -6768.2881   -114.35778    21609.396    3.2750254 
    3110    870.90282    -6865.633   -6768.4824   -26.132682    21596.472    3.2847754 
    3120    880.16157   -6866.9039   -6768.7206   -178.54911    21583.551    3.2881588 
    3130    862.82588   -6865.2255   -6768.9759    386.86029    21570.592     3.293195 
    3140    877.27107   -6867.1143   -6769.2534    819.95587     21558.22     3.302526 
    3150    886.66274   -6868.4726   -6769.5641    1254.6395    21547.035    3.3204257 
    3160    864.26712   -6866.3264   -6769.9161    1680.3485     21537.61    3.3466698 
    3170    839.05022   -6863.8529   -6770.2556    1538.0704    21530.439    3.3763968 
    3180    834.56912   -6863.6522   -6770.5547    1229.8343    21525.357    3.4074693 
    3190    809.28448   -6861.0501   -6770.7732     1177.933     21521.98     3.436588 
    3200    830.52956   -6863.5548    -6770.908    625.86243    21520.118    3.4582615 
    3210       854.39   -6866.2826   -6770.9741    282.73991     21519.15    3.4738744 
    3220    856.95949   -6866.6168   -6771.0217    204.95284    21518.601    3.4863511 
    3230    832.46236   -6863.9082   -6771.0458    336.59934    21518.361    3.4973902 
    3240     819.5047   -6862.4264   -6771.0094    308.42469    21518.557    3.5095732 
    3250    829.73989   -6863.4509   -6770.8921    87.015949     21519.15    3.5266257 
    3260    822.34016   -6862.4219   -6770.6887    238.65913    21519.913    3.5501568 
    3270    824.53604    -6862.382   -6770.4037    775.64033    21521.046    3.5741898 
    3280    847.41341    -6864.568   -6770.0378    1292.5613    21523.227    3.5936693 
    3290    863.97632   -6866.0027   -6769.6249    1684.8179    21527.136    3.6092681 
    3300     862.1438   -6865.3807   -6769.2073    1784.8398    21533.288    3.6213888 
    3310    882.75571    -6867.275   -6768.8023     1095.993    21541.764    3.6318139 
    3320    898.85823   -6868.6942   -6768.4252    128.57167    21551.682    3.6475992 
    3330    893.35369   -6867.7774   -6768.1225   -489.82445      21561.8     3.671187 
    3340     887.6344   -6866.9101   -6767.8932   -448.48069     21571.34    3.6991749 
    3350    874.29061   -6865.2549   -6767.7265    60.589796    21580.352    3.7313811 
    3360    853.84719   -6862.8322   -6767.5842    374.66534    21589.432    3.7688355 
    3370    864.17437    -6863.838    -6767.438    327.26007    21598.989    3.8082133 
    3380    854.75594   -6862.6264   -6767.2771    243.01351    21609.003    3.8469424 
    3390    845.45894   -6861.4145   -6767.1023   -377.62954    21619.289    3.8838043 
    3400    861.32227   -6862.9768    -6766.895    -1519.198    21629.002    3.9208311 
    3410    865.79951   -6863.2535   -6766.6723   -1703.1148    21636.789    3.9582822 
    3420    865.08798   -6862.9589    -6766.457   -984.24678    21642.367    3.9936635 
    3430    862.54858   -6862.4678   -6766.2492   -270.63522    21646.591    4.0265432 
    3440    847.93395   -6860.6189   -6766.0306    161.40793    21650.443    4.0548207 
    3450    856.21896   -6861.3097   -6765.7971   -8.4237579    21654.426    4.0776287 
    3460    838.77493   -6859.0993   -6765.5327    172.64587     21658.45    4.1003575 
    3470    827.51418   -6857.5392   -6765.2288    378.55455    21662.724    4.1253397 
    3480    830.43135   -6857.4927   -6764.8569    333.97971    21667.485    4.1525576 
    3490    832.36584   -6857.2633   -6764.4116    186.14363    21672.708    4.1832215 
    3500    850.76716   -6858.8094    -6763.905   -268.86483    21678.158    4.2157249 
    3510    847.49157   -6857.8985   -6763.3596   -107.97173    21683.349    4.2474371 
    3520    846.06887    -6857.174   -6762.7937    268.16103    21688.434    4.2767395 
    3530    868.86795    -6859.119   -6762.1955    301.20643    21693.849    4.3047093 
    3540    875.85293   -6859.2983   -6761.5956    335.47135    21699.692    4.3323332 
    3550    869.39995   -6858.0084   -6761.0256    240.80546    21705.999    4.3617164 
    3560     879.9839   -6858.6527   -6760.4892   -204.75873    21712.609    4.3938919 
    3570    886.94486   -6858.9236   -6759.9835   -664.81193    21718.958     4.428732 
    3580    896.79159   -6859.5753   -6759.5369   -830.67454    21724.458    4.4680865 
    3590    890.28897   -6858.4769   -6759.1638   -892.81202     21728.83     4.512989 
    3600    879.07952   -6856.9211   -6758.8585   -698.92704    21732.019    4.5554649 
    3610    883.35959   -6857.1413   -6758.6012   -422.80902    21734.265    4.5845216 
    3620    889.60109   -6857.6207   -6758.3843    89.875286    21735.989    4.5998307 
    3630    894.88264   -6858.0594   -6758.2339    5.8130846    21737.756    4.6094012 
    3640    885.49571   -6856.9274    -6758.149    101.39981    21739.592    4.6212321 
    3650    894.26976     -6857.89   -6758.1329    448.43314    21741.612    4.6429192 
    3660    884.83003   -6856.8848   -6758.1807    1013.6543    21744.298    4.6781369 
    3670    874.87818   -6855.8751   -6758.2812    1379.8308    21748.383    4.7208191 
    3680    880.76015   -6856.6713   -6758.4212    927.53937    21754.297    4.7674349 
    3690    863.79474   -6854.9453   -6758.5877    343.37524    21761.524     4.818542 
    3700    855.64781   -6854.2106   -6758.7618   -142.70298    21769.274    4.8674284 
    3710    854.49655   -6854.2425   -6758.9221    82.884796    21776.961    4.9074904 
    3720    845.42205   -6853.3703   -6759.0622    756.67626    21784.862     4.938809 
    3730    858.59208   -6854.9555   -6759.1783    1078.9747    21793.831    4.9631316 
    3740    878.36887   -6857.2737   -6759.2903    1135.9362    21804.332    4.9798873 
    3750    880.54959   -6857.6641   -6759.4375    948.54463    21816.455    4.9926752 
    3760    877.35818   -6857.4895   -6759.6189    398.74384    21829.956    5.0051464 
    3770    890.29423   -6859.1525   -6759.8388   -702.77803    21844.024    5.0192032 
    3780    881.00528   -6858.3829   -6760.1054   -1520.9448    21857.248    5.0362188 
    3790    863.16648   -6856.6934   -6760.4059   -2007.3544    21868.485    5.0537957 
    3800    840.59171   -6854.4728   -6760.7035   -2009.3235    21877.052    5.0722505 
    3810    829.41116   -6853.4698   -6760.9478   -1960.6335    21882.876    5.0927274 
    3820    862.75563   -6857.3926   -6761.1509   -2091.7665    21885.972    5.1179054 
    3830    879.64331   -6859.4805    -6761.355    -1653.111     21886.24    5.1529355 
    3840    886.44495   -6860.4866   -6761.6024   -992.34777    21884.242    5.1924246 
    3850    887.99451   -6860.9648   -6761.9077   -685.73148    21880.799    5.2253715 
    3860     876.3846   -6860.0351   -6762.2731   -562.21799    21876.349    5.2466362 
    3870    849.14066   -6857.3739    -6762.651   -107.36515    21871.147    5.2570797 
    3880    839.78312   -6856.6832   -6763.0041    286.63786    21865.745    5.2613066 
    3890    839.15665   -6856.9115   -6763.3023    540.16779    21860.694    5.2633476 
    3900    852.27096   -6858.6266   -6763.5545    86.526281    21856.271    5.2671591 
    3910     874.7151   -6861.3742   -6763.7984   -772.74082     21851.89    5.2750911 
    3920    876.09785    -6861.799    -6764.069   -1264.1489    21846.447    5.2865077 
    3930    867.00447   -6861.0849   -6764.3693   -1451.2488    21839.228    5.2980391 
    3940    857.70601   -6860.3659   -6764.6875   -1707.0867    21829.904    5.3093247 
    3950    844.86313   -6859.2457        -6765    -1772.853    21818.137    5.3227643 
    3960    819.36099   -6856.6689    -6765.268   -1723.5455     21803.82    5.3393623 
    3970    816.18273   -6856.4984   -6765.4519   -1988.1039    21786.941    5.3543348 
    3980    829.41111   -6858.0717   -6765.5497   -2003.8295     21767.19    5.3632951 
    3990    816.65635   -6856.6584   -6765.5591   -1193.1391    21744.613    5.3644429 
    4000    816.58535   -6856.5573    -6765.466   -201.56913    21720.227    5.3577404 
    4010    824.73319   -6857.2554   -6765.2552    703.05271     21695.37    5.3496803 
    4020    837.81003   -6858.4106   -6764.9517    1302.7462    21671.253    5.3476279 
    4030     832.6283    -6857.462    -6764.581    1688.7179    21648.721    5.3548602 
    4040    840.83889   -6857.9507   -6764.1538     1943.395    21628.317    5.3664525 
    4050    870.51814   -6860.7818   -6763.6742    2011.5884     21610.39    5.3745024 
    4060    886.33715   -6862.0676   -6763.1954    2213.8004    21595.095    5.3756542 
    4070     882.7029   -6861.2335   -6762.7666    2560.1346    21582.733    5.3727813 
    4080     877.6173   -6860.2913   -6762.3918    2517.4974    21573.705    5.3702756 
    4090    876.79726   -6859.8672   -6762.0591    2670.3737    21568.063    5.3742295 
    4100    852.48947   -6856.8387   -6761.7422    3337.5056    21566.082    5.3889239 
    4110    860.80969   -6857.4659   -6761.4412    3214.5747     21568.51    5.4091002 
    4120     869.3597   -6858.1098   -6761.1314    2898.7386    21575.329    5.4261667 
    4130    863.92811   -6857.2024     -6760.83    2769.1192    21586.204    5.4364289 
    4140     894.9299   -6860.3787   -6760.5479    1763.2895    21600.839    5.4429429 
    4150    880.71357   -6858.5486   -6760.3037    717.40057    21618.017    5.4536796 
    4160    844.40603   -6854.2912   -6760.0965    586.58283    21636.465    5.4717704 
    4170    840.05211   -6853.5769   -6759.8679    596.55254      21655.9    5.4959039 
    4180    830.73956   -6852.2529   -6759.5826    697.07261    21676.355    5.5266711 
    4190    822.09481   -6850.9314   -6759.2255    497.91947    21697.952    5.5610291 
    4200    866.08008   -6855.4008   -6758.7883   -491.68777    21720.339    5.5949752 
    4210    887.69674   -6857.3382   -6758.3143   -709.01546     21742.39    5.6297416 
    4220    891.92465   -6857.3966   -6757.9011    -620.7913    21763.677    5.6638585 
    4230    881.39105   -6855.8716   -6757.5511   -365.14454    21784.351     5.691788 
    4240    898.33209   -6857.4697   -6757.2594   -1094.3769    21804.576    5.7107594 
    4250    894.31662   -6856.7865   -6757.0241    -1545.257    21823.519     5.727162 
    4260     883.1368   -6855.3847   -6756.8694   -1217.4987    21840.584    5.7415826 
    4270    865.95316   -6853.3631   -6756.7647   -565.91505    21856.161    5.7513754 
    4280     877.1171   -6854.5257    -6756.682   -526.43778     21871.02    5.7611624 
    4290    892.78668   -6856.2189   -6756.6272   -750.99114    21885.253    5.7781397 
    4300    884.82833   -6855.3321   -6756.6282   -837.68828    21898.601    5.7991526 
    4310    890.42983   -6856.0176   -6756.6888   -1197.9877    21910.863    5.8167898 
    4320    903.66057   -6857.6283   -6756.8236   -1314.6996    21921.587    5.8293206 
    4330    884.54659    -6855.724   -6757.0515   -930.69806    21930.633    5.8399966 
    4340    849.45504    -6852.079    -6757.321   -656.83891    21938.445    5.8508688 
    4350    849.39543   -6852.3288   -6757.5775   -1060.4424     21945.32    5.8608254 
    4360     868.2522    -6854.667   -6757.8122    -1925.515    21950.725    5.8718555 
    4370    882.38237   -6856.4988   -6758.0678   -2445.6267     21953.52    5.8876435 
    4380    865.55701   -6854.9152    -6758.361   -1987.6085    21953.032    5.9086305 
    4390    852.54547   -6853.7726   -6758.6699   -1688.2804    21949.711    5.9325819 
    4400    851.78948   -6853.9861   -6758.9677   -1846.1837    21943.932    5.9564508 
    4410    866.04108   -6855.8639   -6759.2557   -2084.5244    21935.495    5.9740511 
    4420    887.04081   -6858.5271   -6759.5764   -2215.5182    21924.048     5.983762 
    4430     882.3439   -6858.3802   -6759.9534    -2076.321    21909.407    5.9912962 
    4440    874.23444   -6857.9032   -6760.3811   -1827.8269     21891.71    6.0017444 
    4450    865.71334   -6857.4107   -6760.8391    -1951.206    21871.197    6.0158201 
    4460    858.65222   -6857.0947   -6761.3108   -1999.8389    21847.765    6.0297961 
    4470    854.47546   -6857.0856   -6761.7675   -1670.4277    21821.366    6.0390417 
    4480    865.15962   -6858.7192   -6762.2093   -1233.5576    21792.414    6.0423761 
    4490    865.51411   -6859.1997   -6762.6503   -700.01087    21761.512    6.0465118 
    4500    860.05031   -6859.0272   -6763.0873   -142.55183     21729.37    6.0544146 
    4510    854.13676   -6858.7736   -6763.4934    399.98793    21696.785    6.0653833 
    4520    866.61591   -6860.5653    -6763.893    409.61377    21664.442    6.0758522 
    4530    843.42399   -6858.3622    -6764.277    733.55243    21632.497    6.0795342 
    4540    838.13038   -6858.0961   -6764.6014    736.55253    21601.306    6.0751234 
    4550    860.01698   -6860.8227   -6764.8865    791.14598    21570.963      6.07017 
    4560    850.98404   -6860.0666   -6765.1381    1386.7499    21541.615    6.0717354 
    4570    854.09947   -6860.6431    -6765.367    1592.4024    21513.953    6.0786939 
    4580    847.26801    -6860.091    -6765.577    1538.1398    21488.293    6.0875691 
    4590    836.21215   -6859.0382   -6765.7575    1454.8501    21464.607     6.092835 
    4600    844.32218   -6860.0881   -6765.9027    1194.4212    21442.751    6.0941158 
    4610    834.08127   -6859.0428   -6765.9997    1614.6519    21422.507    6.0950632 
    4620    820.94751   -6857.6143   -6766.0364    1887.6088    21404.303    6.0940706 
    4630    823.50608   -6857.8544    -6765.991    1776.7497    21388.501    6.0907443 
    4640    852.97992   -6861.0304   -6765.8792    1562.5275    21374.984    6.0903652 
    4650    866.32805    -6862.382   -6765.7418    1588.2295    21363.487    6.0990459 
    4660    854.51529   -6860.9238   -6765.6013    2066.2024    21354.116     6.111528 
    4670    853.63289   -6860.6716   -6765.4476    2212.2103     21347.41     6.119127 
    4680    853.61946   -6860.4797   -6765.2571    2415.6759    21343.633     6.124864 
    4690    871.92109   -6862.2989   -6765.0348    2325.9091    21343.018    6.1346488 
    4700    881.74789   -6863.1683    -6764.808     2125.663    21345.485    6.1523732 
    4710    873.43604   -6862.0376   -6764.6045    2555.7491    21350.889    6.1801547 
    4720    875.53621   -6862.0761   -6764.4087    2821.4808    21359.724    6.2147648 
    4730    898.15184   -6864.4138   -6764.2236     2858.652    21372.351    6.2512854 
    4740    891.88758   -6863.5697   -6764.0783    3144.9017    21388.896    6.2870219 
    4750    884.83971    -6862.703   -6763.9978    3370.0368    21409.721     6.318896 
    4760    877.60173   -6861.8628    -6763.965      3196.62    21435.119    6.3511318 
    4770     860.5045   -6859.9532   -6763.9626    2764.2224    21464.911    6.3906972 
    4780    853.48083   -6859.1641    -6763.957    1946.7814    21498.504    6.4338723 
    4790    872.64296   -6861.2616    -6763.917    881.11181    21534.805     6.477393 
    4800    885.77098    -6862.661   -6763.8519   -130.66662    21572.406    6.5285074 
    4810    897.93645   -6863.9767   -6763.8105    -992.5612     21609.92    6.5876075 
    4820       878.45   -6861.8099   -6763.8174   -1468.6353    21646.174    6.6470394 
    4830    871.13289   -6861.0448   -6763.8686   -1990.0485    21680.386    6.7019798 
    4840     862.6062   -6860.1687   -6763.9436   -2183.4597    21711.877    6.7532718 
    4850    844.60183    -6858.253   -6764.0364   -2149.6574    21740.359    6.7991102 
    4860    850.06813   -6858.9555   -6764.1292   -2291.2163    21765.783    6.8367152 
    4870    862.31277   -6860.4112    -6764.219   -2210.8557    21788.017    6.8730631 
    4880    881.07625   -6862.6286   -6764.3432   -2111.8317    21807.115    6.9161681 
    4890    884.84637   -6863.2362   -6764.5303   -1914.5394    21823.242    6.9701942 
    4900    866.01212   -6861.3974   -6764.7924    -1817.551    21836.625    7.0344852 
    4910    835.16911   -6858.2379   -6765.0735   -1646.3696    21847.431    7.1045864 
    4920    842.34269     -6859.29   -6765.3254   -1667.6722    21855.879    7.1708211 
    4930    865.30306   -6862.0832   -6765.5574   -1417.0793    21862.018    7.2277849 
    4940    856.47929   -6861.3508   -6765.8093   -554.81656    21866.241    7.2797191 
    4950    855.36319   -6861.4918   -6766.0748    204.06466    21869.682    7.3339764 
    4960    855.35203   -6861.7587   -6766.3429    599.23064    21873.349    7.3959544 
    4970    855.32948   -6862.0278   -6766.6146    1250.4059    21877.887    7.4634189 
    4980    862.17584   -6863.0714   -6766.8944    1257.4975    21884.059    7.5259586 
    4990    859.77337   -6863.1058   -6767.1968    892.76098    21891.918    7.5762005 
    5000    852.33472   -6862.5793   -6767.5001    166.27454    21900.939    7.6170792 
Loop time of 2310.04 on 16 procs for 3000 steps with 864 atoms

Performance: 0.112 ns/day, 213.893 hours/ns, 1.299 timesteps/s
97.6% CPU use with 16 MPI tasks x 1 OpenMP threads

MPI task timing breakdown:
Section |  min time  |  avg time  |  max time  |%varavg| %total
---------------------------------------------------------------
Pair    | 1548.1     | 1941.4     | 2281.8     | 485.5 | 84.04
Bond    | 0.00027657 | 0.00095326 | 0.002517   |   0.0 |  0.00
Neigh   | 0.030471   | 0.040963   | 0.053712   |   3.7 |  0.00
Comm    | 25.351     | 265.62     | 731.55     |1280.6 | 11.50
Output  | 0.18139    | 0.18435    | 0.22654    |   2.5 |  0.01
Modify  | 1.1878     | 102.81     | 182.78     | 781.4 |  4.45
Other   |            | 0.01559    |            |       |  0.00

Nlocal:        54.0000 ave          71 max          41 min
Histogram: 1 1 3 2 2 3 1 1 1 1
Nghost:        471.375 ave         560 max         413 min
Histogram: 3 1 4 0 1 4 1 0 0 2
Neighs:         0.00000 ave           0 max           0 min
Histogram: 16 0 0 0 0 0 0 0 0 0
FullNghs:      2165.62 ave        3380 max        1269 min
Histogram: 2 3 1 3 0 4 0 1 1 1

Total # of neighbors = 34650
Ave neighs/atom = 40.104167
Ave special neighs/atom = 0.0000000
Neighbor list builds = 300
Dangerous builds = 300
Setting up Verlet run ...
  Unit style    : metal
  Current step  : 5000
  Time step     : 0.001
Per MPI rank memory allocation (min/avg/max) = 8.898 | 8.906 | 8.914 Mbytes
Step Temp PotEng TotEng Press Volume c_msd[4] 
    5000    852.33472   -6862.5793   -6767.5001    166.27454    21900.939    7.6170792 
    5010    871.63248   -6864.7328   -6767.5009   -475.59774    21900.897    7.6354522 
    5020    868.11311   -6864.3505   -6767.5112   -667.04422    21900.259    7.6549235 
    5030    850.93133   -6862.4592   -6767.5365   -701.59017    21898.704    7.6770827 
    5040    837.00073   -6860.9063   -6767.5376   -534.59448    21896.204    7.6999931 
    5050    838.56502   -6861.0282    -6767.485    -240.7534     21892.99    7.7199238 
    5060    838.84519    -6860.948   -6767.3735   -117.50701    21889.427    7.7364082 
    5070    829.15246   -6859.6831   -6767.1899   -93.269017    21885.673    7.7504921 
    5080    848.57397   -6861.5899   -6766.9302   -121.71195    21881.778     7.765722 
    5090    873.34871   -6864.0307   -6766.6074    453.94719    21877.793    7.7891243 
    5100    856.08098   -6861.7547   -6766.2576     1735.588    21874.531    7.8193241 
    5110    841.90014   -6859.7869   -6765.8716      2417.46    21873.616    7.8475941 
    5120    857.11651   -6861.0214   -6765.4088    2287.4085    21875.978     7.867981 
    5130    861.77112   -6861.0028    -6764.871    1930.6001    21881.522    7.8784315 
    5140    845.04597   -6858.5386   -6764.2725     1321.381    21889.763    7.8812325 
    5150    847.31238   -6858.1065   -6763.5875    46.381838    21899.798    7.8822719 
    5160    845.79504   -6857.1442   -6762.7945    -929.7636    21909.986    7.8916145 
    5170     851.3833   -6856.9041    -6761.931   -1050.9347    21919.038    7.9112361 
    5180     860.1166   -6856.9841   -6761.0368   -1068.2879    21926.669    7.9361341 
    5190    855.49037   -6855.6008   -6760.1696   -1126.5454    21932.839    7.9619355 
    5200    872.90224   -6856.7499   -6759.3764   -1293.5811    21937.456    7.9819533 
    5210     874.8318   -6856.2835   -6758.6947   -1356.3177    21940.304      7.99574 
    5220     862.9345    -6854.414   -6758.1523   -1391.4711    21941.277    8.0081237 
    5230    867.17461   -6854.4568   -6757.7221    -1619.362    21940.272    8.0195779 
    5240    858.74322   -6853.1621    -6757.368    -1527.712    21937.044    8.0261652 
    5250    889.75882   -6856.3397   -6757.0857   -1699.2251    21931.629    8.0297508 
    5260    918.22233   -6859.3388   -6756.9097   -1823.0189    21923.796    8.0349145 
    5270    899.62557   -6857.2265   -6756.8719   -1198.5941    21913.466    8.0418103 
    5280    878.67438   -6854.9454    -6756.928   -795.11611    21901.367    8.0456919 
    5290    862.03116    -6853.169   -6757.0081   -577.99827    21888.082    8.0417318 
    5300    868.44645   -6853.9582   -6757.0817   -349.51768    21873.906    8.0327457 
    5310    877.10767   -6854.9928   -6757.1501    76.593646    21859.192    8.0251915 
    5320    882.67978   -6855.7065   -6757.2422    353.37344    21844.483    8.0244497 
    5330    882.54278   -6855.8195   -6757.3706    364.10219    21830.167    8.0340577 
    5340    880.88301   -6855.8027   -6757.5389    98.440912    21816.263    8.0547183 
    5350    885.20083   -6856.4914    -6757.746    -27.57531    21802.457    8.0823719 
    5360    888.45227   -6857.1152   -6758.0071    74.170959    21788.555    8.1098676 
    5370    864.74792   -6854.7685   -6758.3045    927.28367    21774.803    8.1330245 
    5380    862.51533   -6854.8225   -6758.6077    1109.3959    21762.165    8.1469402 
    5390     860.1791   -6854.8575   -6758.9033    1129.2633    21750.979    8.1525184 
    5400    857.30823   -6854.8179   -6759.1839    1487.8561    21741.338    8.1552818 
    5410    884.60353   -6858.1485   -6759.4697    1674.5359    21733.656    8.1589292 
    5420    893.97217   -6859.5272   -6759.8032    2207.9591    21728.288    8.1651793 
    5430    887.32182   -6859.1943   -6760.2123    2925.8435    21725.951    8.1701228 
    5440    891.79135     -6860.17   -6760.6893    3030.3604    21727.541    8.1720217 
    5450    907.11261    -6862.443   -6761.2532    2515.3644    21733.266    8.1770319 
    5460     899.0681   -6862.2056   -6761.9132     1601.609    21742.463    8.1894118 
    5470    872.84272   -6859.9775   -6762.6106    951.75255    21753.984    8.2071216 
    5480    868.01019   -6860.1192   -6763.2913    688.56154    21766.984    8.2305239 
    5490    866.15781    -6860.554   -6763.9328    516.24008    21781.077    8.2609772 
    5500    855.26914   -6859.9197   -6764.5131    360.46884    21796.018    8.2937978 
    5510    855.15802   -6860.4062   -6765.0121   -193.25088    21811.567    8.3256724 
    5520    866.01848   -6862.0445   -6765.4388   -1148.5801    21826.951    8.3553051 
    5530     856.1209   -6861.3046    -6765.803   -1466.7492    21840.965    8.3829102 
    5540    838.77871   -6859.6715   -6766.1045   -1087.0906    21853.175    8.4093422 
    5550    827.89331   -6858.6654   -6766.3126   -1069.7316    21863.954    8.4377418 
    5560    845.58917   -6860.7584   -6766.4317   -1476.7318    21873.287    8.4698814 
    5570    844.25596   -6860.6702   -6766.4922   -1337.2493    21880.724    8.4978904 
    5580    833.05891   -6859.4392   -6766.5103   -1304.2619     21886.34     8.511694 
    5590     845.4549    -6860.785   -6766.4732   -1664.8983    21890.164    8.5134869 
    5600    866.59016   -6863.0754    -6766.406   -2282.4887    21891.658    8.5106809 
    5610    857.82903   -6862.0322   -6766.3401   -2413.1356    21890.018    8.5119143 
    5620     840.6289    -6860.045   -6766.2716   -1637.5308    21885.118    8.5240285 
    5630    849.13561   -6860.8978   -6766.1755   -998.12743    21877.858    8.5545394 
    5640    863.28401   -6862.3554   -6766.0548   -473.03183    21869.128    8.6059339 
    5650    864.78576   -6862.4074   -6765.9392   -12.070089    21859.641     8.671045 
    5660    834.94753   -6858.9514   -6765.8117     534.0498    21850.081    8.7358913 
    5670    838.89575   -6859.2296   -6765.6495    350.09546    21841.076    8.7864669 
    5680    850.43561   -6860.3012   -6765.4338   -36.274751    21832.461     8.817766 
    5690    852.48103   -6860.2779   -6765.1823   -73.118403     21823.77    8.8312256 
    5700     869.0674   -6861.8603   -6764.9145   -218.32824    21814.883    8.8332768 
    5710    861.51401    -6860.751   -6764.6478   -174.82572    21805.645    8.8392509 
    5720    844.92876    -6858.635   -6764.3819    66.651337      21796.1    8.8565007 
    5730    856.53872   -6859.6402    -6764.092    459.70054    21786.585    8.8787079 
    5740    855.63646   -6859.2171   -6763.7695    1077.4817    21777.664    8.8951791 
    5750    862.50782   -6859.6532   -6763.4392    1192.6565    21770.086    8.8983697 
    5760     866.2986   -6859.7433   -6763.1064    901.67906    21764.037    8.8929806 
    5770    851.67094   -6857.7873   -6762.7821    598.05653    21759.173    8.8863068 
    5780    849.18817   -6857.1592    -6762.431    380.57824    21755.116     8.879212 
    5790    870.07614   -6859.0998   -6762.0415    146.17044    21751.524    8.8716343 
    5800    877.66364   -6859.5446   -6761.6399    553.83638     21748.19    8.8657065 
    5810     861.6719   -6857.3692   -6761.2484    1369.9659    21745.651    8.8607819 
    5820    865.43299   -6857.3901   -6760.8497    1672.3297    21744.928    8.8521565 
    5830    872.55202   -6857.7722   -6760.4377    1306.0411    21746.426    8.8424624 
    5840    868.06145   -6856.8511   -6760.0176    752.64215    21749.758     8.837339 
    5850    883.21199   -6858.1149   -6759.5913     -206.212    21754.122     8.837341 
    5860    873.57927   -6856.6064   -6759.1573   -621.50545    21758.338    8.8386304 
    5870    873.78435   -6856.1911   -6758.7191   -882.14261    21761.764    8.8389413 
    5880    893.03894    -6857.876   -6758.2562   -966.07651    21764.053    8.8445669 
    5890    917.09656   -6860.0944   -6757.7909   -868.21884    21765.064    8.8627546 
    5900    926.90911   -6860.7653   -6757.3672   -708.01624    21764.889    8.8890944 
    5910    927.27714   -6860.4626   -6757.0234   -310.32501    21763.758    8.9130946 
    5920    931.54717    -6860.689   -6756.7735    527.17966    21762.252    8.9274712 
    5930    921.96778   -6859.4891   -6756.6422    1689.9226    21761.499    8.9322634 
    5940    920.37319   -6859.3184   -6756.6494    2158.5325    21762.977    8.9334606 
    5950    922.24275   -6859.6955    -6756.818    1827.4255    21767.382    8.9396121 
    5960    910.58894   -6858.7693   -6757.1918    1527.0073    21774.426      8.95485 
    5970    888.71238   -6856.9106   -6757.7734    1156.7194    21783.726    8.9749963 
    5980    882.27635   -6856.9528   -6758.5335     201.2674    21794.706    8.9940485 
    5990    897.96558   -6859.6228   -6759.4533   -939.29607    21806.136    9.0137764 
    6000    893.07434   -6860.1343   -6760.5105   -1395.6809    21816.554    9.0440217 
    6010    875.29731   -6859.2613   -6761.6205   -1005.1281    21825.305    9.0843399 
    6020    841.22299   -6856.4845   -6762.6448   -191.22953    21832.885    9.1274996 
    6030    838.84359   -6857.0839   -6763.5096   -56.114198    21840.237     9.164431 
    6040    847.96527   -6858.8119   -6764.2201   -177.17082     21847.64    9.1910153 
    6050    850.04951   -6859.6344   -6764.8101   -923.53255    21854.834     9.211038 
    6060    845.66173   -6859.6296   -6765.2948   -1461.3798    21860.913    9.2324484 
    6070    855.26338   -6861.1054   -6765.6994   -1835.5895    21865.079    9.2592727 
    6080    874.65732    -6863.636   -6766.0667   -1998.0369    21866.775    9.2861225 
    6090     871.3981   -6863.6392   -6766.4334   -1719.2432    21865.765    9.3123615 
    6100    865.80321   -6863.3828   -6766.8012   -1445.9197    21862.322    9.3404625 
    6110    861.20268   -6863.2258   -6767.1573   -1133.3657    21856.785    9.3672295 
    6120    853.86677   -6862.7329   -6767.4828   -589.84772    21849.578     9.387181 
    6130    870.25113   -6864.8696   -6767.7917   -168.92622    21841.388    9.3985973 
    6140    869.88169   -6865.1417    -6768.105    122.02014    21832.797     9.404542 
    6150    854.79453   -6863.7777   -6768.4241    483.74206    21824.242    9.4102201 
    6160    844.75647   -6862.9583   -6768.7245    609.66615     21816.17    9.4218348 
    6170    831.85666   -6861.7669    -6768.972    432.60625    21808.751    9.4425035 
    6180    838.03767   -6862.6449   -6769.1606    336.34381     21801.81    9.4709718 
    6190    844.08908   -6863.4584   -6769.2989    199.59868    21795.199    9.5003758 
    6200     843.2741    -6863.469   -6769.4005    64.656707    21788.729    9.5297943 
    6210    835.84536   -6862.6993   -6769.4595    281.48237    21782.275    9.5617616 
    6220    837.93116   -6862.9367   -6769.4643    399.77213    21776.071    9.5934142 
    6230    847.30709   -6863.9379   -6769.4195     489.5381    21770.295    9.6196563 
    6240    832.25438   -6862.1627   -6769.3235    1165.6165    21765.176    9.6402432 
    6250    833.73035   -6862.1774   -6769.1735    1482.2001    21761.499    9.6594888 
    6260    835.69489   -6862.1698   -6768.9468    1518.9231    21759.787    9.6882092 
    6270    836.17156   -6861.9246   -6768.6484    1431.2064    21760.158    9.7280319 
    6280    844.05536   -6862.4326    -6768.277    1065.5414    21762.508     9.769877 
    6290    858.41041    -6863.601    -6767.844     736.7203    21766.415    9.8066017 
    6300    841.70921   -6861.2624   -6767.3685    611.51683    21771.464    9.8386422 
    6310    832.99917   -6859.7701   -6766.8478    264.17942    21777.449    9.8736084 
    6320    836.30564   -6859.5374   -6766.2462   -448.30586    21783.901    9.9159186 
    6330    817.38378   -6856.7566   -6765.5762   -755.52301    21789.937    9.9602323 
    6340    823.15577   -6856.6672    -6764.843   -618.01604    21795.124    9.9971265 
    6350     846.8716   -6858.5134   -6764.0436    -573.9979     21799.55    10.020152 
    6360    839.20557   -6856.8718   -6763.2572   -298.94887    21803.316     10.02804 
    6370    863.21698   -6858.8329   -6762.5398   -771.63602    21806.647    10.022634 
    6380    874.45634    -6859.443    -6761.896   -1047.1802    21809.018    10.016015 
    6390    852.59343   -6856.4683   -6761.3603   -821.97054    21810.055     10.01472 
    6400    846.12926   -6855.2885   -6760.9015   -1091.8413     21809.89     10.01402 
    6410    848.21459   -6855.1078   -6760.4882   -1314.7381    21808.197    10.014844 
    6420    862.66396    -6856.344   -6760.1125   -942.81303    21804.711    10.019875 
    6430    875.94921    -6857.505   -6759.7915   -431.36253    21799.842    10.024793 
    6440    872.96244   -6856.9202   -6759.5399   -210.25385    21794.225    10.027815 
    6450    880.58829   -6857.5757   -6759.3448   -94.801835    21788.197    10.032175 
    6460    905.97695   -6860.2736   -6759.2105   -8.6691574    21781.917    10.038159 
    6470    906.98101   -6860.3446   -6759.1695   -142.92707    21775.464    10.043702 
    6480    870.09979   -6856.2673   -6759.2063    114.95336    21768.748    10.044881 
    6490    862.12047   -6855.4358   -6759.2649    66.219157    21762.028    10.043698 
    6500    875.86318   -6857.0338     -6759.33   -465.41156    21755.228    10.047933 
    6510    866.78458   -6856.0997   -6759.4086   -799.75706    21747.691    10.061723 
    6520     854.1366   -6854.7787   -6759.4985   -570.37521     21739.01    10.082706 
    6530     855.9063   -6855.0593   -6759.5817   -70.387612    21729.441    10.101224 
    6540    864.89063   -6856.1164   -6759.6365    482.19409    21719.645    10.106255 
    6550    895.57448   -6859.6174   -6759.7148    552.50467    21710.314    10.090125 
    6560    888.58184   -6858.9769   -6759.8543    457.60571     21701.61    10.057059 
    6570    851.09691   -6854.9902    -6760.049     304.2957    21693.417      10.0148 
    6580    856.56585   -6855.7995   -6760.2483   -299.31261    21685.454    9.9739441 
    6590    869.09431   -6857.4049   -6760.4561   -491.21059    21677.019    9.9453649 
    6600    861.38439    -6856.771   -6760.6823   -253.18953    21667.842    9.9288569 
    6610    863.60559   -6857.2547   -6760.9182   -325.50627    21658.145    9.9182029 
    6620    867.01838   -6857.8921   -6761.1749   -288.22666    21647.904    9.9078707 
    6630      877.347   -6859.3367   -6761.4673   -212.60124    21637.142    9.8886382 
    6640     878.3159   -6859.7927   -6761.8153    414.67248    21626.036    9.8565582 
    6650    868.54295   -6859.1019   -6762.2146    825.02175    21615.348    9.8222115 
    6660    866.89982   -6859.3728   -6762.6689    655.72161    21605.609    9.7917028 
    6670    869.66782    -6860.188   -6763.1752    605.54712    21596.704    9.7579172 
    6680    879.78709   -6861.8964   -6763.7548    431.82262    21588.529    9.7217262 
    6690    869.85025   -6861.4323   -6764.3991    633.28193    21580.928    9.6976491 
    6700    868.35111   -6861.9513   -6765.0854    595.54725     21574.09    9.6917571 
    6710    881.91339   -6864.1868    -6765.808    392.20342    21567.979    9.6977103 
    6720     889.1181   -6865.7745    -6766.592    569.09678    21562.402    9.7051168 
    6730    853.88074   -6862.6368   -6767.3851    1114.3288    21557.594    9.7079083 
    6740    821.57659   -6859.7233   -6768.0752    1765.3918    21554.272    9.7055926 
    6750    818.32696   -6859.9003   -6768.6147    1940.0798     21553.25    9.7075087 
    6760    828.22599   -6861.3962   -6769.0063    1938.2699    21554.854    9.7174075 
    6770    842.62975   -6863.2943   -6769.2977    1538.7759    21559.068    9.7327025 
    6780    847.16863    -6864.022   -6769.5191    900.77599    21565.375    9.7525048 
    6790    835.15435   -6862.8339   -6769.6712    661.31697     21573.02    9.7746237 
    6800    829.60189   -6862.2905   -6769.7471    205.56586    21581.596     9.792241 
    6810    848.32771   -6864.3853   -6769.7531   -754.35021    21590.453    9.7990696 
    6820    851.75831   -6864.7303   -6769.7154   -1210.5507    21598.423    9.7974568 
    6830    854.75093   -6865.0132   -6769.6645   -1159.5642    21604.858    9.7963882 
    6840    857.26785     -6865.23   -6769.6005   -680.13241    21609.819    9.8046703 
    6850    855.68817   -6864.9826   -6769.5293   -583.72156    21613.831    9.8203852 
    6860    847.69301   -6864.0128   -6769.4514   -1018.2607    21617.018    9.8312049 
    6870    853.07192   -6864.5176   -6769.3561   -1742.2988    21618.788    9.8309155 
    6880    844.66282   -6863.4541   -6769.2307   -2019.6377    21618.248    9.8307853 
    6890    832.19738   -6861.9098   -6769.0769    -1798.607     21615.01    9.8372783 
    6900    849.36774   -6863.6312   -6768.8829   -1682.5402    21609.266    9.8478366 
    6910    844.91293   -6862.9154   -6768.6641   -1186.2384    21601.244    9.8650521 
    6920    836.20144   -6861.7011   -6768.4215   -666.28856    21591.563    9.8880501 
    6930    838.62786   -6861.6883   -6768.1381   -141.39864    21580.926    9.9158125 
    6940    837.04053   -6861.1815   -6767.8084    211.27766    21570.033    9.9490818 
    6950    851.04412    -6862.384   -6767.4487    200.45042    21559.324    9.9824632 
    6960    851.87292   -6862.1012   -6767.0735    463.34337     21548.88    10.011258 
    6970    852.57643   -6861.8072    -6766.701    384.91287    21538.954    10.034107 
    6980    848.75631   -6861.0168   -6766.3368     410.9403    21529.504     10.05534 
    6990     855.1635   -6861.3631   -6765.9684    654.78803    21520.592      10.0842 
    7000    872.55967   -6862.9442   -6765.6089    762.95782    21512.488    10.123983 
    7010    846.21033   -6859.6692   -6765.2731    1386.2182    21505.458    10.162488 
    7020    844.66994   -6859.1681   -6764.9439    1705.5478    21500.226    10.182865 
    7030    868.45054   -6861.4836   -6764.6066     1801.479    21497.262    10.190947 
    7040    880.67436   -6862.5446    -6764.304    1718.5493    21496.698    10.200875 
    7050    875.44536   -6861.7216   -6764.0644    1941.4945    21498.513    10.220283 
    7060    879.09411   -6861.9491   -6763.8848    2010.7717    21502.944    10.249246 
    7070    878.49641    -6861.752   -6763.7544    1881.1205    21510.105     10.28463 
    7080    879.74111   -6861.8134    -6763.677    1592.2522     21519.83    10.324684 
    7090    879.69416   -6861.7744   -6763.6432    1228.9027    21531.777    10.371047 
    7100    886.66958   -6862.5651   -6763.6558    675.05299    21545.446    10.426059 
    7110     876.1551   -6861.4435   -6763.7071     504.4392     21560.18     10.48292 
    7120    870.52679    -6860.899   -6763.7904    680.17436    21575.734    10.529629 
    7130     878.2575   -6861.8639   -6763.8929    882.82963    21592.314    10.559837 
    7140    875.20614   -6861.6457   -6764.0152    1161.6115    21610.224    10.579212 
    7150    868.94172   -6861.0967    -6764.165     1155.662    21629.789    10.600735 
    7160     859.9446   -6860.2421   -6764.3139    958.66826    21651.036    10.635152 
    7170    869.31576   -6861.4282   -6764.4547     636.7012    21673.698    10.681794 
    7180    858.65196   -6860.3714   -6764.5874    521.26521    21697.392     10.73488 
    7190    835.86323   -6857.9331   -6764.6913    345.05366    21721.915    10.793125 
    7200    838.44704   -6858.2635   -6764.7335   -364.19295    21746.949    10.857249 
    7210    844.07954   -6858.8638   -6764.7055   -973.58085    21771.593    10.928733 
    7220    854.43523   -6859.9516   -6764.6381   -1246.3529     21795.01    11.010172 
    7230    859.12175   -6860.3955   -6764.5592   -1334.4375    21816.767    11.095735 
    7240    845.42141   -6858.7819   -6764.4738   -1373.2007    21836.727    11.165563 
    7250    855.30486   -6859.7827   -6764.3722   -1747.8561    21854.769    11.207789 
    7260    858.48965   -6860.0327   -6764.2669   -1776.0948    21870.444    11.235943 
    7270    846.08972   -6858.5489   -6764.1663   -1589.2812    21883.668    11.273154 
    7280    825.69301   -6856.1475   -6764.0402    -1252.707    21894.691    11.331318 
    7290    823.17742   -6855.6885   -6763.8618   -812.55573    21903.986    11.402161 
    7300    839.42201   -6857.2634   -6763.6246   -622.69549    21912.095    11.472874 
    7310    836.18828   -6856.6299   -6763.3518   -92.289699    21919.378    11.534492 
    7320    842.06308   -6856.9837   -6763.0502   -86.838833    21926.434    11.584327 
    7330    873.41745   -6860.1537   -6762.7227   -463.29608    21933.313    11.629616 
    7340    903.20274   -6863.1936     -6762.44   -1128.1468    21939.471    11.678775 
    7350    907.50456   -6863.5091   -6762.2756   -1550.4166     21944.05    11.733065 
    7360    876.93159   -6860.0488   -6762.2258   -1024.8832    21946.583     11.78689 
    7370     840.2448   -6855.9431   -6762.2125   -412.02971    21947.699    11.838899 
    7380    837.00105   -6855.5214   -6762.1526   -444.49963    21948.153     11.89362 
    7390     852.3711    -6857.122   -6762.0388   -383.73518    21948.008     11.95618 
    7400    849.70613   -6856.6895   -6761.9035   -96.078941    21947.361    12.027147 
    7410    834.59995     -6854.85   -6761.7491    222.92379    21946.608    12.104036 
    7420    835.60336   -6854.7736   -6761.5608    4.0746287    21946.121    12.181164 
    7430    835.57134   -6854.5395   -6761.3303   -357.21128    21945.622    12.249929 
    7440     817.3379   -6852.2226   -6761.0473    20.850026    21944.755    12.309628 
    7450    833.90399   -6853.7356   -6760.7123   -146.83214    21943.852    12.364036 
    7460    860.53819   -6856.3417   -6760.3474   -797.08216    21942.704    12.414561 
    7470    874.68345   -6857.5829   -6760.0107   -1520.4983    21940.435    12.459625 
    7480    871.64991   -6856.9639     -6759.73   -1782.3895    21936.137    12.496395 
    7490    876.10702   -6857.2396   -6759.5086   -2145.7615    21929.375    12.520599 
    7500    875.21447   -6856.9716   -6759.3402   -2118.7106    21919.729    12.534905 
    7510    865.68603   -6855.7803   -6759.2117   -1828.5044    21907.242    12.545705 
    7520    867.88451   -6855.9251   -6759.1112   -1709.5736    21892.278    12.550523 
    7530    863.43253   -6855.3423   -6759.0251   -1349.2923    21875.093      12.5426 
    7540    880.18921   -6857.1492   -6758.9628   -1360.9985    21856.108    12.522003 
    7550    886.63921   -6857.8484   -6758.9424   -1164.6247    21835.417    12.496464 
    7560    879.67181   -6857.1002   -6758.9715   -654.09804    21813.302     12.47791 
    7570    874.82293   -6856.6218    -6759.034    -164.6288    21790.441     12.47655 
    7580    864.94807   -6855.6044   -6759.1181    229.11266    21767.505    12.490368 
    7590    851.25503   -6854.1427   -6759.1839    769.84146    21745.082    12.502816 
    7600    877.01565   -6857.0735   -6759.2411    937.32291    21723.815    12.496544 
    7610    876.29603   -6857.0589   -6759.3067    1374.6534    21704.045    12.467601 
    7620    871.43221   -6856.6041   -6759.3945    1748.4322    21686.304    12.423091 
    7630    870.19726   -6856.5753   -6759.5035    1762.6523    21671.032    12.373463 
    7640    852.31347    -6854.694   -6759.6172    2041.8795    21658.299    12.335334 
    7650    839.35135   -6853.3372   -6759.7063    2283.0626    21648.423    12.322655 
    7660    852.82638   -6854.8862   -6759.7521    1781.1875    21641.622    12.339068 
    7670    879.11039   -6857.8531    -6759.787      1219.36     21637.28    12.378691 
    7680    868.41522   -6856.7119   -6759.8389    1442.0502     21634.74    12.430303 
    7690    869.93522   -6856.9501   -6759.9075    1726.2073    21634.195    12.475741 
    7700    893.43756   -6859.6761   -6760.0118    1811.9207    21635.971     12.50169 
    7710    888.48771    -6859.291   -6760.1788    2420.4023    21640.297    12.520689 
    7720    878.43838   -6858.3995   -6760.4084    2542.2003    21647.841    12.548958 
    7730     888.1933   -6859.7646   -6760.6853    2115.4895    21658.772     12.59065 
    7740    884.78242    -6859.717   -6761.0182     1735.533    21672.569    12.641422 
    7750    850.52469   -6856.2566   -6761.3793      1512.11    21688.735    12.686237 
    7760    859.50403   -6857.6136   -6761.7347    593.18868    21706.826      12.7167 
    7770    873.37581   -6859.5159   -6762.0895    231.04908    21725.767    12.747253 
    7780    851.92996   -6857.5018   -6762.4677    613.17766    21745.074     12.78808 
    7790    850.85113   -6857.7663   -6762.8526    446.49498    21765.089    12.837392 
    7800    855.33575   -6858.6485   -6763.2345    230.71382    21785.673    12.895647 
    7810    858.91765   -6859.4447   -6763.6312   -157.19584    21806.501    12.967289 
    7820    865.08712   -6860.5648    -6764.063   -812.82036    21827.035    13.046658 
    7830    870.48291   -6861.6637     -6764.56   -1488.2882    21846.395    13.118246 
    7840    874.10109   -6862.6799   -6765.1726   -1839.8854    21863.697    13.173987 
    7850    856.80925   -6861.4972   -6765.9189   -1986.4861    21878.434    13.222934 
    7860    843.79365     -6860.93   -6766.8036   -2540.9574    21890.303    13.272648 
    7870    817.73027   -6859.0027   -6767.7836   -3106.3773    21898.605    13.318031 
    7880    814.42504   -6859.6557   -6768.8054   -3408.1248    21902.598    13.347735 
    7890    825.25646   -6861.8923   -6769.8337   -3319.9914    21901.874    13.358482 
    7900    828.30115   -6863.2209   -6770.8226   -2957.9955    21896.541    13.355366 
    7910    819.87921   -6863.1647   -6771.7059   -2407.3355    21887.122     13.34175 
    7920    789.42386   -6860.4584   -6772.3969   -1533.4021    21874.431    13.317647 
    7930    770.37729   -6858.7754   -6772.8387   -864.04227     21859.64    13.289145 
    7940    807.02437   -6863.0911   -6773.0663   -1083.3567      21843.6    13.264426 
    7950    843.64236   -6867.2752   -6773.1656   -1277.6168    21826.129    13.245169 
    7960    839.13768   -6866.8059   -6773.1988   -944.24924    21807.027    13.231173 
    7970    833.98875   -6866.2126   -6773.1799   -633.76528    21786.704     13.22022 
    7980    831.08475    -6865.817   -6773.1083   -308.60354    21765.604    13.205943 
    7990    829.25557   -6865.4908   -6772.9861    144.96495    21744.199    13.186537 
    8000    829.87749   -6865.3926   -6772.8185     479.9579    21723.066     13.16914 
    8010    800.47727   -6861.8847   -6772.5903    1234.7868    21702.776    13.154993 
    8020    783.05077    -6859.623   -6772.2725    2012.8934    21684.301     13.13627 
    8030    802.02448   -6861.3203   -6771.8532    2210.6175      21668.6    13.112318 
    8040     823.5187   -6863.2212   -6771.3565    2142.8709    21655.974     13.09249 
    8050    853.30206   -6866.0336   -6770.8464    1872.1398    21646.312    13.084457 
    8060    847.59874   -6864.9083   -6770.3574     1625.444    21639.252    13.088509 
    8070    822.32883   -6861.6287   -6769.8967    1836.2463    21634.497    13.105999 
    8080    835.39912   -6862.6077   -6769.4176    2051.6847    21632.261    13.141775 
    8090    865.91333   -6865.5175   -6768.9236    2369.0245    21632.851    13.192138 
    8100     859.2893   -6864.3207   -6768.4657    2658.0646    21636.658    13.244251 
    8110    845.79708   -6862.3996   -6768.0497    2587.8608    21644.026    13.287692 
    8120    865.06097   -6864.1506   -6767.6518     2064.605    21654.839    13.324275 
    8130     868.1862   -6864.1229   -6767.2754    1477.0123    21668.431    13.363965 
    8140    867.11158    -6863.664   -6766.9364    1185.9204     21684.04    13.411853 
    8150    866.70963   -6863.3145   -6766.6318    1294.9516    21701.279    13.469829 
    8160    846.62844   -6860.7924   -6766.3497    1523.4761    21720.266    13.538181 
    8170    844.10219   -6860.2216   -6766.0607    1293.8084    21741.247    13.613112 
    8180     851.6038    -6860.738   -6765.7404    1071.8188    21763.978    13.688739 
    8190    843.48432   -6859.4948   -6765.4029    1313.6936    21788.211    13.760191 
    8200     833.4807   -6858.0242   -6765.0481     1411.872    21814.189    13.822967 
    8210    844.23171   -6858.8223    -6764.647    1011.5507    21841.992    13.873806 
    8220    856.86476   -6859.7877   -6764.2031    498.30369    21871.118    13.920856 
    8230     848.9041   -6858.4403   -6763.7437    239.29022    21900.909    13.976654 
    8240    854.73702   -6858.6218   -6763.2746    172.00392    21930.983    14.039737 
    8250    884.71196   -6861.5031   -6762.8122    333.52351    21961.224    14.097501 
    8260    874.48982   -6859.9506   -6762.3999    622.83782    21991.833      14.1418 
    8270    864.42231   -6858.4802   -6762.0526    488.31263    22023.143    14.169578 
    8280     859.9678   -6857.6497    -6761.719    -149.0375    22054.962    14.193796 
    8290    862.06316   -6857.5479   -6761.3834   -761.46973    22086.419      14.2282 
    8300    863.84828   -6857.4154   -6761.0519   -852.14144     22116.73    14.270164 
    8310     877.7466   -6858.6463   -6760.7323   -1278.8546    22145.634    14.312231 
    8320    883.96029   -6859.0517   -6760.4446   -1599.8647    22172.589    14.353022 
    8330    872.35273    -6857.517   -6760.2047   -1992.4156    22197.109    14.388878 
    8340    886.24347   -6858.8669   -6760.0051   -2844.1028    22218.572    14.410291 
    8350    894.04985   -6859.5946   -6759.8619   -3296.3094    22235.883    14.423903 
    8360    862.40795   -6855.9879    -6759.785   -2918.4643    22248.467    14.451235 
    8370    859.28072   -6855.5901    -6759.736   -2685.5731    22256.761    14.500801 
    8380    867.03039   -6856.4092   -6759.6907   -2664.8852    22261.123    14.557373 
    8390    843.27381    -6853.711   -6759.6425   -2424.0276    22261.669    14.598006 
    8400    857.68963   -6855.2549   -6759.5783   -2452.5158      22258.7    14.613157 
    8410    858.16644   -6855.2195   -6759.4898   -2351.5707    22252.259    14.615149 
    8420    843.54834   -6853.4848   -6759.3857   -2383.0246    22242.456    14.621568 
    8430    834.53599   -6852.3244   -6759.2307   -2476.5541      22229.3    14.634114 
    8440    855.37525   -6854.4354    -6759.017   -2661.5128    22212.669     14.65016 
    8450    873.09034   -6856.1549   -6758.7604   -2482.1465    22192.377    14.669844 
    8460    869.17512   -6855.4387   -6758.4809   -1994.7486    22168.707    14.689569 
    8470    856.01637   -6853.6575   -6758.1676   -1282.6657    22142.389    14.701647 
    8480    834.47076   -6850.8518   -6757.7653   -572.39404    22114.417    14.697761 
    8490    843.77285    -6851.341   -6757.2168     125.9469     22085.83    14.677233 
    8500     869.3778   -6853.4647   -6756.4843    783.66859    22057.628    14.645635 
    8510    877.93266   -6853.5344   -6755.5997    1289.5588    22030.728    14.605033 
    8520    882.07579   -6853.0137   -6754.6168    1818.1626    22005.855    14.565558 
    8530    908.15526    -6854.894   -6753.5879    2151.2638    21983.702     14.53999 
    8540     941.4749   -6857.6248   -6752.6018    2132.7757    21964.687    14.526372 
    8550    952.77105   -6858.0772   -6751.7941    2358.7417    21948.824    14.514015 
    8560    948.59467   -6857.0439   -6751.2267    2821.1606    21936.404    14.499162 
    8570    951.05303    -6856.997   -6750.9056    2809.1182    21927.938    14.484046 
[...]
   22890    821.37673   -6850.1176   -6758.4918    426.76363    22010.116    40.891441 
   22900    844.43857   -6852.0355   -6757.8371    772.38826    22012.262     40.95404 
   22910    847.97548   -6851.5853   -6756.9923    1058.3054    22015.527    41.026035 
   22920    842.16337   -6849.9633   -6756.0187    830.61125     22020.22    41.104282 
   22930    841.30338   -6848.7961   -6754.9474    452.39415    22026.114    41.173296 
   22940     860.1987   -6849.8017   -6753.8452   -303.10672    22032.628    41.231543 
   22950     879.4545   -6850.9116   -6752.8071   -731.75109    22038.793    41.279805 
   22960    893.47085   -6851.6036   -6751.9356    -412.0787    22044.039    41.321692 
   22970    892.05697   -6850.7852   -6751.2749    519.20992    22048.812    41.369713 
   22980    899.06816   -6851.0975   -6750.8051    918.07298    22054.274    41.425802 
   22990    916.38897    -6852.723   -6750.4984     957.4808    22061.049    41.482341 
   23000    918.64019   -6852.8278   -6750.3521    889.13835    22069.225    41.541719 
   23010    913.94586   -6852.3015   -6750.3494    712.30339    22078.722    41.611657 
   23020     904.8456   -6851.3898   -6750.4529    390.53326    22089.288    41.687122 
   23030    891.21455   -6850.0569   -6750.6406    468.21088     22100.56    41.752477 
   23040    860.65097     -6846.87   -6750.8631    902.75243    22112.666    41.807573 
   23050    864.40129   -6847.5161   -6751.0908    912.06133    22126.089    41.853074 
   23060    881.03473   -6849.5993   -6751.3186    874.76463     22140.94     41.89283 
   23070    878.66156    -6849.602    -6751.586    1028.3234    22157.205    41.938518 
   23080    850.64478    -6846.759   -6751.8683    1375.6163    22175.124    41.991153 
   23090    868.49904   -6849.0259   -6752.1435     1123.935    22195.093     42.03956 
   23100    876.63928   -6850.2172   -6752.4267    1174.1933    22216.924    42.089324 
   23110    872.81771   -6850.1073   -6752.7432    1364.6252    22240.653     42.15337 
   23120    870.95965   -6850.2407   -6753.0838    1076.4054    22266.492    42.227563 
   23130     860.3028   -6849.4065   -6753.4384    649.83313    22294.088    42.298058 
   23140    846.48329   -6848.1992   -6753.7727    319.25892    22322.857     42.37462 
   23150    867.45483    -6850.848   -6754.0821   -516.99193    22352.217    42.478661 
   23160      868.805   -6851.3049   -6754.3884   -1018.0141    22381.071    42.604909 
   23170    854.96073   -6850.0724   -6754.7003   -1076.4369    22408.676    42.721876 
   23180    848.40639   -6849.6387   -6754.9977   -1090.9314     22434.87    42.814142 
   23190    831.74896   -6848.0339    -6755.251   -1055.3764    22459.588     42.88927 
   23200    831.44839    -6848.189   -6755.4397   -1305.2465    22482.808    42.964688 
   23210    849.87118   -6850.3769   -6755.5725   -1874.8681    22504.139    43.046872 
   23220    842.20357   -6849.6225   -6755.6734    -2342.224    22522.766    43.128425 
   23230    808.86551     -6845.95   -6755.7198   -2080.5778    22538.077    43.211239 
   23240    817.80099   -6846.9064   -6755.6795   -1818.9209    22550.326    43.293356 
   23250    822.13589   -6847.2454   -6755.5349    -1654.273    22559.893    43.367686 
   23260    830.72034   -6847.9642   -6755.2961   -1731.2934    22566.992    43.426828 
   23270    856.44087   -6850.5029   -6754.9656   -1912.1652    22571.525    43.472846 
   23280    870.08362   -6851.6301    -6754.571    -1895.185    22573.255    43.517041 
   23290    886.83272   -6853.0792   -6754.1517   -1699.9327    22572.199    43.556368 
   23300    886.47711   -6852.6154   -6753.7276   -1522.0638    22568.612    43.577544 
   23310    873.92989   -6850.7955   -6753.3073   -1223.7617     22562.78    43.579372 
   23320    846.80336   -6847.3221   -6752.8599   -758.48347    22555.152    43.576621 
   23330    835.65225   -6845.5568   -6752.3385    -430.1978    22546.382    43.580242 
   23340      839.789   -6845.3756   -6751.6959   -239.99207    22536.943    43.596405 
   23350    852.18526   -6845.9854   -6750.9229   -52.002969    22527.138    43.631482 
   23360    878.27665   -6848.0324   -6750.0593   -229.65801    22517.196    43.689984 
   23370    877.85635   -6847.1016   -6749.1754   -169.29696    22506.938      43.7598 
   23380    879.57464   -6846.4548    -6748.337    96.620688    22496.435    43.818762 
   23390    886.66508   -6846.4794   -6747.5705   -11.157663    22485.994    43.865123 
   23400    893.47351   -6846.5777   -6746.9094   -86.241487     22475.51    43.897035 
   23410    905.70688   -6847.4104   -6746.3774    112.87173    22464.926    43.910578 
   23420    897.28848   -6846.0796   -6745.9858   -49.104662    22454.442     43.90899 
   23430    871.15535   -6842.8955   -6745.7168   -413.62301     22443.84    43.904536 
   23440    866.14906   -6842.1333   -6745.5131   -734.40985    22432.601    43.913397 
   23450    880.43878   -6843.5612    -6745.347   -830.96292     22420.27    43.941751 
   23460    899.27967   -6845.5532   -6745.2372   -414.35569    22406.752    43.989909 
   23470    907.14758   -6846.4056   -6745.2119   -1.5980748    22392.565    44.044843 
   23480     909.8363   -6846.7802   -6745.2865    226.64414      22378.3    44.083381 
   23490    916.50763    -6847.697   -6745.4592    341.02385    22364.283    44.113893 
   23500    918.75915   -6848.2324   -6745.7435    660.70283    22350.704    44.148284 
   23510    900.79266   -6846.5941   -6746.1094    1209.9644    22338.047    44.165014 
   23520    910.06509   -6848.0644   -6746.5452    1201.9473    22326.983     44.15543 
   23530    898.25035    -6847.243   -6747.0418    1398.5425    22317.629    44.146581 
   23540     862.6513   -6843.7746   -6747.5446    1934.8887    22310.307    44.165057 
   23550    848.00526   -6842.5789   -6747.9827    1876.0791    22305.667    44.211981 
   23560    871.19753   -6845.5444    -6748.361    1408.1994     22303.67    44.268338 
   23570    887.43756   -6847.7088   -6748.7138    1205.8715    22303.764    44.318173 
   23580    884.65078   -6847.7627   -6749.0785    1286.2358    22305.655    44.352592 
   23590    877.35402    -6847.308   -6749.4379    1406.3813    22309.464    44.373698 
   23600    895.96897   -6849.7472   -6749.8005    1191.8938    22315.315    44.402951 
   23610    897.66189    -6850.334   -6750.1984    1251.6941    22323.003     44.46647 
   23620    882.11011    -6849.014   -6750.6133    1299.1738    22332.597    44.559646 
   23630    886.00793   -6849.8684   -6751.0329    1270.8976    22344.191    44.660732 
   23640    887.08879   -6850.4109   -6751.4548     1094.556    22357.755    44.754811 
   23650    875.27833   -6849.5111   -6751.8725    696.34633    22373.077    44.842294 
   23660    860.84674   -6848.2865   -6752.2577    110.84337    22389.606     44.91583 
   23670     857.6058   -6848.2531   -6752.5859   -679.65355    22406.476    44.964092 
   23680    865.48651   -6849.4154   -6752.8691   -1328.6916    22422.577    44.991355 
   23690    865.36889   -6849.6576   -6753.1244    -1361.401    22437.035    45.013055 
   23700    860.66299   -6849.3713   -6753.3631   -1386.2903      22449.7    45.054014 
   23710    863.67816   -6849.9249   -6753.5803   -1738.8107    22460.442    45.127832 
   23720    885.20507   -6852.5433   -6753.7973   -1889.2418    22468.804    45.214605 
   23730    885.60486   -6852.8368   -6754.0462   -1916.6617    22474.517     45.29311 
   23740     870.4253    -6851.422   -6754.3248   -2096.3379    22477.454    45.368225 
   23750    854.69365   -6849.9512   -6754.6088   -2056.2382    22477.359    45.451956 
   23760     827.1992   -6847.1276   -6754.8523    -1671.649    22474.276    45.537016 
   23770    826.64778   -6847.2314   -6755.0176   -1727.3068    22468.607    45.608146 
   23780    834.61147   -6848.2115   -6755.1093   -1880.3855    22460.289    45.655813 
   23790    831.12614   -6847.8483    -6755.135     -1694.01    22449.113    45.670683 
   23800    858.51474   -6850.8818   -6755.1132   -1581.8755    22435.229    45.660405 
   23810    871.44882   -6852.2794    -6755.068   -1241.9664    22418.829    45.649958 
   23820    890.67505   -6854.3993   -6755.0432    -902.4773    22400.339    45.649594 
   23830    902.05849   -6855.6994   -6755.0734   -551.66952    22380.207    45.656435 
   23840    904.84057   -6856.1262   -6755.1899    50.485238    22358.959    45.661135 
   23850    903.38709   -6856.1849   -6755.4107    361.06407    22337.386    45.658469 
   23860    877.19106   -6853.5692   -6755.7172    482.63676    22315.967    45.659711 
   23870    847.45048   -6850.6027   -6756.0683    433.78845    22294.838    45.674526 
   23880    829.92383   -6848.9766   -6756.3974    833.61159    22274.052    45.696414 
   23890    834.05444   -6849.7177   -6756.6777    1011.5998     22254.09    45.720232 
   23900    843.72619   -6851.0409    -6756.922    1089.1402    22235.239    45.744876 
   23910    844.86449   -6851.3915   -6757.1456    895.99849    22217.598     45.76183 
   23920    853.58974   -6852.5809   -6757.3616    403.01642    22200.899    45.774556 
   23930    870.31836    -6854.685   -6757.5997    80.352573    22184.515    45.782116 
   23940     871.2498   -6855.0899   -6757.9007   -110.71294    22167.959    45.775671 
   23950    857.03537   -6853.8716    -6758.268   -65.572177    22150.959    45.767792 
   23960    841.92567   -6852.6082   -6758.6901    75.419734    22133.532    45.769532 
   23970    834.22165   -6852.2033   -6759.1446    264.26643    22115.875    45.778963 
   23980     825.2803   -6851.6799   -6759.6187    663.10654    22098.294    45.802709 
   23990    815.52008   -6851.0576   -6760.0851    915.23721    22081.288    45.850238 
   24000    815.02415   -6851.4443   -6760.5272    1246.7634    22065.262    45.920812 
   24010     808.0982   -6851.0644   -6760.9198    1558.0733    22050.696     46.01102 
   24020    819.56741   -6852.6945   -6761.2705    1620.2688    22038.025    46.110546 
   24030    806.41141   -6851.5228   -6761.5664    2023.7306    22027.459    46.204411 
   24040    788.28359   -6849.7045   -6761.7703    2230.6072    22019.537     46.28362 
   24050    807.10014   -6851.8833   -6761.8501    1623.0155    22014.532    46.354236 
   24060    826.52243   -6854.0249   -6761.8251    1198.3121    22011.782    46.436243 
   24070    803.71075    -6851.355   -6761.6998    1300.8957     22010.76    46.539423 
   24080    806.37729   -6851.3974   -6761.4448    1027.3214    22011.519    46.657523 
   24090    836.59948   -6854.3569    -6761.033    751.42853    22013.776    46.788513 
   24100     860.6111   -6856.5073   -6760.5048    731.41117    22017.185    46.934052 
   24110    867.08902   -6856.6458   -6759.9207    1207.7718     22021.79    47.087489 
   24120      872.338   -6856.6279   -6759.3173    1650.3345    22028.233    47.232531 
   24130    880.29062   -6856.9177   -6758.7199    1416.7337    22037.095    47.366339 
   24140    872.30871   -6855.4469   -6758.1395    985.66011     22048.16    47.495786 
   24150    864.16591   -6853.9706   -6757.5716    708.17708    22060.894    47.630111 
   24160    870.02152   -6854.0589   -6757.0067    599.46981    22074.935    47.759699 
   24170    867.02672   -6853.1793   -6756.4611    187.90486    22090.085    47.873108 
   24180    874.11675   -6853.4545   -6755.9455   -786.95447    22105.736    47.984638 
   24190    876.61187   -6853.2424    -6755.455    -1177.066    22120.665    48.106598 
   24200    865.07598   -6851.5128   -6755.0123   -965.48152    22134.263    48.228478 
   24210    850.16408   -6849.4332   -6754.5961   -871.35908    22146.718    48.341725 
   24220    854.57836   -6849.5173   -6754.1878   -831.54238    22158.151    48.458168 
   24230    863.52229   -6850.1096   -6753.7824   -749.90177    22168.607    48.589929 
   24240    871.43494   -6850.5997   -6753.3899   -986.69611    22178.128    48.722812 
   24250    868.10784   -6849.8594   -6753.0207   -1212.5631    22186.402    48.839384 
   24260    859.38331   -6848.5467   -6752.6812   -1152.4409    22193.108    48.939198 
   24270    859.32477   -6848.2215   -6752.3625   -1219.2602    22198.233    49.027601 
   24280    845.02864   -6846.3065   -6752.0423   -940.49019    22201.746    49.109142 
   24290    858.07039   -6847.4233   -6751.7042    -686.5951    22203.963    49.188563 
   24300    876.61423   -6849.1481   -6751.3605    -491.2567    22205.237    49.265111 
   24310    882.36239   -6849.4839    -6751.055   -621.96821    22205.763     49.32642 
   24320     889.8696   -6850.0754   -6750.8091   -584.32075    22205.437     49.37794 
   24330    893.71911   -6850.3341   -6750.6384   -269.69392     22204.31    49.433256 
   24340    873.61381   -6847.9869    -6750.534    -76.55993    22202.763    49.491849 
   24350     878.5329   -6848.4729   -6750.4713   -230.20247    22201.048    49.551396 
   24360    910.56199   -6852.0299   -6750.4553   -302.00677    22198.987    49.603161 
   24370    902.00801   -6851.1434   -6750.5231    369.99312    22196.578    49.655179 
   24380    886.48136   -6849.5592   -6750.6709    762.15371    22194.629    49.727803 
   24390    918.07605   -6853.3172   -6750.9045    432.42587    22193.665     49.82235 
   24400     916.9302    -6853.546    -6751.261    36.917641    22193.308    49.936826 
   24410    891.16138   -6851.1607   -6751.7503   -98.488998    22193.039    50.064636 
   24420    876.35203   -6850.0701   -6752.3117   -422.70654    22192.617    50.191667 
   24430    887.31846    -6851.915   -6752.9333   -1058.0511    22191.537    50.303575 
   24440    891.88964   -6853.1138   -6753.6221   -1247.1237    22188.975    50.397007 
   24450    888.93609   -6853.5401   -6754.3779    -834.6537    22184.668    50.489693 
   24460    881.60097   -6853.5007   -6755.1567   -380.59394    22179.131    50.601112 
   24470    865.52569    -6852.439   -6755.8883    102.02319    22173.003    50.728532 
   24480    876.61242   -6854.3163   -6756.5289    119.79286     22166.88    50.851865 
   24490    890.07633    -6856.386   -6757.0967    123.73915    22160.864     50.95524 
   24500    873.47082    -6855.019    -6757.582    569.14203     22155.02    51.042102 
   24510     864.8468   -6854.4329    -6757.958    765.72794    22149.898    51.122392 
   24520    850.08306   -6853.0576   -6758.2296    986.41753    22145.835    51.196463 
   24530    821.09599   -6849.9797   -6758.3852    1448.0467    22143.203    51.271078 
   24540    808.87774   -6848.6465    -6758.415     1460.112    22142.573    51.351237 
   24550    827.41603   -6850.6397   -6758.3402    969.17311    22143.973    51.426608 
   24560    846.90176   -6852.6894   -6758.2162       523.82    22146.806    51.495441 
   24570    863.60669   -6854.4248   -6758.0882    326.93373    22150.467    51.569898 
   24580     876.2701   -6855.7317   -6757.9824    304.70846    22154.649    51.664953 
   24590    885.91932   -6856.7414   -6757.9158    579.06787    22159.357    51.777692 
   24600    883.71195   -6856.4787   -6757.8993    854.02199    22164.934    51.893919 
   24610    854.41719   -6853.2217   -6757.9102    1373.8286    22171.847    52.006032 
   24620    848.58544   -6852.5731   -6757.9121    928.57665    22180.649    52.103773 
   24630    856.72566   -6853.4514   -6757.8824   -122.41657    22190.789    52.185238 
   24640    863.53807   -6854.1658   -6757.8368    -863.2813    22200.906    52.271311 
   24650    864.54112   -6854.2296   -6757.7888   -1198.4658    22209.925    52.380786 
   24660    867.64008   -6854.5281   -6757.7416   -1184.0709    22217.323    52.501985 
   24670     875.3114   -6855.3529   -6757.7106   -669.04809    22223.143    52.612255 
   24680    858.07784    -6853.417   -6757.6971    83.773463    22228.083    52.695909 
   24690    853.12916   -6852.8508   -6757.6829    373.51671    22233.115    52.746962 
   24700    857.28766   -6853.2813   -6757.6495    23.434009    22238.637    52.769442 
   24710    842.30804    -6851.555   -6757.5943   -231.41539    22244.263     52.76733 
   24720     842.9467   -6851.5318   -6757.4998   -240.36035    22249.623     52.75262 
   24730    861.80727   -6853.4891   -6757.3532    49.093346    22254.726    52.749671 
   24740    878.35426   -6855.1708   -6757.1891     294.1758    22259.945    52.779686 
   24750    874.15237   -6854.5624   -6757.0494    434.15796    22265.621    52.841773 
   24760    868.69567   -6853.8362   -6756.9319    145.75322    22271.919    52.918202 
   24770    871.67741   -6854.0607   -6756.8238        -23.1    22278.505    52.997598 
   24780    866.94777   -6853.4397   -6756.7304    194.55388    22285.165    53.077657 
   24790    864.27544   -6853.0583   -6756.6471    318.12692    22292.163    53.164429 
   24800    837.02682   -6849.9256    -6756.554    650.53517    22299.702    53.272366 
   24810    827.91587   -6848.7591   -6756.4038    1297.0937    22308.304    53.404611 
   24820    857.34589    -6851.813   -6756.1748    1151.8869    22318.773    53.550578 
   24830    856.56419   -6851.4349   -6755.8839     793.6691    22331.023    53.686579 
   24840    844.78461   -6849.7876   -6755.5506    416.98027    22344.551    53.800865 
   24850    842.45147   -6849.1266   -6755.1499    220.54475    22358.858    53.897568 
   24860     851.8503   -6849.6927   -6754.6676      69.9268    22373.642    53.977966 
   24870    863.43612   -6850.4333   -6754.1157   -78.752557    22388.688    54.049502 
   24880     861.2583    -6849.592   -6753.5174   -155.76767    22403.797    54.114986 
   24890    886.62622   -6851.7983   -6752.8938   -432.85921    22418.813     54.15987 
   24900     904.7755   -6853.2126   -6752.2836   -705.52327     22433.36    54.188181 
   24910    891.53067   -6851.2059   -6751.7543   -937.18593    22447.024    54.228579 
   24920     875.3467   -6848.9452   -6751.2989   -1097.7446    22459.482    54.299219 
   24930    885.43919   -6849.6562   -6750.8841   -1539.7886    22470.413    54.396659 
   24940    882.42182   -6848.9412   -6750.5057   -1740.5988    22479.223    54.495603 
   24950    876.35114   -6847.9399   -6750.1816    -1535.595    22485.614    54.569684 
   24960    871.89393   -6847.1574   -6749.8963   -1186.9746    22489.836    54.619345 
   24970     873.9257   -6847.1232   -6749.6354    -1097.113    22492.315    54.653246 
   24980    869.62223   -6846.3972   -6749.3895   -1280.1103    22493.174    54.674694 
   24990    882.88278    -6847.645   -6749.1581   -1731.0992    22492.117    54.692634 
   25000    902.15057   -6849.6008   -6748.9645   -2124.1161    22488.513    54.722432 
Loop time of 15248.4 on 16 procs for 20000 steps with 864 atoms

Performance: 0.113 ns/day, 211.784 hours/ns, 1.312 timesteps/s
97.6% CPU use with 16 MPI tasks x 1 OpenMP threads

MPI task timing breakdown:
Section |  min time  |  avg time  |  max time  |%varavg| %total
---------------------------------------------------------------
Pair    | 10455      | 13126      | 14976      |1128.4 | 86.08
Bond    | 0.0018351  | 0.006582   | 0.020135   |   5.7 |  0.00
Neigh   | 0.20697    | 0.27092    | 0.34911    |   8.8 |  0.00
Comm    | 219.11     | 1680.3     | 4249.8     |3051.6 | 11.02
Output  | 1.1959     | 1.2163     | 1.516      |   7.0 |  0.01
Modify  | 50.006     | 440.16     | 774.33     |1436.1 |  2.89
Other   |            | 0.107      |            |       |  0.00

Nlocal:        54.0000 ave          65 max          41 min
Histogram: 2 1 2 2 0 1 3 0 2 3
Nghost:        469.438 ave         531 max         411 min
Histogram: 2 2 2 2 0 1 3 0 1 3
Neighs:         0.00000 ave           0 max           0 min
Histogram: 16 0 0 0 0 0 0 0 0 0
FullNghs:      2088.12 ave        2744 max        1302 min
Histogram: 3 1 1 2 0 1 1 2 0 5

Total # of neighbors = 33410
Ave neighs/atom = 38.668981
Ave special neighs/atom = 0.0000000
Neighbor list builds = 2000
Dangerous builds = 2000
Total wall time: 5:17:37
