LAMMPS (29 Sep 2021 - Update 3)
OMP_NUM_THREADS environment is not set. Defaulting to 1 thread. (src/comm.cpp:98)
  using 1 OpenMP thread(s) per MPI task
units	metal
atom_style	full

read_data	mixed.data
Reading data file ...
  orthogonal box = (0.0000000 0.0000000 0.0000000) to (17.171819 17.292452 83.119182)
  1 by 2 by 8 MPI processor grid
  reading atoms ...
  864 atoms
Finding 1-2 1-3 1-4 neighbors ...
  special bond factors lj:    0        0        0       
  special bond factors coul:  0        0        0       
     0 = max # of 1-2 neighbors
     0 = max # of 1-3 neighbors
     0 = max # of 1-4 neighbors
     1 = max # of special neighbors
  special bonds CPU = 0.001 seconds
  read_data CPU = 0.008 seconds

pair_style	quip
pair_coeff	* * /ocean/projects/cts180021p/wuziqi/clease/mint-PD/PhaseDiagram-Clease/Liquid/GAP_potential/gap_LiKCl.xml "Potential xml_label=GAP_2021_9_27_0_1_17_37_618" 17 19 3

neighbor	0.3 bin
neigh_modify	delay 10

timestep	0.001
compute	msd all msd
thermo_style	custom step temp pe etotal press vol c_msd[4]
thermo	10
dump	1 all custom 10 xyz-mix.dump type id x y z
dump	2 all custom 10 force-mix.dump type id fx fy fz

fix     1 all nve
run     2000
Neighbor list info ...
  update every 1 steps, delay 10 steps, check yes
  max neighbors/atom: 2000, page size: 100000
  master list distance cutoff = 6.22
  ghost atom cutoff = 6.22
  binsize = 3.11, bins = 6 6 27
  1 neighbor lists, perpetual/occasional/extra = 1 0 0
  (1) pair quip, perpetual
      attributes: full, newton on
      pair build: full/bin
      stencil: full/bin/3d
      bin: standard
Per MPI rank memory allocation (min/avg/max) = 8.894 | 8.900 | 8.906 Mbytes
Step Temp PotEng TotEng Press Volume c_msd[4] 
       0            0   -7174.3834   -7174.3834   -3403.7864    24681.648            0 
      10    59.886459   -7181.0715   -7174.3911    -3591.811    24681.648 0.0004428069 
      20    152.53511   -7191.4143   -7174.3988    -3532.456    24681.648 0.0053913133 
      30    183.53475   -7194.8677   -7174.3941   -2645.2133    24681.648  0.017829876 
      40    202.66462   -7197.0001   -7174.3926   -1813.5571    24681.648  0.032805386 
      50    235.34035   -7200.6482   -7174.3956    -1646.813    24681.648   0.04588816 
      60    247.94168    -7202.052   -7174.3938   -1842.2959    24681.648   0.05765331 
      70    253.09642   -7202.6277   -7174.3944   -2064.7915    24681.648  0.069436765 
      80    250.99467   -7202.3926   -7174.3937   -2200.0016    24681.648  0.082900901 
      90    246.12852   -7201.8494   -7174.3934   -2173.7127    24681.648  0.099028065 
     100    244.92959   -7201.7179   -7174.3956   -1978.8699    24681.648   0.11746343 
     110    242.28341    -7201.419   -7174.3919   -1729.6413    24681.648   0.13557848 
     120    255.22195   -7202.8655   -7174.3951   -1848.0783    24681.648   0.15075494 
     130    256.29683   -7202.9842   -7174.3939     -2007.52    24681.648   0.16545013 
     140    255.59143   -7202.9057   -7174.3941   -2078.8051    24681.648   0.17976362 
     150    254.71653    -7202.809    -7174.395   -2143.2247    24681.648   0.19317961 
     160    251.90206   -7202.4945   -7174.3944   -2001.6951    24681.648   0.20534635 
     170    250.97219   -7202.3902   -7174.3939   -1889.6105    24681.648   0.21663825 
     180     257.3806   -7203.1055   -7174.3943   -1934.6918    24681.648    0.2288925 
     190     260.3621   -7203.4402   -7174.3964   -1958.2977    24681.648   0.24328518 
     200    252.18366   -7202.5243   -7174.3928   -1925.8316    24681.648   0.25702409 
     210    258.35994    -7203.215   -7174.3946   -1990.3907    24681.648   0.26669152 
     220    260.53492   -7203.4573   -7174.3943   -1988.9024    24681.648    0.2748492 
     230    258.23338   -7203.2005   -7174.3942   -1795.6857    24681.648   0.28332799 
     240    252.93197   -7202.6085   -7174.3936   -1566.3378    24681.648   0.29247854 
     250    254.73094   -7202.8097   -7174.3941   -1512.6013    24681.648   0.30118823 
     260    260.13921   -7203.4133   -7174.3944   -1595.4355    24681.648   0.30980823 
     270    263.33316   -7203.7692    -7174.394   -1672.2968    24681.648    0.3193726 
     280    266.81067   -7204.1584   -7174.3953   -1641.3932    24681.648   0.32972958 
     290    262.39696   -7203.6654   -7174.3946   -1516.4449    24681.648   0.34016636 
     300    261.07623   -7203.5192   -7174.3957   -1490.2694    24681.648   0.34870802 
     310    256.60645    -7203.019   -7174.3942   -1424.9004    24681.648   0.35616095 
     320    255.12221   -7202.8537   -7174.3944   -1431.1943    24681.648   0.36426417 
     330    257.21766   -7203.0875   -7174.3944   -1535.2284    24681.648   0.37294434 
     340    260.71445   -7203.4781    -7174.395   -1738.4386    24681.648   0.38207588 
     350    260.87542   -7203.4955   -7174.3944   -1787.8195    24681.648   0.39203939 
     360    259.24296   -7203.3137   -7174.3948   -1801.5109    24681.648   0.40305256 
     370     256.8045   -7203.0415   -7174.3946    -1871.197    24681.648   0.41474987 
     380    253.74937   -7202.7006   -7174.3945   -2006.2935    24681.648   0.42675018 
     390     250.3984   -7202.3262   -7174.3939   -2133.6916    24681.648    0.4387225 
     400    253.59482   -7202.6831   -7174.3942   -2227.7267    24681.648   0.44925493 
     410    258.62293   -7203.2446   -7174.3948   -2242.4151    24681.648   0.45744528 
     420    260.59152   -7203.4634   -7174.3941   -2202.0252    24681.648   0.46381779 
     430    265.56276   -7204.0186   -7174.3947   -2285.5748    24681.648   0.46928077 
     440    267.29796   -7204.2122   -7174.3947   -2340.4066    24681.648   0.47466356 
     450     263.7688   -7203.8177   -7174.3939   -2324.3833    24681.648   0.47995391 
     460    263.97331    -7203.841   -7174.3944   -2444.9636    24681.648   0.48477747 
     470    265.08715   -7203.9653   -7174.3944   -2633.9331    24681.648   0.48948207 
     480    264.24939   -7203.8716   -7174.3942   -2661.2403    24681.648   0.49464966 
     490    265.03895   -7203.9596   -7174.3941   -2483.9795    24681.648   0.50051068 
     500     268.0228   -7204.2928   -7174.3944   -2130.0039    24681.648   0.50762008 
     510    269.68559   -7204.4783   -7174.3945   -1895.8231    24681.648   0.51677182 
     520     269.3401     -7204.44   -7174.3947   -1772.5691    24681.648   0.52791571 
     530      266.526   -7204.1254    -7174.394   -1820.7728    24681.648   0.53993524 
     540    268.21801   -7204.3142   -7174.3941   -1957.9364    24681.648   0.55113406 
     550    273.27905   -7204.8799   -7174.3952   -1952.1322    24681.648   0.56047872 
     560     270.7895   -7204.6017   -7174.3947   -1784.6397    24681.648   0.56820517 
     570    267.63087   -7204.2482   -7174.3935    -1644.341    24681.648   0.57439114 
     580    274.75017   -7205.0438    -7174.395   -1642.7538    24681.648   0.57908351 
     590    278.06846    -7205.414    -7174.395   -1634.7568    24681.648   0.58273182 
     600    275.33483   -7205.1086   -7174.3946   -1546.2732    24681.648   0.58557023 
     610    272.73058   -7204.8178   -7174.3943   -1362.5514    24681.648   0.58813395 
     620     275.6395   -7205.1428   -7174.3948   -1228.8054    24681.648   0.59107932 
     630    277.82637   -7205.3871   -7174.3952    -1223.228    24681.648   0.59521422 
     640    275.21147   -7205.0945   -7174.3942   -1328.0133    24681.648   0.60059579 
     650    276.76341   -7205.2679   -7174.3945   -1587.9159    24681.648   0.60632225 
     660    280.29592   -7205.6626   -7174.3951   -1876.3308    24681.648   0.61197812 
     670    278.94874   -7205.5114   -7174.3943   -1988.9252    24681.648    0.6176124 
     680    279.62887   -7205.5876   -7174.3946    -1854.874    24681.648   0.62312175 
     690    278.35671   -7205.4465   -7174.3954     -1626.67    24681.648   0.62896185 
     700    269.37243   -7204.4429    -7174.394   -1418.2553    24681.648   0.63559784 
     710    266.45521   -7204.1181   -7174.3946   -1472.5221    24681.648   0.64215216 
     720    265.84495   -7204.0503   -7174.3949   -1709.2555    24681.648   0.64781464 
     730    263.59964   -7203.7992   -7174.3943   -1848.2285    24681.648   0.65193307 
     740    266.57701   -7204.1317   -7174.3946   -1895.4286    24681.648   0.65412735 
     750    271.76415   -7204.7106   -7174.3949   -1968.2386    24681.648   0.65547825 
     760      275.029   -7205.0755   -7174.3956   -2013.6107    24681.648   0.65726746 
     770     271.0675   -7204.6326   -7174.3946   -1846.7085    24681.648   0.65945095 
     780    271.60028    -7204.692   -7174.3946   -1756.0037    24681.648   0.66122261 
     790    276.79844    -7205.273   -7174.3957   -1802.9901    24681.648   0.66298127 
     800    272.61055    -7204.805   -7174.3949   -1872.3043    24681.648    0.6665383 
     810    266.19836   -7204.0894   -7174.3945   -1968.7863    24681.648   0.67221854 
     820    263.38752   -7203.7759   -7174.3946   -2141.6217    24681.648   0.67891951 
     830    264.77149   -7203.9298   -7174.3941   -2417.3308    24681.648   0.68520732 
     840    272.58637    -7204.803   -7174.3955   -2752.0813    24681.648   0.69025418 
     850    272.65549   -7204.8097   -7174.3946   -2928.1991    24681.648   0.69428736 
     860    273.59711   -7204.9144   -7174.3942   -2900.3005    24681.648    0.6970968 
     870    278.19824   -7205.4288   -7174.3953    -2707.162    24681.648    0.6996263 
     880    276.53864   -7205.2424   -7174.3941   -2500.9253    24681.648   0.70364771 
     890    279.23786   -7205.5442   -7174.3948   -2415.7746    24681.648   0.70924281 
     900    280.95843   -7205.7363    -7174.395    -2364.961    24681.648   0.71595523 
     910    278.43861   -7205.4551   -7174.3949   -2292.0963    24681.648   0.72276909 
     920    274.58034   -7205.0239    -7174.394   -2145.7325    24681.648    0.7279473 
     930    277.12312   -7205.3082   -7174.3947    -2157.167    24681.648   0.73037655 
     940    279.73337   -7205.5996   -7174.3949   -2169.2816    24681.648   0.73135876 
     950    279.22126   -7205.5421   -7174.3945   -2172.7349    24681.648   0.73362662 
     960    279.34211   -7205.5558   -7174.3947    -2162.325    24681.648   0.73879001 
     970    278.76831   -7205.4918   -7174.3948   -2041.5721    24681.648   0.74667297 
     980    277.67235   -7205.3697   -7174.3949   -1885.6852    24681.648   0.75580397 
     990    276.23383    -7205.209   -7174.3947   -1855.7306    24681.648   0.76364754 
    1000    276.65338   -7205.2559   -7174.3948   -1804.2694    24681.648   0.76766421 
    1010    277.15823    -7205.313   -7174.3956    -1670.983    24681.648   0.76766874 
    1020    269.42126   -7204.4494   -7174.3951   -1424.7931    24681.648   0.76610705 
    1030     260.7554   -7203.4818   -7174.3941   -1215.0065    24681.648   0.76554395 
    1040    261.30906   -7203.5441   -7174.3947   -1098.2689    24681.648   0.76665088 
    1050    265.20034   -7203.9786   -7174.3951   -1049.7855    24681.648   0.76872121 
    1060    265.37142   -7203.9979   -7174.3953     -1168.93    24681.648    0.7710414 
    1070    262.30523   -7203.6545    -7174.394   -1216.5846    24681.648   0.77312784 
    1080     269.2805   -7204.4336   -7174.3949   -1303.2806    24681.648   0.77456841 
    1090    278.21465   -7205.4311   -7174.3958   -1474.4916    24681.648   0.77578562 
    1100    279.83218   -7205.6107    -7174.395   -1575.5621    24681.648   0.77731718 
    1110    283.74367   -7206.0469   -7174.3949   -1579.9493    24681.648   0.77887111 
    1120    290.78719   -7206.8334   -7174.3957   -1573.7467    24681.648   0.78005841 
    1130    290.95381   -7206.8511   -7174.3948   -1519.3089    24681.648   0.78128493 
    1140    291.42672   -7206.9042   -7174.3951   -1587.1629    24681.648   0.78343187 
    1150    288.83961    -7206.616   -7174.3955   -1727.5352    24681.648   0.78763344 
    1160    278.98488   -7205.5156   -7174.3944   -1780.0997    24681.648   0.79353187 
    1170     274.5083   -7205.0159   -7174.3941   -1742.9948    24681.648   0.79894507 
    1180    278.08142   -7205.4157   -7174.3953   -1700.4448    24681.648   0.80276226 
    1190    278.86175    -7205.502   -7174.3946   -1575.2201    24681.648    0.8050797 
    1200    282.48118   -7205.9064   -7174.3952   -1531.0337    24681.648   0.80550341 
    1210     282.2015   -7205.8756   -7174.3956   -1582.1964    24681.648    0.8047093 
    1220    273.66019   -7204.9216   -7174.3943   -1443.9202    24681.648   0.80424724 
    1230    271.02344   -7204.6278   -7174.3947   -1294.8219    24681.648   0.80553838 
    1240    273.21828   -7204.8729    -7174.395   -1344.7406    24681.648   0.80963811 
    1250    274.53804   -7205.0205   -7174.3953   -1557.8461    24681.648   0.81626207 
    1260    273.33761   -7204.8857   -7174.3945   -1709.4029    24681.648    0.8238996 
    1270    277.03845    -7205.299   -7174.3949   -1861.8941    24681.648   0.83066888 
    1280    279.60921   -7205.5866   -7174.3958   -1776.8315    24681.648   0.83577326 
    1290     271.8553   -7204.7208   -7174.3949   -1451.3285    24681.648    0.8390946 
    1300    264.41726   -7203.8899   -7174.3937   -1174.9198    24681.648   0.84015079 
    1310    270.14381   -7204.5298   -7174.3948   -1305.4319    24681.648   0.83955817 
    1320    276.28563    -7205.216   -7174.3959   -1616.8447    24681.648    0.8394972 
    1330    269.37516    -7204.444   -7174.3948   -1792.2063    24681.648   0.84108811 
    1340    263.66565    -7203.806   -7174.3937   -1787.5686    24681.648   0.84324181 
    1350    271.75636   -7204.7105   -7174.3956   -1789.9886    24681.648   0.84491174 
    1360    274.27239   -7204.9909   -7174.3954   -1904.3466    24681.648   0.84675977 
    1370    271.14124   -7204.6406   -7174.3944   -2044.7094    24681.648   0.84884467 
    1380    273.68352    -7204.925   -7174.3952   -2173.0979    24681.648   0.85060846 
    1390    275.02452   -7205.0744    -7174.395   -2215.3954    24681.648   0.85231893 
    1400    276.25601   -7205.2118    -7174.395   -2238.0373    24681.648   0.85406463 
    1410    278.84188   -7205.4999   -7174.3947   -2167.4859    24681.648   0.85604751 
    1420    283.63171   -7206.0351   -7174.3956   -2106.7356    24681.648   0.85860197 
    1430     281.5104   -7205.7981   -7174.3952   -2039.7153    24681.648   0.86172051 
    1440    277.08643   -7205.3037   -7174.3943   -2134.4004    24681.648   0.86445233 
    1450    280.14663   -7205.6458    -7174.395   -2425.0475    24681.648   0.86616941 
    1460    284.16882   -7206.0946   -7174.3952   -2629.1536    24681.648   0.86801931 
    1470    286.02648   -7206.3014   -7174.3947   -2499.1716    24681.648   0.87115512 
    1480    288.85345   -7206.6176   -7174.3956   -2167.0023    24681.648   0.87530865 
    1490    284.31956   -7206.1114   -7174.3951   -1635.6837    24681.648   0.87953488 
    1500    278.98283   -7205.5151   -7174.3941    -1216.743    24681.648   0.88285916 
    1510    281.81212   -7205.8323   -7174.3957   -1229.4385    24681.648   0.88582692 
    1520    276.49173   -7205.2381   -7174.3951   -1562.5155    24681.648   0.89044229 
    1530    268.60167    -7204.357   -7174.3941   -1832.8137    24681.648   0.89739602 
    1540    268.44471   -7204.3404   -7174.3949   -2013.3452    24681.648   0.90578469 
    1550    268.16938   -7204.3093   -7174.3946   -2010.8653    24681.648   0.91410017 
    1560    269.46062   -7204.4535   -7174.3947   -1942.9791    24681.648   0.92102099 
    1570    272.53021   -7204.7961    -7174.395   -1895.4867    24681.648   0.92617748 
    1580    274.16463   -7204.9785   -7174.3951   -1823.6829    24681.648   0.92969488 
    1590    274.08365    -7204.969   -7174.3945   -1694.8776    24681.648   0.93183336 
    1600    276.38809   -7205.2266   -7174.3951   -1582.4042    24681.648   0.93327697 
    1610    276.47515   -7205.2358   -7174.3946    -1514.064    24681.648   0.93523754 
    1620    278.82635   -7205.4983   -7174.3948   -1527.2623    24681.648   0.93825527 
    1630    283.05477   -7205.9703   -7174.3951   -1480.4486    24681.648   0.94238563 
    1640    283.75544   -7206.0487   -7174.3953   -1428.7453    24681.648   0.94810451 
    1650    279.65577   -7205.5907   -7174.3946   -1482.0142    24681.648   0.95569667 
    1660    277.97149   -7205.4028   -7174.3947   -1644.7201    24681.648   0.96460041 
    1670    277.63235   -7205.3655   -7174.3952   -1799.5694    24681.648   0.97399532 
    1680     273.1457   -7204.8646   -7174.3948   -1807.2549    24681.648     0.982653 
    1690     269.1131   -7204.4145   -7174.3945    -1848.628    24681.648   0.98867138 
    1700    269.43844   -7204.4513    -7174.395   -2023.5742    24681.648   0.99116369 
    1710    269.78252   -7204.4896   -7174.3949   -2209.0436    24681.648    0.9917874 
    1720    270.65906   -7204.5872   -7174.3948   -2303.1156    24681.648   0.99313368 
    1730    273.04698    -7204.854   -7174.3952   -2347.4849    24681.648   0.99679692 
    1740    274.23892   -7204.9868   -7174.3951   -2237.2262    24681.648    1.0035992 
    1750    273.69441   -7204.9263   -7174.3952   -2020.2102    24681.648    1.0135583 
    1760    270.40125   -7204.5585   -7174.3949    -1788.634    24681.648    1.0251981 
    1770    270.68343   -7204.5897   -7174.3946   -1549.0244    24681.648    1.0353833 
    1780    277.90453   -7205.3964   -7174.3957    -1511.742    24681.648    1.0415834 
    1790    279.00509   -7205.5188   -7174.3954   -1597.8653    24681.648    1.0442507 
    1800    277.00732   -7205.2948   -7174.3942   -1788.7028    24681.648    1.0451598 
    1810    282.39257   -7205.8967   -7174.3954   -2040.7403    24681.648    1.0459368 
    1820    284.13814   -7206.0911   -7174.3951   -2280.9528    24681.648    1.0481335 
    1830    282.91429   -7205.9545   -7174.3949   -2430.6285    24681.648    1.0523919 
    1840     281.3318   -7205.7782   -7174.3952   -2306.2747    24681.648    1.0583276 
    1850    277.24801   -7205.3224    -7174.395   -2023.8294    24681.648    1.0646013 
    1860    275.86189   -7205.1669   -7174.3941   -1648.8281    24681.648    1.0693247 
    1870    285.01658   -7206.1898   -7174.3957   -1237.5386    24681.648    1.0720376 
    1880    287.69204   -7206.4885    -7174.396   -948.96764    24681.648    1.0743863 
    1890    280.11635   -7205.6423   -7174.3949   -885.51677    24681.648    1.0774135 
    1900    276.31656   -7205.2185    -7174.395   -989.28796    24681.648    1.0809193 
    1910      276.623   -7205.2529   -7174.3952   -1167.7604    24681.648    1.0845535 
    1920    277.67777   -7205.3704    -7174.395   -1316.9346    24681.648    1.0879417 
    1930    280.71277   -7205.7092   -7174.3953   -1469.0337    24681.648    1.0909294 
    1940    281.53928   -7205.8014   -7174.3953   -1673.5867    24681.648     1.094033 
    1950    279.58172   -7205.5827    -7174.395   -1827.7357    24681.648    1.0978665 
    1960    278.22672   -7205.4318   -7174.3952   -1824.7991    24681.648    1.1027058 
    1970    275.53555   -7205.1314    -7174.395    -1644.041    24681.648    1.1084664 
    1980    273.96064   -7204.9552   -7174.3945   -1378.9505    24681.648    1.1145371 
    1990    277.66865   -7205.3694    -7174.395   -1245.5747    24681.648    1.1207676 
    2000    280.84548   -7205.7241   -7174.3953   -1211.1794    24681.648    1.1274187 
Loop time of 1127.71 on 16 procs for 2000 steps with 864 atoms

Performance: 0.153 ns/day, 156.627 hours/ns, 1.774 timesteps/s
97.7% CPU use with 16 MPI tasks x 1 OpenMP threads

MPI task timing breakdown:
Section |  min time  |  avg time  |  max time  |%varavg| %total
---------------------------------------------------------------
Pair    | 393.63     | 877.11     | 1117.1     | 625.5 | 77.78
Bond    | 0.0001545  | 0.00050813 | 0.001049   |   0.0 |  0.00
Neigh   | 0.018069   | 0.027823   | 0.040152   |   3.1 |  0.00
Comm    | 10.143     | 235.11     | 709.76     |1172.7 | 20.85
Output  | 0.37241    | 7.811      | 21.04      | 245.7 |  0.69
Modify  | 0.0084968  | 0.010612   | 0.016034   |   1.8 |  0.00
Other   |            | 7.646      |            |       |  0.68

Nlocal:        54.0000 ave          68 max          38 min
Histogram: 2 0 1 2 1 3 1 3 1 2
Nghost:        453.312 ave         541 max         363 min
Histogram: 1 1 1 3 2 1 4 1 1 1
Neighs:         0.00000 ave           0 max           0 min
Histogram: 16 0 0 0 0 0 0 0 0 0
FullNghs:      1935.12 ave        2876 max         990 min
Histogram: 2 0 2 1 4 1 2 1 2 1

Total # of neighbors = 30962
Ave neighs/atom = 35.835648
Ave special neighs/atom = 0.0000000
Neighbor list builds = 199
Dangerous builds = 198
unfix   1

velocity    all create 675.0 1312343 dist gaussian
fix     2 all npt temp 675.0 675.0 $(100.0*dt) aniso 0.0 1.01325 $(1000.0*dt)
fix     2 all npt temp 675.0 675.0 0.10000000000000000555 aniso 0.0 1.01325 $(1000.0*dt)
fix     2 all npt temp 675.0 675.0 0.10000000000000000555 aniso 0.0 1.01325 1
run     3000
Per MPI rank memory allocation (min/avg/max) = 8.894 | 8.901 | 8.907 Mbytes
Step Temp PotEng TotEng Press Volume c_msd[4] 
    2000          675   -7205.7241   -7130.4268    691.59321    24681.648    1.1274187 
    2010     612.9959   -7198.7852   -7130.4046    1031.1534    24682.503    1.1348825 
    2020    538.29612   -7190.3213   -7130.2736    1317.1494     24685.68    1.1477899 
    2030    515.14528   -7187.3979   -7129.9326    1116.6235    24691.741    1.1618801 
    2040    484.47998    -7183.382   -7129.3376    993.52051    24700.361     1.178266 
    2050    454.14296   -7179.2014   -7128.5411    915.05135    24711.262    1.1964477 
    2060    456.40207   -7178.5501   -7127.6378    581.17806    24724.224     1.214427 
    2070    467.20489   -7178.8662   -7126.7488    124.19276    24738.523    1.2311637 
    2080    478.48428   -7179.3173   -7125.9417   -229.15646    24753.178    1.2458271 
    2090    485.34738   -7179.3022   -7125.1609   -441.58322    24767.397     1.259072 
    2100    495.82424   -7179.6499   -7124.3399   -538.47341    24780.677    1.2719241 
    2110    502.59883   -7179.5029   -7123.4372   -411.84878    24792.817    1.2849212 
    2120    501.97529   -7178.4602   -7122.4641   -317.03025    24804.049     1.298039 
    2130     504.9791   -7177.7623   -7121.4311   -486.54732    24814.542    1.3114655 
    2140    516.48189   -7177.9637   -7120.3494   -667.28834    24823.966    1.3257555 
    2150    526.41309   -7177.9574   -7119.2352   -709.66726    24831.924    1.3404572 
    2160    514.10079     -7175.47   -7118.1212   -612.86175    24838.323     1.355317 
    2170    510.55853   -7173.9687   -7117.0152   -632.52095    24843.318    1.3697105 
    2180    517.42455   -7173.5974   -7115.8779   -671.71778    24846.879    1.3841848 
    2190    516.31647   -7172.3158   -7114.7199   -501.69405    24848.965     1.399267 
    2200    522.40715   -7171.8252   -7113.5499   -389.98069    24849.889    1.4131605 
    2210    538.41825   -7172.4126   -7112.3512   -321.87927     24849.92    1.4234872 
    2220    546.12604   -7172.0569   -7111.1357   -332.18678    24849.211     1.430717 
    2230    545.63388   -7170.7939   -7109.9276   -595.29564    24847.691     1.438431 
    2240    545.86369   -7169.6151   -7108.7231    -824.8738    24844.817    1.4496106 
    2250    558.08337    -7169.761    -7107.506   -857.66591    24840.075    1.4645091 
    2260    569.12233   -7169.7602   -7106.2738   -746.54234    24833.359     1.481524 
    2270    564.87655   -7168.0646   -7105.0518   -479.43973    24824.924    1.4990187 
    2280     559.0708   -7166.2129   -7103.8477   -195.66321    24815.354    1.5155346 
    2290    568.04698   -7166.0027   -7102.6362   -217.94524    24805.213    1.5298693 
    2300    571.63274   -7165.1759   -7101.4094   -311.02871    24794.491    1.5435857 
    2310    577.33085   -7164.5862   -7100.1841   -352.24286    24782.996    1.5589327 
    2320    593.34149   -7165.1368   -7098.9487   -344.10645    24770.644    1.5755671 
    2330    608.10457   -7165.5438   -7097.7088    -190.0896    24757.456    1.5917963 
    2340    608.72829    -7164.394   -7096.4895    390.23258    24743.833    1.6056434 
    2350    617.84659   -7164.2146   -7095.2929    890.30509     24730.98    1.6162111 
    2360    623.68066   -7163.6792   -7094.1067    1048.0893    24719.995    1.6262807 
    2370     614.9049   -7161.5457   -7092.9521      1199.87    24711.324    1.6385017 
    2380    612.74512    -7160.173   -7091.8203    1296.3951    24705.318    1.6532264 
    2390    616.73044   -7159.4841   -7090.6869    1008.9484    24702.144    1.6707707 
    2400     629.8264   -7159.8044   -7089.5463    516.07692    24701.224    1.6897672 
    2410    645.13801    -7160.372   -7088.4059    -7.063622    24701.468     1.708146 
    2420    639.59831   -7158.6456   -7087.2974   -315.73215    24701.735    1.7258415 
    2430    630.35526     -7156.55   -7086.2329   -270.73721    24701.362    1.7431864 
    2440    638.51754   -7156.4072   -7085.1797   -288.37502    24700.343    1.7598674 
    2450    643.69023   -7155.9318   -7084.1272    -323.8703     24698.66    1.7759113 
    2460    652.71129   -7155.9026   -7083.0917   -367.85188     24696.23    1.7893692 
    2470    645.95456   -7154.1385   -7082.0813   -282.51822    24692.986    1.7983076 
    2480    664.92578   -7155.2713   -7081.0978   -360.31563    24689.029    1.8036621 
    2490    673.43706   -7155.2527   -7080.1297   -184.63914    24684.258    1.8110586 
    2500      662.568   -7153.1295   -7079.2191     559.4462     24679.15    1.8233292 
    2510    667.19234   -7152.7709   -7078.3446    1241.2178    24675.241    1.8385442 
    2520     672.1384   -7152.4667   -7077.4886    1835.5102    24674.102    1.8553557 
    2530    680.36605    -7152.563   -7076.6672    2138.8128    24677.064    1.8727905 
    2540    683.21707   -7152.1075   -7075.8937    2026.3689    24684.873    1.8914335 
    2550     680.1864   -7151.0488   -7075.1729    1527.9251    24697.339    1.9126385 
    2560    673.41436   -7149.6137   -7074.4933     1056.206    24713.493    1.9354472 
    2570    682.86847   -7150.0072   -7073.8322    236.68601    24732.241    1.9574562 
    2580    688.99057   -7150.0448   -7073.1868   -501.43379    24751.845    1.9774444 
    2590    692.10138   -7149.7828   -7072.5778   -693.02008    24770.729    1.9933307 
    2600    715.58771   -7151.8461   -7072.0212   -1050.3743     24788.25    2.0045329 
    2610    719.01075   -7151.7551   -7071.5484   -1264.8433    24803.639    2.0158414 
    2620      685.779   -7147.6782   -7071.1786   -1104.9735     24816.43    2.0312875 
    2630      680.311   -7146.7525   -7070.8627   -1209.3464    24826.806    2.0488114 
    2640    677.05825   -7146.0849   -7070.5581   -1133.5648    24834.576    2.0662329 
    2650     645.6036   -7142.2729   -7070.2548   -454.47289    24839.991    2.0802088 
    2660     656.8957   -7143.1952   -7069.9175   -369.98656    24844.331    2.0862175 
    2670    685.09227   -7145.9532   -7069.5301   -605.07799    24847.848    2.0879923 
    2680    690.88988   -7146.2222   -7069.1524   -445.27034    24850.137    2.0925978 
    2690    701.31408   -7147.0459   -7068.8133   -393.70037    24851.419    2.1010845 
    2700    718.81142   -7148.7196   -7068.5351   -249.61698    24851.852    2.1105998 
    2710     724.9633   -7149.2274   -7068.3567   -335.19813    24851.667    2.1200012 
    2720    699.11079   -7146.2774   -7068.2905   -264.67952    24850.751    2.1281352 
    2730    678.02916   -7143.9248   -7068.2896   -53.847856    24849.245    2.1318742 
    2740    695.88762   -7145.9394   -7068.3121   -188.37836     24847.51    2.1312305 
    2750    707.26392    -7147.273   -7068.3766    -170.5201    24845.357    2.1305871 
    2760    704.16231   -7147.0694    -7068.519   -44.442661    24842.796    2.1320299 
    2770    688.36509   -7145.5124   -7068.7242    208.56115    24840.136    2.1343233 
    2780    691.37187   -7146.0801   -7068.9565    92.693309     24837.84    2.1354501 
    2790    708.74859   -7148.2906   -7069.2286   -304.23637    24835.676    2.1374353 
    2800    698.88656   -7147.5273   -7069.5654   -178.01787     24832.91    2.1436995 
    2810    682.89117   -7146.1177   -7069.9402    133.91044    24829.739     2.153853 
    2820    680.83994   -7146.2749   -7070.3262    215.94385    24826.802    2.1656765 
    2830    691.23615   -7147.8305   -7070.7221    147.64472    24824.292    2.1777299 
    2840    707.11318   -7150.0371   -7071.1576    87.571001    24822.089    2.1893718 
    2850    713.58181   -7151.2696   -7071.6685    205.54833    24820.104     2.200851 
    2860    712.05119   -7151.6894    -7072.259     406.5653    24818.606    2.2120265 
    2870    702.50192   -7151.2901   -7072.9249    333.74029    24817.972    2.2233872 
    2880    682.70889    -7149.783   -7073.6257     50.93972    24818.073     2.234676 
    2890    673.22568   -7149.4218   -7074.3225   -248.84963    24818.289    2.2455542 
    2900    666.32364    -7149.314   -7074.9846    -319.7905    24817.976    2.2582743 
    2910    656.50477   -7148.8177   -7075.5836   -378.20712    24816.934    2.2724681 
    2920    663.94748   -7150.1972   -7076.1328   -678.22236    24814.969    2.2851465 
    2930    663.97222   -7150.7154   -7076.6483   -926.88541    24811.452    2.2961838 
    2940     661.4602   -7150.9169     -7077.13   -1259.8984    24805.763     2.307326 
    2950     655.4946   -7150.6869   -7077.5655   -1367.6645    24797.206    2.3197439 
    2960    653.95357   -7150.9003   -7077.9508   -1217.2055    24785.519    2.3342434 
    2970    646.85656   -7150.4351   -7078.2773   -1027.9915    24771.013    2.3516541 
    2980     637.3038   -7149.6234   -7078.5312   -955.56274    24754.105    2.3716173 
    2990    633.59746   -7149.3767   -7078.6979   -809.45708    24735.015    2.3921605 
    3000    638.79814   -7150.0352   -7078.7763   -627.58389    24714.063    2.4116557 
    3010    647.20496   -7150.9789   -7078.7822   -501.31293    24691.662    2.4307604 
    3020    652.94085   -7151.5713   -7078.7347   -502.66719    24668.096    2.4513324 
    3030     655.5643   -7151.7691   -7078.6399   -554.04545      24643.4     2.474301 
    3040    655.54081    -7151.627   -7078.5004   -480.59113    24617.516    2.5004163 
    3050      651.938   -7151.0318   -7078.3071   -109.10691    24590.681    2.5309934 
    3060    667.11199   -7152.4815   -7078.0642    120.93397    24563.632    2.5647462 
    3070    676.89776   -7153.3062   -7077.7972    270.86155    24536.901    2.5993524 
    3080    661.70641   -7151.3399   -7077.5255      589.771    24510.906    2.6334045 
    3090    652.43262   -7150.0162   -7077.2364    531.08638    24486.216    2.6648894 
    3100    652.30188   -7149.6714   -7076.9061     349.3591    24462.778    2.6935621 
    3110    655.56491   -7149.6565   -7076.5272    323.77833     24440.24    2.7198274 
    3120    671.14061    -7150.975   -7076.1083    564.23031    24418.583    2.7453874 
    3130     676.9567   -7151.1841   -7075.6685    774.62093    24398.248    2.7746237 
    3140    685.54285   -7151.7062   -7075.2328     915.6739    24379.692    2.8085598 
    3150    692.62879   -7152.0833   -7074.8195    1021.5669    24363.208    2.8441967 
    3160    692.78893   -7151.7307   -7074.4491     1167.427    24349.038    2.8774651 
    3170    685.55099    -7150.602   -7074.1278    1073.2645     24337.43    2.9055447 
    3180    679.81159    -7149.674   -7073.8399     931.8418    24328.214    2.9288019 
    3190    680.71991   -7149.5046   -7073.5693    964.84653    24321.096    2.9499509 
    3200     679.0465   -7149.0593   -7073.3106    1108.1865    24316.131    2.9719627 
    3210    675.36636      -7148.4   -7073.0619    1094.5333    24313.577    2.9972981 
    3220    677.97616   -7148.4469   -7072.8176    1142.3652    24313.463    3.0253242 
    3230    696.28739   -7150.2522   -7072.5802    929.25568    24315.797    3.0535782 
    3240     716.6236   -7152.3266   -7072.3862    836.92982    24320.213    3.0819363 
    3250    712.18629   -7151.7232   -7072.2778    973.08746    24326.506    3.1093936 
    3260    687.91496   -7148.9952   -7072.2572    1343.3375    24334.998    3.1335965 
    3270    665.48802   -7146.5039   -7072.2677    1570.7475    24346.448    3.1525014 
    3280    674.21129   -7147.4839   -7072.2747    1369.2419    24361.283    3.1660667 
    3290    675.04229   -7147.5698   -7072.2679    887.72543    24379.095    3.1757012 
    3300    677.88708    -7147.881   -7072.2616    428.32481    24398.906    3.1826471 
    3310    669.43075   -7146.9258   -7072.2498    105.56351    24419.705    3.1898421 
    3320     670.0365   -7146.9662   -7072.2226   -405.64474    24440.685    3.1996976 
    3330    688.01946   -7148.9336    -7072.184   -903.04588    24460.773    3.2147104 
    3340    680.54123    -7148.079   -7072.1636   -955.75884    24478.942    3.2359991 
    3350    658.23749   -7145.5827   -7072.1553   -820.21325    24495.011     3.262238 
    3360    667.04205   -7146.5301   -7072.1206   -1010.0423    24509.171    3.2908784 
    3370    684.38284   -7148.4092   -7072.0653   -1039.6044    24521.134    3.3203133 
    3380    677.42322   -7147.5861   -7072.0186   -809.49886    24530.832    3.3481866 
    3390    674.62133    -7147.238    -7071.983   -583.06122    24538.722    3.3715732 
    3400    680.18542   -7147.8263   -7071.9506   -500.79238    24545.275    3.3902744 
    3410    680.17676   -7147.8047     -7071.93   -420.06751    24550.728    3.4061347 
    3420    678.90001   -7147.6568   -7071.9245   -424.14464    24555.239    3.4225397 
    3430    674.16553   -7147.1337   -7071.9295    -446.3596    24558.802    3.4418651 
    3440    662.48338   -7145.8287   -7071.9277   -457.26455    24561.395    3.4623066 
    3450    671.87112   -7146.8563   -7071.9081   -751.66185    24562.901    3.4802522 
    3460    680.92621   -7147.8409   -7071.8826   -893.38682     24562.77    3.4963126 
    3470    666.33141   -7146.1902     -7071.86   -762.60518    24560.695    3.5131674 
    3480    668.18166   -7146.3662   -7071.8295   -632.89555     24556.93    3.5310319 
    3490    673.49369   -7146.9106   -7071.7814   -776.08629     24551.68    3.5522816 
    3500    686.64989   -7148.3308    -7071.734   -900.07978    24544.696    3.5793443 
    3510    687.79456   -7148.4299   -7071.7054   -663.00613    24535.775    3.6091229 
    3520    680.31956   -7147.5908   -7071.7001   -480.13022     24525.33    3.6353287 
    3530    696.30685   -7149.3936   -7071.7196   -654.71895    24513.715    3.6546285 
    3540    687.06876   -7148.4236     -7071.78   -638.83127    24500.647    3.6699829 
    3550    655.68725   -7144.9988   -7071.8559   -517.40936    24486.146    3.6854339 
    3560     660.9222   -7145.6354   -7071.9085   -753.13857    24470.375    3.7031154 
    3570     676.3686   -7147.3853   -7071.9353   -884.84371    24452.904    3.7253982 
    3580     677.7137   -7147.5551   -7071.9551   -575.00197    24433.506    3.7539291 
    3590    685.55405   -7148.4601   -7071.9855   -292.03391    24412.753    3.7860618 
    3600    668.99149   -7146.6423   -7072.0153    78.700343    24391.351    3.8172183 
    3610    681.75528   -7148.0981   -7072.0473   -50.598742    24369.955    3.8446851 
    3620    709.81336   -7151.2838    -7072.103    -206.4812    24348.398    3.8705776 
    3630    718.35936   -7152.3767   -7072.2426   -295.66104    24326.341    3.8975183 
    3640    704.09828   -7151.0279   -7072.4847   -555.79215    24303.518    3.9268343 
    3650    682.50627   -7148.9266    -7072.792   -553.01811    24279.472     3.956401 
    3660    677.71427   -7148.7227   -7073.1226   -535.02153    24254.137    3.9827269 
    3670    671.32791    -7148.348   -7073.4604   -385.19229    24227.578    4.0079021 
    3680    654.01377   -7146.7314   -7073.7752    -62.44726    24200.144    4.0350659 
    3690    652.27499   -7146.8066   -7074.0443    80.859404    24172.469    4.0633016 
    3700    657.62123   -7147.6258   -7074.2672    110.28359    24144.856    4.0920997 
    3710    655.73139   -7147.5962   -7074.4484    603.15913    24117.504    4.1240957 
    3720     645.1243   -7146.5374   -7074.5728    1160.7754    24091.393    4.1594861 
    3730    654.45067   -7147.6422   -7074.6372    1190.8898     24067.62    4.1943301 
    3740    679.21534   -7150.4371   -7074.6696    913.00321    24046.293    4.2266311 
    3750    695.30309   -7152.2805   -7074.7184    844.81431    24026.927     4.258889 
    3760    693.98066   -7152.2303   -7074.8158    856.73851    24009.326    4.2941625 
    3770    687.86636   -7151.6918   -7074.9593     941.1423    23993.527    4.3357707 
    3780    684.84896   -7151.5318   -7075.1358    787.99053    23979.649    4.3837989 
    3790    676.21262   -7150.7684   -7075.3358    548.46086    23967.396    4.4335206 
    3800     665.1719   -7149.7371   -7075.5361    306.83185    23956.287    4.4803808 
    3810    660.31169   -7149.3789   -7075.7201    8.9408112    23945.767    4.5230807 
    3820    647.44701   -7148.0895   -7075.8658    227.22331    23935.345    4.5627995 
    3830     642.4789   -7147.6263   -7075.9568     585.2732     23925.39    4.5992964 
    3840     645.3399   -7147.9666   -7075.9779    957.71096    23916.663    4.6347402 
    3850    662.43507    -7149.838   -7075.9424    1041.3095    23909.911    4.6737825 
    3860    676.08509   -7151.2952   -7075.8769    901.56205    23905.334    4.7184526 
    3870    675.35504   -7151.1422   -7075.8053     502.1591    23902.606    4.7654177 
    3880    684.67956   -7152.1142   -7075.7372    140.59679    23900.958    4.8095116 
    3890    701.56979   -7153.9565   -7075.6954    231.38816    23899.688     4.850706 
    3900    686.59739   -7152.2926   -7075.7016    666.82627    23898.968    4.8929884 
    3910    678.61038   -7151.4477   -7075.7477    696.64879    23899.588    4.9380138 
    3920    680.58866   -7151.7297    -7075.809    410.44377    23901.633    4.9845934 
    3930     672.6191   -7150.9107   -7075.8791    483.07862    23904.642    5.0306611 
    3940    658.75189   -7149.4263   -7075.9415    844.44877    23908.765    5.0734531 
    3950    656.33318   -7149.1881   -7075.9732     1028.811    23914.688    5.1082697 
    3960    664.59533   -7150.1077   -7075.9711    979.06571    23922.789    5.1331615 
    3970    659.99109   -7149.5599   -7075.9369    1059.5168    23933.047    5.1531909 
    3980    663.04803   -7149.8312   -7075.8672    1163.4166    23945.626    5.1752983 
    3990    681.00462   -7151.7358   -7075.7687    1046.1336    23960.711    5.2032144 
    4000     689.8513   -7152.6226   -7075.6686    703.19671     23978.07    5.2349073 
    4010    682.32445   -7151.6987   -7075.5844    387.36077    23997.038    5.2663722 
    4020    683.35947   -7151.7412   -7075.5114    81.154348    24016.923    5.2947344 
    4030    685.89891   -7151.9636   -7075.4505    158.36711    24037.147    5.3200243 
    4040    683.27388   -7151.6355   -7075.4153     395.2803    24057.827    5.3401743 
    4050    673.27454   -7150.5002   -7075.3954    353.53698    24079.392     5.353357 
    4060    671.49464   -7150.2777   -7075.3715    137.04643    24101.778    5.3607794 
    4070    675.98431   -7150.7418   -7075.3348   -120.03538    24124.542     5.364461 
    4080    670.44696   -7150.0774    -7075.288   -249.19388    24147.167    5.3675256 
    4090    659.98649   -7148.8492   -7075.2267   -324.15435    24169.349    5.3737418 
    4100     659.5316   -7148.7012   -7075.1294   -442.08782    24190.911    5.3837752 
    4110     669.4323   -7149.6698   -7074.9936   -356.99836    24211.637    5.3930812 
    4120    667.78541   -7149.3204   -7074.8279   -28.279458    24231.733    5.3979274 
    4130    671.90303   -7149.5889   -7074.6371   -24.926997    24251.777    5.3952439 
    4140    672.23155   -7149.4031   -7074.4147   -110.54857    24271.848    5.3833134 
    4150    677.45098   -7149.7346   -7074.1639   -392.47037    24291.719    5.3653643 
    4160    672.87881   -7148.9442   -7073.8835   -587.42494    24310.838    5.3516737 
    4170    667.50888   -7148.0354   -7073.5738   -638.38799    24328.794    5.3489625 
    4180    669.09108   -7147.8606   -7073.2225   -759.33157    24345.413    5.3577614 
    4190     670.6069    -7147.636   -7072.8288   -826.96644    24360.458    5.3729027 
    4200    681.78671   -7148.4556   -7072.4013   -1011.9383    24373.724    5.3859888 
    4210     687.8804   -7148.6937   -7071.9596   -1052.8234    24384.873    5.3913108 
    4220    689.73282   -7148.4704   -7071.5297   -868.96971    24393.804    5.3883011 
    4230    693.62059   -7148.4974    -7071.123   -793.79273    24400.829    5.3836799 
    4240    700.77301    -7148.923   -7070.7507   -910.48659    24406.106    5.3861588 
    4250    710.76572   -7149.7214   -7070.4344   -958.67279    24409.419    5.3992057 
    4260     702.9907   -7148.6115   -7070.1919   -420.39731    24410.771    5.4224007 
    4270    697.33793   -7147.8058   -7070.0167   -52.681378    24411.168    5.4542646 
    4280    705.58917   -7148.6062   -7069.8967   -320.65822    24411.331    5.4923603 
    4290    697.33549   -7147.6268    -7069.838   -687.32429    24410.764    5.5326978 
    4300    682.86674   -7146.0048     -7069.83   -740.49213    24408.739    5.5670764 
    4310    686.56296   -7146.4345   -7069.8473   -929.48336    24405.033    5.5907963 
    4320    695.88069   -7147.5269   -7069.9004   -1113.1146    24399.216    5.6095161 
    4330    688.90957   -7146.8439   -7069.9951   -886.08096    24390.951    5.6290236 
    4340    698.34645   -7148.0442   -7070.1426   -675.61974    24380.611    5.6494994 
    4350    698.32674   -7148.2525   -7070.3531   -300.24115    24368.695    5.6732708 
    4360    691.66811   -7147.7935   -7070.6369    138.49295    24356.015    5.7020069 
    4370    695.30309   -7148.5589   -7070.9968    170.90064    24343.416    5.7341454 
    4380    709.61386   -7150.6253   -7071.4668    33.533664    24331.024    5.7689096 
    4390    704.95578   -7150.7174   -7072.0785    57.866548    24318.588    5.8051052 
    4400     684.3337   -7149.1363   -7072.7978     126.4839    24306.125    5.8377616 
    4410    672.87971   -7148.6163   -7073.5556    293.29943     24293.79    5.8622384 
    4420    666.45853   -7148.6333   -7074.2889    701.35157    24281.984    5.8801311 
    4430    658.18689   -7148.3717   -7074.9499    1008.2645    24271.555    5.8962772 
    4440    638.65318   -7146.7309   -7075.4882    869.69447    24263.123    5.9132725 
    4450    641.11822   -7147.4019   -7075.8841    248.92183    24256.389    5.9314011 
    4460    648.84795    -7148.547    -7076.167   -260.98414    24250.128    5.9516002 
    4470    637.88597   -7147.5002   -7076.3431   -382.40925    24243.275    5.9708201 
    4480    658.66729   -7149.9132   -7076.4378    -507.2281    24235.457    5.9834756 
    4490    671.77474   -7151.4196   -7076.4821   -516.98521     24226.42    5.9896775 
    4500    667.66664   -7150.9868   -7076.5076    -339.9395    24216.123    5.9932857 
    4510    663.38707   -7150.5153   -7076.5134   -387.13107    24204.818    5.9975464 
    4520    663.64962   -7150.5255   -7076.4944   -607.79754    24192.414    6.0019107 
    4530    672.89159   -7151.5229   -7076.4608   -677.20717     24178.47    6.0046199 
    4540    668.75092   -7151.0212    -7076.421   -241.09466    24162.873    6.0057813 
    4550    657.01133   -7149.6554   -7076.3648    385.92165    24146.479    6.0066491 
    4560    663.26955   -7150.2676   -7076.2788    707.71977    24130.531    6.0101497 
    4570     669.5051   -7150.8472   -7076.1629    601.49415     24115.72    6.0206018 
    4580    678.24856      -7151.7   -7076.0404    363.76658    24101.887    6.0378365 
    4590    672.55623   -7150.9459   -7075.9213    580.38242    24088.647    6.0574845 
    4600    667.05426   -7150.2074   -7075.7965    872.02999    24076.397    6.0738528 
    4610    682.32805   -7151.7789   -7075.6642    814.61603    24065.689    6.0839226 
    4620     683.2278   -7151.7559   -7075.5408    1007.2998     24056.57    6.0898254 
    4630    681.04551   -7151.4113   -7075.4397     1212.893    24049.429    6.0924106 
    4640    675.59221   -7150.7149   -7075.3515    1166.8978    24044.716     6.091502 
    4650    670.07906    -7150.015   -7075.2667    1043.1646    24042.443    6.0862171 
    4660    664.76705   -7149.3256   -7075.1698    769.26641    24042.379    6.0759371 
    4670    674.04983   -7150.2452   -7075.0539    337.80496    24043.962    6.0642784 
    4680     691.4276    -7152.059   -7074.9292     77.96587     24046.38    6.0563893 
    4690    695.45484   -7152.4079   -7074.8289     96.87611     24049.11    6.0531962 
    4700    682.66683   -7150.9163   -7074.7638    300.98478    24052.188    6.0543841 
    4710    671.18312   -7149.5861   -7074.7146    257.69739    24055.969    6.0595463 
    4720    673.17554   -7149.7482   -7074.6544    -49.04819    24060.378    6.0698971 
    4730    676.01776   -7149.9884   -7074.5776    -230.5394    24064.855    6.0873999 
    4740    680.38167   -7150.3887   -7074.4911   -178.17916    24069.007    6.1076452 
    4750    675.50319   -7149.7479   -7074.3945    78.077035    24072.946    6.1224411 
    4760    683.67982   -7150.5511   -7074.2856    -35.48915    24077.101    6.1304372 
    4770    682.23919   -7150.2646   -7074.1598   -175.19535      24081.3    6.1398092 
    4780    661.35967   -7147.7932   -7074.0175      57.8996    24085.326    6.1568108 
    4790    651.35459   -7146.4824   -7073.8228    288.68288    24089.608    6.1795316 
    4800    653.28008   -7146.4098   -7073.5354    353.41921    24094.634    6.2021495 
    4810    658.66223    -7146.614   -7073.1392     268.0455     24100.56    6.2188658 
    4820    668.10255   -7147.1728   -7072.6449    215.17386    24107.273    6.2283157 
    4830    674.59356   -7147.3253   -7072.0734    223.04335    24114.683    6.2340327 
    4840    688.80798   -7148.3017   -7071.4641     249.0282    24122.819    6.2393796 
    4850    696.44666   -7148.5481   -7070.8584    388.17056    24131.786    6.2450181 
    4860    684.77958   -7146.6897   -7070.3015    795.10277     24141.97    6.2496587 
    4870    676.64077   -7145.2744   -7069.7941    921.59201    24154.171    6.2512624 
    4880    685.09625   -7145.7413   -7069.3178    672.24458    24168.739    6.2477764 
    4890    689.22434   -7145.7582   -7068.8742    197.24621    24185.239    6.2418143 
    4900    694.56686   -7145.9636   -7068.4836   -120.52681    24202.754    6.2350668 
    4910    696.23304   -7145.8185   -7068.1527   -176.51965    24220.628    6.2250826 
    4920    695.57451   -7145.4818   -7067.8894   -270.11611    24238.683    6.2114933 
    4930    692.53488   -7144.9379   -7067.6846   -559.61449    24256.701    6.1971007 
    4940    687.98032   -7144.2692    -7067.524   -935.76218     24274.04     6.185065 
    4950    690.68401   -7144.4468   -7067.3999    -1326.442    24289.826    6.1787398 
    4960    681.95843   -7143.3849   -7067.3114    -1269.956    24303.259    6.1779609 
    4970    676.27177   -7142.6871    -7067.248   -858.33658    24314.364    6.1773894 
    4980    693.28426   -7144.5409    -7067.204   -490.40719    24323.888    6.1730982 
    4990    697.36991   -7144.9882   -7067.1956   -74.787773    24332.597    6.1669249 
    5000    698.38354   -7145.1497    -7067.244    391.20666    24341.428    6.1606566 
Loop time of 1851.97 on 16 procs for 3000 steps with 864 atoms

Performance: 0.140 ns/day, 171.479 hours/ns, 1.620 timesteps/s
97.6% CPU use with 16 MPI tasks x 1 OpenMP threads

MPI task timing breakdown:
Section |  min time  |  avg time  |  max time  |%varavg| %total
---------------------------------------------------------------
Pair    | 1305.7     | 1624.3     | 1835.9     | 327.2 | 87.71
Bond    | 0.00024176 | 0.00071898 | 0.0015841  |   0.0 |  0.00
Neigh   | 0.033643   | 0.041443   | 0.050711   |   2.3 |  0.00
Comm    | 9.4367     | 178.55     | 468.85     | 889.3 |  9.64
Output  | 0.19722    | 0.20141    | 0.26131    |   3.4 |  0.01
Modify  | 6.3544     | 48.82      | 97.063     | 488.4 |  2.64
Other   |            | 0.01653    |            |       |  0.00

Nlocal:        54.0000 ave          68 max          45 min
Histogram: 1 1 4 3 2 3 1 0 0 1
Nghost:        459.875 ave         511 max         424 min
Histogram: 1 2 4 1 1 5 0 1 0 1
Neighs:         0.00000 ave           0 max           0 min
Histogram: 16 0 0 0 0 0 0 0 0 0
FullNghs:      1889.25 ave        2665 max        1455 min
Histogram: 2 2 4 1 3 3 0 0 0 1

Total # of neighbors = 30228
Ave neighs/atom = 34.986111
Ave special neighs/atom = 0.0000000
Neighbor list builds = 300
Dangerous builds = 300
unfix   2

fix     3 all npt temp 675.0 675.0 $(100.0*dt) aniso 1.01325 1.01325 $(1000.0*dt)
fix     3 all npt temp 675.0 675.0 0.10000000000000000555 aniso 1.01325 1.01325 $(1000.0*dt)
fix     3 all npt temp 675.0 675.0 0.10000000000000000555 aniso 1.01325 1.01325 1
run     20000
Per MPI rank memory allocation (min/avg/max) = 8.899 | 8.902 | 8.907 Mbytes
Step Temp PotEng TotEng Press Volume c_msd[4] 
    5000    698.38354   -7145.1497    -7067.244    391.20666    24341.428    6.1606566 
    5010    709.29164   -7146.3978   -7067.2752    523.23122    24341.961    6.1645665 
    5020    723.41022   -7148.0902   -7067.3927    91.754021    24343.537    6.1669904 
    5030    719.54282   -7147.8881    -7067.622   -293.80879    24345.327    6.1733345 
    5040    707.00005    -7146.827   -7067.9601   -177.79883    24346.576    6.1865053 
    5050    700.51703   -7146.5211   -7068.3774     28.59147    24347.446    6.1986481 
    5060    697.39194   -7146.6555   -7068.8604    266.94853    24348.392    6.2037509 
    5070    688.93004    -7146.242   -7069.3908    432.35011    24349.914    6.2030285 
    5080     677.7106   -7145.5313   -7069.9316    494.46266    24352.392    6.1996349 
    5090    684.38629   -7146.8085   -7070.4642    274.63849    24355.915     6.199926 
    5100    683.52131   -7147.2282   -7070.9804   -1.2506076    24360.057    6.2107507 
    5110    673.28461   -7146.5661   -7071.4602   -198.65705    24364.242     6.235357 
    5120    670.01836   -7146.6303   -7071.8888   -375.37356    24368.005    6.2680489 
    5130    652.06461   -7144.9726   -7072.2338   -486.16501    24370.955    6.2967999 
    5140     662.3023   -7146.3742   -7072.4933   -688.33781    24372.821    6.3139754 
    5150    674.79983   -7147.9709    -7072.696   -902.01299    24373.162    6.3232571 
    5160    669.07771   -7147.4977   -7072.8611   -750.55944      24371.6    6.3304044 
    5170    678.37159   -7148.6755   -7073.0021   -549.84043    24368.375    6.3362617 
    5180    677.65995   -7148.7134   -7073.1194   -242.10756    24363.971    6.3397662 
    5190    687.49606   -7149.9198   -7073.2286   -228.96658    24358.953    6.3376799 
    5200    698.28671    -7151.248    -7073.353   -199.55706     24353.43     6.329259 
    5210    686.78928   -7150.1183   -7073.5059    88.687806    24347.492    6.3200477 
    5220    675.31493   -7148.9985   -7073.6661    500.53423    24341.763    6.3161287 
    5230    675.02393   -7149.1128   -7073.8129    540.86113    24337.072    6.3209479 
    5240    679.55625    -7149.752   -7073.9465    139.39816    24333.503    6.3371185 
    5250    675.32623   -7149.4098   -7074.0761   -330.91758     24330.24    6.3624142 
    5260    663.01495   -7148.1517   -7074.1913    -486.9886    24326.293    6.3892716 
    5270    664.94533   -7148.4551   -7074.2794   -337.77746    24321.336    6.4108205 
    5280    660.66168   -7148.0358    -7074.338   -245.49239    24315.612     6.424058 
    5290    660.53568   -7148.0474   -7074.3637   -111.73438    24309.366    6.4270912 
    5300    683.33631   -7150.5961   -7074.3689   -103.66479    24302.834    6.4219572 
    5310    681.21977   -7150.3693   -7074.3782    279.07792    24296.137    6.4146853 
    5320    674.05194   -7149.5838   -7074.3923    895.00339    24290.092    6.4102938 
    5330    687.66856   -7151.1283   -7074.4178    1059.9109    24285.909    6.4114027 
    5340    675.39407   -7149.8099   -7074.4687    1193.5819    24284.046    6.4160083 
    5350    650.29648   -7147.0531   -7074.5115    1560.1582    24284.889    6.4180707 
    5360    667.87914   -7149.0249   -7074.5219    1238.5689    24289.021    6.4158933 
    5370    687.88074   -7151.2502   -7074.5161     659.9819    24295.856     6.413376 
    5380    676.24315   -7149.9631   -7074.5272    535.62807    24304.301    6.4140611 
    5390    665.19019   -7148.7498   -7074.5468    486.00007    24313.994    6.4182704 
    5400    662.50167   -7148.4485   -7074.5455    308.82885    24324.783    6.4270368 
    5410    662.02598   -7148.3669   -7074.5169    280.93779    24336.346    6.4408285 
    5420    661.18882   -7148.2069   -7074.4503    514.19231    24348.654    6.4557142 
    5430    681.53446   -7150.3784   -7074.3522    486.62602    24362.116     6.469187 
    5440    691.13691   -7151.3395   -7074.2421    165.38939    24376.683    6.4812747 
    5450    686.55395   -7150.7314   -7074.1453   -99.468819     24391.73    6.4912458 
    5460    692.35556   -7151.2968   -7074.0635   -361.05725    24406.664     6.501788 
    5470    696.80889   -7151.7351    -7074.005   -466.66505    24420.934     6.516205 
    5480    693.74832   -7151.3792   -7073.9905   -383.30199    24434.311    6.5349694 
    5490    690.74324   -7151.0781   -7074.0247    -228.9137    24446.945     6.556762 
    5500    686.06568   -7150.6365   -7074.1049   -68.772991    24459.154     6.582567 
    5510    676.28043   -7149.6624   -7074.2223   -163.91963    24471.246    6.6121832 
    5520    669.21528   -7149.0112   -7074.3593   -390.43059    24483.057    6.6440029 
    5530    668.24602   -7149.0424   -7074.4986   -643.78049    24494.074    6.6743764 
    5540    667.36907   -7149.0841    -7074.638   -850.02389     24503.73    6.7002257 
    5550    654.95315   -7147.8242   -7074.7632   -698.57769    24511.641    6.7220637 
    5560    666.45983   -7149.2052   -7074.8606   -654.68892    24518.015    6.7418646 
    5570    677.35589   -7150.5085   -7074.9484   -624.80358    24522.957     6.763122 
    5580     664.7102   -7149.1893   -7075.0399   -300.54218    24526.591    6.7890279 
    5590    664.19736   -7149.2149   -7075.1226   -208.99494     24529.52    6.8197971 
    5600    668.16345   -7149.7209   -7075.1862   -451.02692    24531.912    6.8550422 
    5610    666.68548   -7149.5974   -7075.2276   -444.49047    24533.372    6.8940071 
    5620    665.11204   -7149.4386   -7075.2444   -294.17742    24533.881     6.935944 
    5630    665.12391   -7149.4349   -7075.2393   -266.73234    24533.698    6.9790321 
    5640    657.76541   -7148.5866   -7075.2119   -218.43494    24532.937    7.0191868 
    5650    660.29225   -7148.8102   -7075.1536   -354.64598     24531.66    7.0554718 
    5660    669.24908   -7149.7193   -7075.0635    -620.0429    24529.563    7.0913313 
    5670    663.73645   -7148.9876   -7074.9468   -712.32968    24526.126    7.1287547 
    5680     668.1154   -7149.3347   -7074.8054   -703.38126    24521.109      7.16773 
    5690    670.09637   -7149.3896   -7074.6393   -536.41549    24514.534    7.2062913 
    5700    675.50067   -7149.8096   -7074.4565    -415.9267    24506.748    7.2403668 
    5710    686.51879    -7150.844   -7074.2618   -431.96249    24498.014    7.2719731 
    5720    695.21973   -7151.6327   -7074.0799   -368.78548    24488.328    7.3068982 
    5730    680.43769   -7149.8319   -7073.9281   -212.97777    24477.826    7.3467758 
    5740    652.43012   -7146.5611   -7073.7816   -200.32332    24466.817    7.3899359 
    5750    647.87751   -7145.8636   -7073.5919   -272.13324    24455.346    7.4322108 
    5760    651.89815   -7146.0458   -7073.3256   -405.27914     24443.25     7.470994 
    5770    664.09443   -7147.0742   -7072.9934   -569.20309    24430.234    7.5068717 
    5780    655.32186   -7145.7183   -7072.6161   -390.96459    24416.035    7.5397309 
    5790    654.79168   -7145.2421   -7072.1991   -239.30391    24400.971    7.5714889 
    5800     661.9526   -7145.5678    -7071.726   -88.528952    24385.375    7.6096521 
    5810    672.32224   -7146.2093   -7071.2107    79.189655    24369.603    7.6577331 
    5820    682.87149   -7146.8482   -7070.6729    308.54161    24354.047    7.7127103 
    5830     689.5353   -7147.0691   -7070.1504    632.38532    24339.196    7.7709464 
    5840    698.05753     -7147.54   -7069.6706    870.63824    24325.729    7.8285292 
    5850    708.59195   -7148.3116   -7069.2672    968.82756    24314.176    7.8830333 
    5860    706.25443   -7147.7449   -7068.9611    964.58669    24304.762    7.9352159 
    5870     704.2761   -7147.3178   -7068.7548    805.48366    24297.469    7.9837918 
    5880    708.77846   -7147.6979   -7068.6326     447.8168     24291.92    8.0253623 
    5890    717.40593   -7148.6315   -7068.6038    431.98593    24287.449    8.0598904 
    5900    718.63497   -7148.8361   -7068.6712     784.4262    24284.022    8.0921699 
    5910    722.25531    -7149.413   -7068.8443    1045.0678     24282.29    8.1260526 
    5920    701.84473    -7147.396   -7069.1041     1466.753     24282.91    8.1573881 
    5930    686.41031   -7145.9849   -7069.4148    1724.1178     24286.71    8.1758646 
    5940     695.1477   -7147.3014   -7069.7566    1815.3691    24294.272    8.1800769 
    5950    706.79129   -7148.9881   -7070.1444    1798.3357    24305.814    8.1761465 
    5960    713.57563   -7150.2015   -7070.6011    1708.8494    24321.291    8.1674745 
    5970    700.39797   -7149.2446   -7071.1141      1566.07    24340.535    8.1572386 
    5980    692.91551   -7148.9347    -7071.639     964.2994    24363.156    8.1464563 
    5990     695.4371   -7149.7218   -7072.1447    218.17275    24387.907    8.1358705 
    6000    694.36213   -7150.0833   -7072.6261   -191.86747    24413.245    8.1264081 
    6010    682.00504   -7149.1474   -7073.0687   -457.22429    24438.194    8.1179365 
    6020      663.196   -7147.4184   -7073.4379   -656.60445    24462.142    8.1114267 
    6030    668.27652   -7148.2671   -7073.7198   -795.32093    24484.637    8.1058747 
    6040    686.23282   -7150.4974   -7073.9471   -838.31384    24505.384    8.0996642 
    6050    677.40899    -7149.714    -7074.148   -582.85924    24524.335    8.0909748 
    6060    670.34893   -7149.1045   -7074.3261   -294.87837    24542.003     8.078202 
    6070    681.88237   -7150.5417   -7074.4767   -468.05671    24558.909     8.064049 
    6080     702.1894    -7152.958   -7074.6277   -688.45832    24574.762    8.0553919 
    6090    706.10646   -7153.5903    -7074.823    -562.0972    24589.152    8.0542533 
    6100    680.48955    -7150.963   -7075.0534   -182.20276    24602.358    8.0531052 
    6110    671.32582   -7150.1697   -7075.2823   -257.57685    24615.063    8.0445365 
    6120     672.7067   -7150.5245    -7075.483   -307.07901    24627.222    8.0323654 
    6130    677.00627   -7151.1862   -7075.6652    -101.3366    24638.765    8.0172803 
    6140    680.89088   -7151.8022   -7075.8478    49.785239    24650.082    7.9932634 
    6150      667.444   -7150.4773   -7076.0229    135.50238    24661.524    7.9634851 
    6160    664.11675   -7150.2609   -7076.1777    -49.03973    24673.227    7.9357005 
    6170    655.39476   -7149.4072    -7076.297   -207.08927    24684.829     7.913217 
    6180    642.81497   -7148.0732   -7076.3662   -88.235124    24696.049    7.8929217 
    6190    652.83738   -7149.2031   -7076.3781   -232.52275    24707.028    7.8698353 
    6200    659.31625    -7149.886   -7076.3383    -478.8033    24717.485    7.8453098 
    6210    661.11747   -7150.0116   -7076.2629   -674.34631    24726.896    7.8221762 
    6220    660.00282   -7149.7735   -7076.1492   -862.49354    24734.791    7.7993957 
    6230    663.88737   -7150.0564   -7075.9987   -940.29432    24740.762    7.7763682 
    6240    671.52843   -7150.7286   -7075.8186   -875.73594    24744.632    7.7528868 
    6250    673.65539   -7150.7677   -7075.6204   -648.40109    24746.535    7.7308852 
    6260    670.56048   -7150.2151    -7075.413   -289.10762    24746.997    7.7166137 
    6270    664.60629   -7149.3199   -7075.1821   -227.51316    24746.748    7.7104941 
    6280    671.61264   -7149.8441   -7074.9247   -523.03638    24745.897    7.7066311 
    6290    649.55509   -7147.0878    -7074.629    -699.6941    24743.898    7.7026247 
    6300    651.28145    -7146.935   -7074.2835   -959.02538    24740.264    7.6976364 
    6310    657.87653   -7147.2355   -7073.8484    -1030.776    24734.474    7.6935061 
    6320     668.0015   -7147.8581   -7073.3415   -875.45048    24726.375    7.6929976 
    6330    679.51351   -7148.5842   -7072.7834   -516.82333    24716.322    7.6981619 
    6340     696.1639   -7149.8707   -7072.2126   -166.77315    24705.071    7.7092069 
    6350    700.94177    -7149.868   -7071.6769    302.51445     24693.45    7.7239231 
    6360    699.24358    -7149.212   -7071.2103    653.36516    24682.476    7.7370906 
    6370    694.34105    -7148.276   -7070.8212    609.42464     24672.87    7.7462037 
    6380    683.07833   -7146.6924    -7070.494     533.9989    24664.633    7.7494226 
    6390     678.4478    -7145.893   -7070.2111    97.016895    24657.497     7.748072 
    6400    687.56713   -7146.6565   -7069.9573   -226.12921    24650.597    7.7443382 
    6410     711.4002   -7149.1099   -7069.7521   -137.99624    24643.263    7.7413873 
    6420    709.27177   -7148.7503   -7069.6299   -22.544821    24635.595    7.7442956 
    6430    698.87132   -7147.5526   -7069.5925   -144.37445    24627.819    7.7555341 
    6440    704.01485    -7148.153   -7069.6191   -283.16401    24619.701    7.7737569 
    6450    709.09443   -7148.8058   -7069.7052   -247.09723    24610.948    7.7933713 
    6460    714.21717   -7149.5372   -7069.8652   -269.04129    24601.578     7.810958 
    6470    700.18022   -7148.1965   -7070.0903   -279.20543     24591.56     7.828986 
    6480    677.85053   -7145.9528   -7070.3375   -111.21164    24580.903    7.8499775 
    6490    670.78962    -7145.386   -7070.5584   -25.289603    24569.931    7.8739072 
    6500    690.25024   -7147.7504    -7070.752   -333.93072    24558.771    7.9031027 
    6510    703.74652    -7149.461    -7070.957   -653.16139    24546.795     7.940707 
    6520    690.39499   -7148.1966    -7071.182   -507.43888     24533.37    7.9837449 
    6530    682.51566   -7147.5409   -7071.4052   -309.36038    24518.724    8.0227894 
    6540    675.70035   -7146.9753   -7071.5999   -90.711902    24503.293    8.0539421 
    6550    684.21117   -7148.0927   -7071.7679    -2.002867    24487.511    8.0789609 
    6560    696.82396   -7149.6624   -7071.9306   -41.644073     24471.58    8.0993254 
    6570    699.84128    -7150.185   -7072.1166   -51.844915    24455.443    8.1143489 
    6580    687.96738   -7149.0643   -7072.3205    -75.62858    24439.072    8.1282956 
    6590    683.84667    -7148.812   -7072.5279   -280.42944    24422.361    8.1497741 
    6600     672.6461   -7147.7581   -7072.7234   -376.20213    24404.905    8.1814875 
    6610    660.10277   -7146.5221   -7072.8866   -256.25176    24386.496    8.2179607 
    6620    669.05358   -7147.6449    -7073.011    -10.14333    24367.374    8.2552391 
    6630    673.02242   -7148.1824   -7073.1057     387.5895    24348.094    8.2958459 
    6640    684.23962   -7149.5173   -7073.1894    559.05238    24329.451    8.3428555 
    6650    702.87348   -7151.7036    -7073.297    452.79322    24311.817    8.3966432 
    6660    691.19781   -7150.5579   -7073.4537    614.67289    24295.076    8.4544995 
    6670    674.65789   -7148.8894   -7073.6303    807.76325    24279.536     8.510737 
    6680    687.82273   -7150.5434   -7073.8157     634.5977    24265.521    8.5598478 
    6690    676.74704   -7149.4958   -7074.0037    931.88824    24252.877    8.6010565 
    6700    672.57207   -7149.2166   -7074.1902     1222.271    24242.144    8.6348056 
    6710    671.91083   -7149.3232   -7074.3706    1416.9866    24233.972    8.6598507 
    6720    661.61098   -7148.3434   -7074.5396    1589.6653    24228.828    8.6782951 
    6730    658.86927   -7148.1792   -7074.6813    1624.9358    24227.107    8.6923032 
    6740    669.67518   -7149.5056   -7074.8023    1481.4516     24228.91    8.7010598 
    6750    668.84788   -7149.5224   -7074.9114    1355.0089    24234.009    8.7059343 
    6760    668.09148   -7149.5424   -7075.0158    1112.9591    24242.125    8.7128046 
    6770    673.12646    -7150.198   -7075.1097    889.87636    24252.805    8.7284712 
    6780    685.46089   -7151.6712    -7075.207    983.49492    24265.649    8.7550749 
    6790    684.99731   -7151.7432   -7075.3307    1232.9127    24280.854    8.7858972 
    6800    674.71762   -7150.7503   -7075.4845    1168.2234    24298.905    8.8092025 
    6810    668.97284   -7150.2783   -7075.6534    894.44875     24319.74    8.8204634 
    6820    665.15141   -7150.0213   -7075.8226    587.77805    24342.849    8.8216054 
    6830    663.51885   -7149.9969   -7075.9804    65.388431    24367.522    8.8159903 
    6840    661.14404   -7149.8689   -7076.1172   -555.08354     24392.64    8.8089699 
    6850    651.01257   -7148.8507   -7076.2293   -935.12256    24416.886    8.8043333 
    6860    640.41224   -7147.7398   -7076.3009   -951.63639    24439.405    8.8058891 
    6870    645.96651   -7148.3789   -7076.3203   -890.66001    24460.064    8.8151994 
    6880    650.66574   -7148.8612   -7076.2785   -932.65779    24478.958    8.8319419 
    6890    652.95626   -7149.0134   -7076.1752   -1298.8592    24495.896    8.8538881 
    6900    653.49481   -7148.8928   -7075.9944   -1582.9705    24510.132    8.8807284 
    6910    662.80983   -7149.6644    -7075.727   -1817.7152     24520.99    8.9100409 
    6920    666.49482   -7149.7262   -7075.3777   -1844.5148    24527.927    8.9393424 
    6930    665.74411   -7149.2212   -7074.9565   -1594.8843    24530.848    8.9695171 
    6940    675.84524   -7149.8519   -7074.4604   -1354.8205     24530.21    9.0052699 
    6950    689.17408   -7150.7848   -7073.9064   -1229.0822    24526.507    9.0476013 
    6960     690.0922   -7150.3227   -7073.3419   -1236.3643    24519.978    9.0912548 
    6970    685.96774   -7149.3224   -7072.8017   -1206.0582    24510.625    9.1304689 
    6980    675.84875   -7147.6801   -7072.2882   -1042.5217    24498.514    9.1623105 
    6990    669.75766   -7146.5073   -7071.7948   -1015.1378    24483.912     9.189505 
    7000    676.50164    -7146.778   -7071.3132   -995.23061    24466.882    9.2176313 
    7010    678.77307   -7146.5662   -7070.8481   -780.32259    24447.468    9.2504238 
    7020    667.85119     -7144.91   -7070.4102    -277.4262    24426.177    9.2878594 
    7030    674.87499   -7145.2713    -7069.988      151.029    24404.047    9.3265734 
    7040    696.11508   -7147.2329   -7069.5802    327.86584    24381.978    9.3635533 
    7050    718.64382   -7149.4026   -7069.2368    308.22705    24360.378    9.3968639 
    7060    715.07178   -7148.7667   -7068.9994    577.60177    24339.336    9.4262787 
    7070    698.66378   -7146.8047   -7068.8677    923.98206    24319.386    9.4511781 
    7080    690.43478   -7145.8176   -7068.7985    920.11767    24301.218    9.4740104 
    7090    693.30958   -7146.1114   -7068.7716    792.85293     24284.88    9.5010767 
    7100    700.31869   -7146.9117   -7068.7901    668.34348    24270.135    9.5333402 
    7110    695.16448   -7146.4116    -7068.865    598.32358    24256.732     9.566979 
    7120    681.08381   -7144.9499    -7068.974    561.19775    24244.516    9.5986894 
    7130    689.09961    -7145.976   -7069.1059    374.21849    24233.364     9.627579 
    7140    690.05208   -7146.2484   -7069.2721    368.07437    24222.952    9.6564922 
    7150    678.37202   -7145.1394    -7069.466    670.64867    24213.293    9.6870943 
    7160    686.90251   -7146.3059   -7069.6809    887.34156    24204.947    9.7157791 
    7170    696.26265   -7147.6034   -7069.9343    1176.0228    24198.465    9.7426921 
    7180    694.42061   -7147.7118   -7070.2481    1577.8803    24194.525    9.7726858 
    7190    686.93881   -7147.2379   -7070.6088     1395.913    24193.881    9.8067021 
    7200    685.29651   -7147.4528   -7071.0069    830.30797    24196.207    9.8428557 
    7210    675.81579   -7146.8128   -7071.4245    712.59593     24200.48    9.8799017 
    7220    667.14111   -7146.2633   -7071.8427    691.16867    24206.412    9.9131624 
    7230    670.43604   -7147.0363   -7072.2481    189.88726    24213.859    9.9385077 
    7240     670.4594   -7147.4328   -7072.6421   -421.08564    24221.804    9.9548124 
    7250    658.80834   -7146.5017   -7073.0107   -823.88503    24228.973    9.9625163 
    7260    662.72205   -7147.2626    -7073.335   -880.94156    24234.517    9.9618347 
    7270    684.42214   -7149.9866   -7073.6382   -859.31917    24238.203    9.9572025 
    7280     687.0669   -7150.5912   -7073.9479   -798.75569    24240.073    9.9570961 
    7290     680.1773   -7150.1401   -7074.2653   -868.01668    24240.192    9.9649462 
    7300    681.21264   -7150.5743    -7074.584   -827.50865    24238.418      9.98248 
    7310    666.43184   -7149.2248   -7074.8833   -456.15595    24234.862     10.01053 
    7320    663.83893   -7149.1955   -7075.1432   -138.01639    24230.244    10.042073 
    7330     667.7038    -7149.842   -7075.3586    21.651432     24225.23    10.068284 
    7340    653.89629   -7148.4691    -7075.526    292.06512    24220.225    10.086629 
    7350    646.47782   -7147.7436   -7075.6281    275.08094    24215.726    10.097315 
    7360    653.97446   -7148.6228   -7075.6709   -268.99244    24211.656    10.101867 
    7370    650.15716     -7148.19    -7075.664    -788.4053    24206.934    10.103019 
    7380    647.55824   -7147.8529   -7075.6168   -759.05274    24200.487    10.102862 
    7390    647.76884   -7147.7854   -7075.5258   -535.31464    24192.289     10.10343 
    7400    648.36923   -7147.7259   -7075.3993   -278.84503    24182.775    10.104889 
    7410    637.34036   -7146.3313   -7075.2351    234.40446    24172.529    10.104449 
    7420     646.2968   -7147.1274    -7075.032    559.61661    24162.557    10.101134 
    7430    668.99261   -7149.4347   -7074.8075    564.37762    24153.541    10.096617 
    7440    680.49792   -7150.5158   -7074.6052    478.81002    24145.567    10.088798 
    7450    674.97023   -7149.7415   -7074.4476    506.59208    24138.507    10.072205 
    7460    657.82298   -7147.6928   -7074.3117     1009.827    24132.511    10.042948 
    7470    658.82743   -7147.6574   -7074.1642    1538.6931    24128.598    10.001738 
    7480    658.52467   -7147.4481   -7073.9887    1700.9926    24127.905    9.9528798 
    7490    664.70141    -7147.953   -7073.8045    1520.3752    24130.843    9.9008478 
    7500    661.40964   -7147.3893    -7073.608    1412.4746    24137.208    9.8554849 
    7510    662.79317   -7147.3426    -7073.407    1230.1623    24146.795    9.8201483 
    7520    666.21691   -7147.5121   -7073.1946    859.28706     24159.25    9.7863448 
    7530    690.47356   -7149.9991   -7072.9757    330.26331    24173.833    9.7459889 
    7540    699.51284    -7150.814   -7072.7823  0.023349452    24189.497    9.7031753 
    7550    684.70297   -7149.0175   -7072.6379   -237.39824    24205.531    9.6667849 
    7560    689.93503   -7149.4923    -7072.529   -820.25869    24221.304    9.6359199 
    7570    682.15175   -7148.5374   -7072.4424   -1261.4877    24235.635    9.6060294 
    7580    676.03756   -7147.7864   -7072.3734   -1570.9072    24247.514    9.5736095 
    7590    674.95634   -7147.6038   -7072.3114   -1641.0673    24256.212    9.5422694 
    7600    664.27988   -7146.3458   -7072.2444   -1253.4946    24261.553    9.5160176 
    7610    668.69247   -7146.7661   -7072.1724   -1016.3471    24264.193    9.4954469 
    7620    657.11782   -7145.3787   -7072.0762   -757.66382    24264.674    9.4834376 
    7630    658.27978    -7145.382   -7071.9499   -744.69101    24263.438     9.479116 
    7640    670.67206    -7146.594   -7071.7795   -887.22324    24260.517    9.4773019 
    7650     687.3669   -7148.2673   -7071.5905   -1029.5213    24255.574    9.4727493 
    7660    695.55684   -7149.0071   -7071.4167   -1120.3422    24248.255    9.4651513 
    7670     683.4392   -7147.5119   -7071.2732    -942.2008    24238.375     9.457038 
    7680     672.5047   -7146.1614   -7071.1424   -828.41266    24226.187    9.4512948 
    7690    690.80634   -7148.0707   -7071.0103   -824.35783    24211.892    9.4524106 
    7700    692.85788    -7148.176   -7070.8867   -454.92999    24195.564    9.4634243 
    7710    689.09547   -7147.6569   -7070.7872    61.261662    24177.914    9.4782325 
    7720    685.70283   -7147.1898   -7070.6986    356.68927    24159.986     9.487002 
    7730    679.23995   -7146.3864   -7070.6161    564.78727    24142.446    9.4880457 
    7740    685.62141   -7147.0196   -7070.5375    897.27716      24125.8    9.4859421 
    7750    689.13584   -7147.3377   -7070.4636    1144.8574    24110.761    9.4852745 
    7760    685.60628   -7146.8881   -7070.4077    1364.8941    24097.919     9.490187 
    7770    699.66017   -7148.4291   -7070.3809    1305.8877    24087.733    9.5026197 
    7780    689.97891   -7147.3622    -7070.394    1241.0145    24080.208    9.5183802 
    7790    693.54365    -7147.822   -7070.4561    1002.6723    24075.215    9.5292285 
    7800    715.64684   -7150.4229   -7070.5914    390.34941    24072.226    9.5351211 
    7810     701.5608   -7149.0961   -7070.8359    98.579565    24070.115    9.5406726 
    7820    673.86608   -7146.3365   -7071.1657    52.801853    24068.221    9.5447921 
    7830    668.32214   -7146.0795   -7071.5272    135.04327    24066.427    9.5480194 
    7840    678.03351   -7147.5529   -7071.9173    359.82551    24064.919    9.5534283 
    7850    679.12737   -7148.1017    -7072.344    729.56999    24064.189    9.5602629 
    7860    689.35059   -7149.7213   -7072.8232    888.38638    24064.987    9.5657441 
    7870     684.3435     -7149.69   -7073.3504    988.66228    24067.732     9.568243 
    7880    679.27657   -7149.6733    -7073.899    885.57197    24072.659    9.5661196 
    7890    689.02582   -7151.3239    -7074.462     531.0746    24079.568     9.560579 
    7900    678.71872   -7150.7402   -7075.0281    492.08207    24087.852    9.5563538 
    7910    661.18224   -7149.3125   -7075.5566    428.33464    24097.389       9.5551 
    7920    664.18295   -7150.1117   -7076.0211    -4.572063    24107.991    9.5559098 
    7930    665.77778   -7150.6961   -7076.4276   -441.14779    24118.806    9.5569364 
    7940    653.52652   -7149.6713   -7076.7694   -570.74074    24128.958    9.5589889 
    7950    653.56105   -7149.9507    -7077.045    -553.5887    24138.088    9.5624523 
    7960    651.51683   -7149.9319   -7077.2542   -321.49124    24146.242    9.5668635 
    7970    656.49393   -7150.6395   -7077.4066   -245.02647    24153.814    9.5702728 
    7980    661.02073   -7151.2543   -7077.5164     -215.558    24161.002    9.5723629 
    7990    652.58695   -7150.3827   -7077.5857   -36.145337    24167.926    9.5771394 
    8000    663.92455   -7151.6864   -7077.6247   -27.201855    24174.864     9.587169 
    8010    667.25055   -7152.0737   -7077.6409    183.81421    24181.928    9.6010247 
    8020    655.83484   -7150.7945   -7077.6352    497.97813    24189.568    9.6148027 
    8030    653.07563   -7150.4407   -7077.5891    494.23446     24198.39    9.6273345 
    8040    652.12074   -7150.2286   -7077.4835    235.89656    24208.422    9.6435136 
    8050    662.02444   -7151.1707   -7077.3209   -130.70172    24219.158    9.6658124 
    8060    672.37519   -7152.1187   -7077.1143   -561.10988    24229.788    9.6921531 
    8070    668.42242   -7151.4486   -7076.8851   -791.97553    24239.414    9.7163228 
    8080    664.71454   -7150.7883   -7076.6384   -619.15239    24247.554    9.7340662 
    8090    661.23122   -7150.1195   -7076.3582   -174.47159    24254.503    9.7450331 
    8100    656.96685   -7149.3126    -7076.027    412.52593    24261.206    9.7520512 
    8110    685.22914   -7152.0914   -7075.6531    575.38118    24268.819    9.7593732 
    8120    689.64132   -7152.1988   -7075.2683    883.21815    24277.854     9.770561 
    8130    684.19667    -7151.235   -7074.9118    1137.4496    24288.972    9.7850484 
    8140    686.99228    -7151.206   -7074.5709     867.4072    24302.665    9.8001909 
    8150    681.43221   -7150.2527   -7074.2379    521.97712    24318.476    9.8099594 
    8160    678.90932   -7149.6441   -7073.9107    166.31475     24335.65    9.8114219 
    8170    676.35779    -7149.033   -7073.5843    13.569219    24353.464    9.8101532 
    8180     666.2953   -7147.5756   -7073.2494    31.559902    24371.568    9.8132545 
    8190    671.27826   -7147.7702   -7072.8881    32.240465    24389.964    9.8248001 
    8200     693.9083   -7149.9005   -7072.4939   -58.997722     24408.64     9.845941 
    8210    709.64678   -7151.2666   -7072.1045   -228.20468    24427.392    9.8766245 
    8220    719.48335   -7152.0297   -7071.7703   -575.57573    24445.806    9.9167803 
    8230    716.22637   -7151.4161   -7071.5199   -717.53453    24463.176    9.9634827 
    8240    695.05776   -7148.8871   -7071.3523   -451.93512    24479.209    10.010685 
    8250    681.71677   -7147.2785    -7071.232   -272.51696     24494.35    10.052077 
    8260    677.35952    -7146.676   -7071.1155    -64.75056    24509.033    10.084006 
    8270    682.35775   -7147.1102   -7070.9922    -341.0374    24523.576    10.107363 
    8280    679.10817   -7146.6162   -7070.8606   -641.89963    24537.479    10.124329 
    8290    678.68571   -7146.4259   -7070.7175   -534.55892    24550.149    10.135805 
    8300    683.80749   -7146.8341   -7070.5543   -452.35237    24561.686    10.146043 
    8310    686.40379   -7146.9365   -7070.3672   -444.76125    24572.291    10.163091 
    8320    693.59824   -7147.5343   -7070.1624    -432.7941    24581.974    10.191525 
    8330    668.34896   -7144.4806   -7069.9253   -27.662567    24590.837    10.230604 
    8340    662.72412   -7143.5542   -7069.6263    243.77123    24599.661    10.270876 
    8350    677.04246   -7144.7563   -7069.2312    339.52482    24609.059    10.305303 
    8360     684.7986    -7145.152   -7068.7616     400.8272    24619.313    10.332612 
    8370    714.57501   -7147.9732   -7068.2613    153.40103      24630.5    10.354663 
    8380    726.67926   -7148.8515   -7067.7893   -159.06448    24642.097    10.375545 
    8390    712.59306   -7146.8976   -7067.4068   -388.50241    24653.431    10.395378 
    8400    711.56529   -7146.4842    -7067.108   -644.07986    24663.942    10.409101 
    8410    713.44691   -7146.4716   -7066.8855   -587.69373    24673.133    10.415566 
    8420    697.99507    -7144.605   -7066.7426   -359.63117    24681.112    10.418925 
    8430    691.95225    -7143.845   -7066.6567   -469.12561    24688.259    10.423886 
    8440     694.0406   -7144.0307   -7066.6094   -555.92599    24694.408    10.433432 
    8450    693.84681   -7144.0009   -7066.6012    -638.0916    24699.353    10.445394 
    8460    700.66234   -7144.8042   -7066.6442   -935.63949    24702.842     10.45633 
    8470    694.35027   -7144.2016   -7066.7458   -1077.6202     24704.28    10.465873 
[...]
   22890    639.54551   -7152.2731   -7080.9308   -55.311771    24314.803    24.407079 
   22900    651.02976   -7153.4561   -7080.8327   -288.82373    24327.903    24.436107 
   22910    664.30406   -7154.7846   -7080.6805   -314.74217      24340.5    24.455531 
   22920    662.64894   -7154.4168   -7080.4973    33.455307    24352.576    24.459205 
   22930    673.10504   -7155.3856   -7080.2997    18.289013    24364.711    24.451927 
   22940    672.32457   -7155.0872   -7080.0884    42.453602    24376.981     24.44314 
   22950    662.68996   -7153.7895   -7079.8654    307.88249    24389.489    24.433216 
   22960    672.65375   -7154.6593   -7079.6238    306.17668    24402.727    24.421382 
   22970    677.45963   -7154.9388   -7079.3672    4.5570442    24416.672    24.410245 
   22980    672.65878   -7154.1478   -7079.1117   -228.29096    24430.725    24.398263 
   22990     677.1864   -7154.3908   -7078.8496   -316.62049      24444.4    24.380449 
   23000    677.87123   -7154.2005   -7078.5829   -408.37134    24457.453    24.355558 
   23010    668.16246   -7152.8425    -7078.308   -146.61865    24469.765    24.329474 
   23020    677.68922    -7153.617   -7078.0198    -49.07039    24481.772    24.312773 
   23030    674.65844   -7152.9702    -7077.711    75.564831    24493.762     24.31054 
   23040    679.59636   -7153.2131   -7077.4031     136.1965    24505.975    24.319106 
   23050    671.51298   -7152.0018   -7077.0935    119.92625    24518.547    24.335458 
   23060    655.65688   -7149.9116   -7076.7721   -69.072753     24531.41     24.35519 
   23070    647.78897    -7148.666   -7076.4042   -349.22534    24544.177    24.374099 
   23080     626.9366   -7145.9062   -7075.9704    -557.1107     24556.25    24.389735 
   23090    632.14297    -7145.969   -7075.4525   -904.93456    24567.095    24.398918 
   23100    643.96217    -7146.673   -7074.8381     -970.462    24576.038    24.406274 
   23110    651.24053   -7146.8252   -7074.1783   -799.76496    24582.886     24.41508 
   23120    663.60834   -7147.5471   -7073.5206   -526.35973    24588.004    24.421752 
   23130    684.79165   -7149.3117   -7072.9221   -370.33161    24591.927    24.426861 
   23140    692.07163   -7149.6396    -7072.438   -32.023112    24595.076    24.432649 
   23150    707.57371    -7151.026   -7072.0951    99.053035    24598.109    24.438864 
   23160     725.4313   -7152.8165   -7071.8935    66.087825    24601.352    24.447905 
   23170    720.88921   -7152.2445   -7071.8282    75.108857    24604.792    24.460939 
   23180    710.95983    -7151.179   -7071.8704   -84.332752    24608.387    24.474498 
   23190    701.61608   -7150.2471   -7071.9807   -409.27381    24611.778     24.48529 
   23200    685.41521   -7148.5811    -7072.122   -687.36133     24614.28       24.492 
   23210    685.88406   -7148.7834    -7072.272   -982.13167    24615.257    24.494099 
   23220    694.31809   -7149.8928   -7072.4406   -1282.3635    24614.028    24.495443 
   23230    689.76288   -7149.5796   -7072.6355    -1332.537    24609.952    24.497961 
   23240    705.50891   -7151.5709   -7072.8703   -1272.2096    24602.872    24.501119 
   23250    704.70469   -7151.7708   -7073.1599   -889.62884    24592.973    24.512682 
   23260    678.17293   -7149.1401   -7073.4889   -288.28566    24581.079    24.531845 
   23270      686.202   -7150.3599   -7073.8131   -264.01304    24568.355    24.540141 
   23280    704.44205   -7152.7444   -7074.1628   -473.25238    24554.934    24.528369 
   23290    699.35631   -7152.5807   -7074.5664   -549.45284    24540.407    24.507776 
   23300    677.91741    -7150.622   -7074.9993   -544.82123    24524.587    24.490244 
   23310    667.84405   -7149.9128   -7075.4138   -317.32313    24507.512    24.479879 
   23320     676.5043   -7151.2669   -7075.8019    -122.8537     24489.62    24.478963 
   23330    671.59713   -7151.0871   -7076.1695   -32.816465    24471.343    24.484573 
   23340    654.12472   -7149.4683   -7076.4997    231.83221    24452.939    24.490798 
   23350    641.25304   -7148.2918   -7076.7591     409.0366    24434.935    24.493006 
   23360    652.65119   -7149.7476   -7076.9434    37.131814    24417.626    24.489763 
   23370    668.45194   -7151.6465   -7077.0797   -346.38365    24400.314    24.482656 
   23380    657.29913     -7150.51   -7077.1873   -94.264521    24382.279    24.473531 
   23390    648.32999   -7149.5706   -7077.2484      199.113    24363.948    24.467287 
   23400    669.01262   -7151.8952   -7077.2659    190.98898     24345.91    24.470963 
   23410    679.11927   -7153.0206   -7077.2638    219.10202    24328.224     24.48461 
   23420    695.82314   -7154.9012   -7077.2811    98.577141    24310.899    24.498513 
   23430    687.06699   -7153.9828   -7077.3394     367.6351    24293.769    24.504191 
   23440     664.0677   -7151.4852   -7077.4074    956.03085    24277.453    24.501283 
   23450    682.21717   -7153.5688   -7077.4664    825.77629    24263.025    24.495979 
   23460    686.88962   -7154.1562   -7077.5326    534.05166    24250.329    24.498364 
   23470    677.81794   -7153.2349   -7077.6233    370.09979     24238.79    24.511797 
   23480     677.7513   -7153.3396   -7077.7354    59.339019    24227.984    24.528343 
   23490    680.29694   -7153.7608   -7077.8727   -158.65007     24217.29    24.539405 
   23500    678.36901   -7153.7222   -7078.0491    -99.84366    24206.248    24.542966 
   23510    660.41269   -7151.9118   -7078.2418     248.1948    24195.012    24.539895 
   23520    661.53352   -7152.2292   -7078.4341     345.1786    24184.214    24.527227 
   23530    662.18514   -7152.4862   -7078.6184     495.0059    24174.149     24.50284 
   23540    662.44264   -7152.6969   -7078.8005    867.50129    24165.173    24.467848 
   23550    674.86197   -7154.2733   -7078.9915    1059.7763    24157.997    24.424731 
   23560    681.02096   -7155.1889     -7079.22    1391.9211    24153.139    24.383054 
   23570    669.18164   -7154.1448   -7079.4966    1766.2971    24151.302     24.35559 
   23580    661.30427   -7153.5764    -7079.807    1867.4678     24153.25    24.341475 
   23590    661.53295   -7153.9337   -7080.1387    2071.5794    24159.309    24.328881 
   23600    665.73773   -7154.7643   -7080.5002    2228.2501    24169.889    24.307152 
   23610    662.48226   -7154.7995   -7080.8986    2215.9126    24185.354    24.271108 
   23620    662.78129   -7155.2596   -7081.3253    2022.1535    24205.706    24.226895 
   23630    663.57288   -7155.7914   -7081.7688    1709.5788    24230.563    24.191607 
   23640    657.93066   -7155.6023   -7082.2092    1039.0163    24259.204     24.17892 
   23650     645.3073   -7154.6034   -7082.6184    260.04262    24290.214    24.192531 
   23660    623.18442   -7152.4703   -7082.9532   -100.04075    24321.999    24.225726 
   23670    618.44494   -7152.1798   -7083.1913   -216.08345    24353.725    24.264276 
   23680    619.49904   -7152.4309   -7083.3248   -311.56035    24385.077    24.299235 
   23690    613.45411   -7151.7768   -7083.3451   -431.29789    24415.818    24.329233 
   23700    614.26343   -7151.7616   -7083.2396   -551.38413     24445.68    24.348452 
   23710    616.12832    -7151.724   -7082.9939   -734.11766    24474.356    24.351676 
   23720    624.42436   -7152.2627   -7082.6072   -1053.8845    24501.426    24.346939 
   23730    641.57737   -7153.6517   -7082.0828   -1483.3652    24526.158    24.349042 
   23740    652.13395   -7154.2038   -7081.4573   -1445.7015      24547.7    24.361909 
   23750     661.5536   -7154.5795   -7080.7822   -996.71484    24566.094    24.375035 
   23760    678.39945   -7155.7842   -7080.1077   -464.32745    24582.282     24.38347 
   23770    681.69054   -7155.5281   -7079.4845   -134.76645     24597.41    24.394667 
   23780    679.28773   -7154.7264   -7078.9509    29.321796    24612.227    24.416729 
   23790     683.7428   -7154.7751   -7078.5025    53.984495      24627.1    24.450747 
   23800    682.58366   -7154.2783   -7078.1351     59.47043    24642.111    24.490702 
   23810    675.81579   -7153.2268   -7077.8385    56.352025     24657.26    24.527013 
   23820    675.04207   -7152.8896   -7077.5876   -115.93463    24672.509     24.54893 
   23830    677.33562   -7152.9276   -7077.3698   -266.73349    24687.551    24.553149 
   23840    675.45075   -7152.5283   -7077.1807   -494.36577    24702.011    24.546924 
   23850    676.10517   -7152.4356   -7077.0151   -774.00446    24715.365    24.541288 
   23860    669.47241   -7151.5431   -7076.8625   -948.53454    24727.019    24.538321 
   23870     669.3082   -7151.3752   -7076.7129   -1228.7616    24736.514    24.533816 
   23880      679.678   -7152.3851    -7076.566   -1403.6817    24743.256    24.525063 
   23890    678.61531    -7152.136   -7076.4354   -1174.3864    24746.908    24.514557 
   23900    674.81601   -7151.5992   -7076.3225   -1051.1909    24747.869    24.505171 
   23910    680.12021   -7152.0872   -7076.2187   -1149.5448    24746.388    24.500474 
   23920    687.20801   -7152.7934   -7076.1343   -1151.9416    24742.316    24.507147 
   23930    682.19307   -7152.1742   -7076.0745   -1218.2763    24735.596    24.524335 
   23940    681.52358   -7152.0638   -7076.0388    -1185.734     24726.11    24.544866 
   23950    681.05335   -7151.9898   -7076.0173   -951.81912    24713.947     24.56437 
   23960    680.16343   -7151.8866   -7076.0134   -963.52634     24699.53     24.57793 
   23970    661.74708   -7149.8332   -7076.0143   -1091.0136    24682.861    24.582219 
   23980    654.04139   -7148.9518   -7075.9925   -1081.2873    24663.706    24.577996 
   23990    658.63242   -7149.3955   -7075.9241   -965.82532    24642.082    24.570729 
   24000    676.75185   -7151.3109   -7075.8182   -980.89902    24618.193    24.567176 
   24010    684.36568   -7152.0493   -7075.7072     -1101.69        24592    24.569708 
   24020    672.33636   -7150.6024   -7075.6023   -999.86795    24563.348    24.580704 
   24030    671.49961    -7150.391   -7075.4842   -1013.5489    24532.396    24.602606 
   24040    675.38486   -7150.6887   -7075.3485    -1107.224     24499.13    24.635011 
   24050    682.28559   -7151.3107   -7075.2007   -1182.8105    24463.377    24.672059 
   24060    683.34975   -7151.2776   -7075.0489   -988.64895    24425.048    24.708651 
   24070    665.66212   -7149.1313   -7074.8757   -485.87334    24384.624    24.751296 
   24080    667.70984    -7149.131    -7074.647   -36.939976    24343.195     24.80872 
   24090    677.95456   -7149.9742   -7074.3474    141.56001    24301.724    24.873107 
   24100    674.66632   -7149.2571    -7073.997    221.40226    24260.676    24.926512 
   24110    667.13287   -7148.0123   -7073.5927    402.14207    24220.291    24.956439 
   24120    672.54697   -7148.1367    -7073.113    628.89991    24180.957    24.962231 
   24130    679.86228   -7148.3892   -7072.5495    882.06851    24143.203    24.954347 
   24140    695.51084    -7149.523   -7071.9377     860.3525    24107.506    24.944403 
   24150    709.67103   -7150.4923   -7071.3274    882.93614    24073.872    24.938436 
   24160    700.72652   -7148.9232   -7070.7561    1291.6329    24042.442    24.935405 
   24170    712.59077   -7149.7381   -7070.2475    1044.6251    24013.832     24.93773 
   24180     729.2092   -7151.1687   -7069.8243     623.4548    23987.598    24.956732 
   24190    725.02201   -7150.4025   -7069.5252    835.04446    23962.991    24.996945 
   24200    709.36309    -7148.467   -7069.3365    1409.4467    23940.406    25.050341 
   24210    707.68081   -7148.1799   -7069.2371    1615.6363    23920.898    25.104952 
   24220     705.6755    -7147.938   -7069.2188    1710.8753    23904.929    25.153306 
   24230    691.40382   -7146.3944   -7069.2672    2057.2859    23892.737    25.190508 
   24240    685.72661   -7145.8515   -7069.3576    2447.7718    23885.001    25.213482 
   24250    688.34469    -7146.268   -7069.4821    2739.6531    23882.486    25.224329 
   24260     687.1878   -7146.3096   -7069.6527    2841.5438    23885.747    25.229504 
   24270    683.75478   -7146.1472   -7069.8733    2664.5409    23894.957    25.237352 
   24280    682.15717    -7146.236   -7070.1404    2510.3616    23909.796    25.250981 
   24290    694.94992   -7147.9901   -7070.4674    2181.6567    23929.881    25.264838 
   24300    692.96481   -7148.1732    -7070.872    1871.4322    23954.549    25.274143 
   24310    675.10377   -7146.6563   -7071.3475    1716.4387    23983.155    25.282486 
   24320    682.54988   -7148.0147   -7071.8753    1409.2889    24015.319     25.29013 
   24330    687.93877   -7149.2128   -7072.4722    1374.9319    24050.467     25.29675 
   24340    682.82938   -7149.3069   -7073.1362     1444.301    24088.494    25.310676 
   24350    684.58706   -7150.2169   -7073.8501    1353.4301    24129.491    25.333696 
   24360    686.64058   -7151.1884   -7074.5926    1123.4374    24173.248    25.361311 
   24370    678.64801   -7151.0204   -7075.3162    615.71619    24219.205    25.395721 
   24380    661.51576   -7149.7464   -7075.9534    120.54259     24266.29    25.434222 
   24390    648.49477    -7148.796   -7076.4555   -278.35387      24313.4     25.46508 
   24400    647.35038   -7149.0176   -7076.8047   -613.75082    24359.622    25.482007 
   24410    658.45759   -7150.4827   -7077.0308   -814.65968    24404.212    25.489733 
   24420    662.02257   -7151.0211   -7077.1715   -993.18828    24446.661    25.498424 
   24430    667.30723   -7151.6942   -7077.2551   -1131.5568    24486.569    25.508896 
   24440    677.56903   -7152.8906   -7077.3068   -1149.8547    24523.646    25.519293 
   24450    677.23741   -7152.9008   -7077.3539   -797.48332    24557.927    25.532305 
   24460    676.30334   -7152.8465   -7077.4039   -555.58143    24590.084    25.545195 
   24470    692.70608   -7154.7306   -7077.4582   -722.81722    24620.613    25.554205 
   24480    698.70496   -7155.4754   -7077.5338   -1122.7473    24649.208    25.562137 
   24490    695.16062   -7155.1897   -7077.6434   -1780.4735    24674.955    25.574487 
   24500    676.60687   -7153.2538   -7077.7773     -2175.75     24696.49      25.5872 
   24510    643.99376   -7149.7348   -7077.8963   -2105.3308    24713.011    25.589406 
   24520    645.05175    -7149.917   -7077.9605   -2303.5081     24724.54    25.580605 
   24530    653.44905   -7150.8571   -7077.9639    -2289.819    24730.807       25.572 
   24540    660.82608   -7151.6456   -7077.9294   -2125.1053    24731.866    25.565196 
   24550    669.01742   -7152.5007   -7077.8708    -2025.787    24728.084    25.559365 
   24560    668.46094   -7152.3646   -7077.7968    -1805.233    24719.804    25.557364 
   24570    668.97472   -7152.3385   -7077.7134   -1723.3474    24707.484     25.55274 
   24580    672.80038   -7152.6689    -7077.617   -1514.0086    24691.428    25.541167 
   24590     684.3148   -7153.8575   -7077.5212    -1453.599    24672.062    25.528664 
   24600    669.95828   -7152.1632   -7077.4284    -1197.793    24649.663    25.521883 
   24610    658.29988   -7150.7607   -7077.3263   -988.11031    24624.745     25.52579 
   24620    652.46688   -7149.9637     -7077.18    -791.0281     24597.84    25.539549 
   24630    656.40593   -7150.2052   -7076.9821   -834.45222    24569.344     25.55655 
   24640    657.78818   -7150.1065   -7076.7292   -933.55804    24539.202    25.573542 
   24650    668.18298   -7150.9632   -7076.4264   -969.00178    24507.254    25.588567 
   24660    676.78212   -7151.5818   -7076.0857   -930.67755    24473.448    25.602119 
   24670    665.40642   -7149.9393   -7075.7122   -417.54782    24438.005      25.6132 
   24680    681.15881   -7151.2879   -7075.3036   -75.020089    24401.927    25.613343 
   24690     688.8166    -7151.703   -7074.8645    194.21894    24366.034    25.602063 
   24700    699.35931   -7152.4525    -7074.438    305.01729    24330.895    25.581839 
   24710    709.67143   -7153.2163   -7074.0514    160.81765    24296.718    25.561975 
   24720    700.09384   -7151.8287   -7073.7322    207.01173    24263.284    25.559404 
   24730    687.76571   -7150.1872   -7073.4659    381.70662    24230.652    25.582235 
   24740    697.67341   -7151.0567   -7073.2302    499.05349    24199.169    25.623381 
   24750     701.4691   -7151.2805   -7073.0305    918.96436    24169.158    25.663386 
   24760    687.76997   -7149.5914   -7072.8697    1458.7357    24141.463    25.690925 
   24770    699.77435   -7150.8046   -7072.7437    1506.0583    24117.103    25.710908 
   24780    699.63268   -7150.7073   -7072.6622    1389.9755     24096.21    25.727978 
   24790    690.95266    -7149.713   -7072.6362    1416.5091    24078.538    25.734734 
   24800    694.83224   -7150.1647   -7072.6551    1314.1968    24064.027    25.730594 
   24810    703.64844   -7151.2275   -7072.7344     1399.947    24052.518    25.728988 
   24820    694.82956   -7150.4103    -7072.901     1385.487     24044.08    25.735754 
   24830    677.89318   -7148.7697   -7073.1497    1494.7243    24038.723    25.742878 
   24840    681.73321   -7149.5255   -7073.4771    1348.5527    24036.555    25.743254 
   24850    686.44789   -7150.4707   -7073.8964    1260.8036    24037.317    25.734193 
   24860    702.06873   -7152.7684   -7074.4516    1256.3345    24040.792     25.71415 
   24870    711.83804   -7154.5971   -7075.1905    1106.0648    24046.912    25.689956 
   24880    686.37997   -7152.6541   -7076.0874    989.06977    24055.383    25.675236 
   24890    651.91527   -7149.7176   -7076.9955     766.3695    24065.898    25.676428 
   24900    650.20622   -7150.3384   -7077.8069    459.77733    24077.995    25.683748 
   24910     655.7141   -7151.6361   -7078.4902    301.99111    24091.059     25.68315 
   24920    646.47744   -7151.1476   -7079.0321    91.706561     24104.69    25.668181 
   24930    641.82769   -7151.0247   -7079.4278   -444.72993    24118.385     25.64453 
   24940    648.77545   -7152.0647   -7079.6928    -1048.206    24131.043    25.622801 
   24950    667.76485   -7154.3674   -7079.8773   -1331.4182    24141.429    25.612344 
   24960    664.41405   -7154.1322   -7080.0158   -1245.9931    24148.946    25.615591 
   24970    666.24809   -7154.4492   -7080.1283   -907.73629    24153.784    25.618206 
   24980     667.5985   -7154.6869   -7080.2153   -509.80999    24156.662     25.60906 
   24990    661.82985   -7154.1069   -7080.2788   -379.12422    24158.361    25.597928 
   25000     656.7551   -7153.5703   -7080.3083   -515.59331    24159.184     25.59452 
Loop time of 12305.8 on 16 procs for 20000 steps with 864 atoms

Performance: 0.140 ns/day, 170.914 hours/ns, 1.625 timesteps/s
97.5% CPU use with 16 MPI tasks x 1 OpenMP threads

MPI task timing breakdown:
Section |  min time  |  avg time  |  max time  |%varavg| %total
---------------------------------------------------------------
Pair    | 9498.5     | 11001      | 12027      | 690.5 | 89.40
Bond    | 0.0018146  | 0.0055771  | 0.010676   |   3.9 |  0.00
Neigh   | 0.24577    | 0.27706    | 0.33032    |   4.6 |  0.00
Comm    | 230.48     | 1073.3     | 2439.1     |1979.9 |  8.72
Output  | 2.4336     | 2.4603     | 2.8459     |   6.3 |  0.02
Modify  | 45.166     | 228.53     | 476.72     | 884.2 |  1.86
Other   |            | 0.1101     |            |       |  0.00

Nlocal:        54.0000 ave          62 max          47 min
Histogram: 2 1 5 0 1 0 3 0 2 2
Nghost:        454.625 ave         486 max         427 min
Histogram: 2 2 1 2 1 3 1 1 2 1
Neighs:         0.00000 ave           0 max           0 min
Histogram: 16 0 0 0 0 0 0 0 0 0
FullNghs:      1910.88 ave        2379 max        1581 min
Histogram: 4 3 1 1 0 2 1 0 1 3

Total # of neighbors = 30574
Ave neighs/atom = 35.386574
Ave special neighs/atom = 0.0000000
Neighbor list builds = 2000
Dangerous builds = 2000
unfix   3
                
Total wall time: 4:14:50
