LAMMPS (29 Sep 2021 - Update 3)
OMP_NUM_THREADS environment is not set. Defaulting to 1 thread. (src/comm.cpp:98)
  using 1 OpenMP thread(s) per MPI task
units	metal
atom_style	full

read_data	mixed.data
Reading data file ...
  orthogonal box = (0.0000000 0.0000000 0.0000000) to (16.534670 17.767358 74.594796)
  1 by 2 by 8 MPI processor grid
  reading atoms ...
  864 atoms
Finding 1-2 1-3 1-4 neighbors ...
  special bond factors lj:    0        0        0       
  special bond factors coul:  0        0        0       
     0 = max # of 1-2 neighbors
     0 = max # of 1-3 neighbors
     0 = max # of 1-4 neighbors
     1 = max # of special neighbors
  special bonds CPU = 0.001 seconds
  read_data CPU = 0.008 seconds

pair_style	quip
pair_coeff	* * /ocean/projects/cts180021p/wuziqi/clease/mint-PD/PhaseDiagram-Clease/Liquid/GAP_potential/gap_LiKCl.xml "Potential xml_label=GAP_2021_9_27_0_1_17_37_618" 17 19 3

neighbor	0.3 bin
neigh_modify	delay 10

timestep	0.001
compute	msd all msd
thermo_style	custom step temp pe etotal press vol c_msd[4]
thermo	10
dump	1 all custom 10 xyz-mix.dump type id x y z
dump	2 all custom 10 force-mix.dump type id fx fy fz

fix     1 all nve
run     2000
Neighbor list info ...
  update every 1 steps, delay 10 steps, check yes
  max neighbors/atom: 2000, page size: 100000
  master list distance cutoff = 6.22
  ghost atom cutoff = 6.22
  binsize = 3.11, bins = 6 6 24
  1 neighbor lists, perpetual/occasional/extra = 1 0 0
  (1) pair quip, perpetual
      attributes: full, newton on
      pair build: full/bin
      stencil: full/bin/3d
      bin: standard
Per MPI rank memory allocation (min/avg/max) = 8.894 | 8.906 | 8.915 Mbytes
Step Temp PotEng TotEng Press Volume c_msd[4] 
       0            0   -8413.4292   -8413.4292   -12531.916    21914.265            0 
      10    63.367096   -8420.5059   -8413.4372   -13062.757    21914.265 0.00028900792 
      20    162.23389   -8431.5423   -8413.4448   -13580.932    21914.265 0.0035442006 
      30    203.76318   -8436.1707   -8413.4406   -13263.999    21914.265  0.011998633 
      40     225.5427      -8438.6   -8413.4404   -13091.981    21914.265  0.023619499 
      50    238.39464   -8440.0352   -8413.4419   -13192.953    21914.265  0.036411648 
      60    237.91747   -8439.9798   -8413.4397    -13151.82    21914.265  0.049420327 
      70    242.25882   -8440.4649   -8413.4405   -12986.142    21914.265  0.062561747 
      80    243.33226   -8440.5825   -8413.4384   -12841.846    21914.265  0.075987004 
      90     256.1439    -8442.014   -8413.4408   -12985.089    21914.265  0.088683986 
     100    260.92723   -8442.5467   -8413.4399   -13129.532    21914.265   0.10092572 
     110    263.36735   -8442.8185   -8413.4395   -13314.209    21914.265   0.11296329 
     120    267.45703   -8443.2754   -8413.4402   -13403.997    21914.265   0.12509928 
     130    267.20277   -8443.2463   -8413.4395   -13198.457    21914.265   0.13819283 
     140    269.21359   -8443.4705   -8413.4393   -12839.711    21914.265   0.15259322 
     150     276.3754   -8444.2699   -8413.4398   -12564.061    21914.265   0.16775295 
     160    282.09052   -8444.9077   -8413.4401   -12400.914    21914.265   0.18315323 
     170    283.74907   -8445.0928   -8413.4402     -12430.3    21914.265    0.1989762 
     180    279.57367   -8444.6271   -8413.4402   -12727.353    21914.265   0.21536827 
     190    272.01519   -8443.7829   -8413.4391   -12943.608    21914.265   0.23180139 
     200    272.98877   -8443.8921   -8413.4397   -13066.814    21914.265    0.2476891 
     210    278.28656   -8444.4833     -8413.44   -13119.162    21914.265   0.26290373 
     220    281.61115   -8444.8543   -8413.4402    -13052.65    21914.265   0.27743582 
     230    283.45537   -8445.0589    -8413.439   -12948.839    21914.265   0.29133107 
     240    292.81696   -8446.1046   -8413.4404   -13016.029    21914.265    0.3048675 
     250    295.20203   -8446.3705   -8413.4402   -13077.887    21914.265   0.31931215 
     260    290.46684   -8445.8415   -8413.4394   -13040.528    21914.265   0.33532684 
     270    290.61991    -8445.858   -8413.4389   -13235.455    21914.265   0.35239777 
     280    301.25443   -8447.0456   -8413.4402   -13515.282    21914.265   0.36952956 
     290    308.28623   -8447.8304   -8413.4406   -13611.572    21914.265   0.38667041 
     300    309.20907   -8447.9319   -8413.4392   -13455.868    21914.265    0.4041006 
     310     314.5316   -8448.5273   -8413.4408   -13198.597    21914.265   0.42152557 
     320    312.09261   -8448.2546   -8413.4402   -12968.083    21914.265   0.43866959 
     330    305.84421   -8447.5573   -8413.4399   -12657.381    21914.265   0.45536472 
     340    303.20988   -8447.2632   -8413.4397   -12498.026    21914.265   0.47172581 
     350    307.13857   -8447.7018     -8413.44   -12492.368    21914.265   0.48754232 
     360    312.15901   -8448.2619   -8413.4401   -12369.505    21914.265   0.50223919 
     370     318.6847   -8448.9898     -8413.44   -12195.898    21914.265   0.51545083 
     380    326.66636   -8449.8808   -8413.4407   -12030.164    21914.265   0.52751087 
     390    328.67292   -8450.1043   -8413.4403   -11786.931    21914.265   0.53983918 
     400    329.42172   -8450.1875     -8413.44   -11529.418    21914.265   0.55338123 
     410    329.12824   -8450.1558   -8413.4411   -11363.621    21914.265   0.56856317 
     420    321.17839   -8449.2675   -8413.4396   -11329.503    21914.265   0.58578319 
     430    319.73313   -8449.1067     -8413.44   -11645.546    21914.265   0.60460993 
     440    321.87014   -8449.3455   -8413.4404   -12168.872    21914.265   0.62482739 
     450    321.69175   -8449.3257   -8413.4405   -12517.526    21914.265   0.64605131 
     460    321.58625   -8449.3131   -8413.4397   -12738.117    21914.265   0.66602281 
     470    327.73765   -8450.0009   -8413.4413    -13118.13    21914.265   0.68222539 
     480    325.78012   -8449.7811   -8413.4399   -13518.975    21914.265   0.69547134 
     490    325.26696   -8449.7242   -8413.4402   -13912.333    21914.265   0.70709849 
     500    326.02809   -8449.8096   -8413.4407    -14245.82    21914.265    0.7181905 
     510     321.8067   -8449.3384   -8413.4404   -14358.421    21914.265   0.73031831 
     520    314.82643   -8448.5595   -8413.4401   -14393.561    21914.265   0.74493886 
     530    311.55922   -8448.1945   -8413.4396    -14504.26    21914.265   0.76206346 
     540    316.52181   -8448.7487   -8413.4402   -14692.451    21914.265   0.78048733 
     550    323.45997   -8449.5224     -8413.44   -14675.954    21914.265   0.79880458 
     560    332.20295   -8450.4987   -8413.4409    -14432.97    21914.265   0.81596428 
     570    332.37528   -8450.5179   -8413.4409   -14008.452    21914.265   0.83234674 
     580    324.44532    -8449.632   -8413.4397   -13682.622    21914.265   0.84880328 
     590    322.54654   -8449.4211   -8413.4405   -13611.186    21914.265   0.86493346 
     600    320.03229     -8449.14   -8413.4399   -13618.158    21914.265   0.88136827 
     610     322.0694   -8449.3667   -8413.4393   -13770.866    21914.265   0.89972436 
     620    332.97088   -8450.5844    -8413.441   -14040.679    21914.265   0.91979176 
     630    336.52886   -8450.9806   -8413.4403   -14106.634    21914.265    0.9400978 
     640    340.63169   -8451.4378   -8413.4399   -14084.373    21914.265   0.95883362 
     650     349.6267   -8452.4431   -8413.4417   -14126.089    21914.265   0.97518253 
     660     345.3101   -8451.9607   -8413.4408    -13925.09    21914.265   0.98949595 
     670    335.30236   -8450.8431   -8413.4396   -13541.064    21914.265    1.0025057 
     680    335.35657   -8450.8495     -8413.44   -13120.509    21914.265    1.0157598 
     690    342.86707   -8451.6878   -8413.4405   -12807.122    21914.265    1.0306556 
     700    350.61517   -8452.5527    -8413.441   -12613.893    21914.265    1.0481195 
     710    351.61871   -8452.6647   -8413.4411    -12558.63    21914.265     1.067876 
     720    346.37378   -8452.0785     -8413.44   -12478.274    21914.265    1.0873947 
     730    347.79156   -8452.2373   -8413.4406   -12593.955    21914.265    1.1041491 
     740    351.02442    -8452.599   -8413.4417   -12781.856    21914.265    1.1188548 
     750    344.89782   -8451.9145   -8413.4406   -12888.282    21914.265     1.133643 
     760      340.342   -8451.4064   -8413.4407   -13050.736    21914.265    1.1491825 
     770    340.04955   -8451.3737   -8413.4407   -13326.749    21914.265    1.1643304 
     780      345.357   -8451.9656   -8413.4405   -13558.373    21914.265    1.1777023 
     790    357.12317   -8453.2788   -8413.4411   -13831.043    21914.265    1.1886997 
     800    366.64045   -8454.3407   -8413.4414   -14129.874    21914.265    1.1976392 
     810    368.68447   -8454.5688   -8413.4415   -14063.484    21914.265    1.2056605 
     820    366.60174   -8454.3361   -8413.4411   -13908.726    21914.265    1.2141717 
     830    365.85586   -8454.2531   -8413.4413   -13853.131    21914.265    1.2243585 
     840     368.4524   -8454.5423   -8413.4409   -13972.673    21914.265    1.2365636 
     850    371.87492   -8454.9262    -8413.443    -14131.16    21914.265    1.2503596 
     860     358.1746   -8453.3954   -8413.4405     -13818.7    21914.265    1.2649975 
     870    354.45705   -8452.9806   -8413.4404   -13465.958    21914.265     1.278191 
     880    366.65296   -8454.3425   -8413.4418   -13399.092    21914.265    1.2880847 
     890    376.93995   -8455.4909   -8413.4426    -13274.53    21914.265    1.2959326 
     900    375.96913   -8455.3817   -8413.4418   -13062.805    21914.265    1.3041818 
     910    374.01489   -8455.1632   -8413.4413   -12824.206    21914.265    1.3130528 
     920    378.94842   -8455.7136   -8413.4414   -12747.174    21914.265    1.3222121 
     930    388.54983   -8456.7859   -8413.4426   -12880.601    21914.265    1.3329508 
     940    389.80019   -8456.9258    -8413.443   -12981.003    21914.265    1.3457299 
     950    382.52604   -8456.1127   -8413.4413   -12918.004    21914.265    1.3587946 
     960    381.75271   -8456.0275   -8413.4424   -13120.356    21914.265    1.3710856 
     970    380.20365    -8455.854   -8413.4417   -13297.868    21914.265    1.3835601 
     980    384.06597   -8456.2848   -8413.4416    -13360.21    21914.265    1.3967998 
     990    391.39252    -8457.104   -8413.4436    -13319.56    21914.265    1.4114384 
    1000    385.55287   -8456.4508   -8413.4418   -13032.957    21914.265    1.4285977 
    1010    381.98963   -8456.0536   -8413.4421   -12900.345    21914.265    1.4480597 
    1020    382.08452   -8456.0644   -8413.4423   -12891.786    21914.265    1.4678099 
    1030    380.66666   -8455.9065   -8413.4425   -12820.478    21914.265    1.4859085 
    1040    378.02017   -8455.6107    -8413.442   -12814.774    21914.265    1.5012686 
    1050    381.70997   -8456.0224   -8413.4421   -12925.622    21914.265    1.5119118 
    1060    391.42566   -8457.1073   -8413.4432    -13146.33    21914.265    1.5173209 
    1070    396.24192   -8457.6441   -8413.4428   -13102.084    21914.265    1.5196151 
    1080    397.63032   -8457.7993    -8413.443   -12889.784    21914.265    1.5211703 
    1090    396.12759   -8457.6308   -8413.4422   -12537.537    21914.265    1.5231683 
    1100    400.33119   -8458.1002   -8413.4426   -12299.668    21914.265    1.5256834 
    1110    407.17314   -8458.8635   -8413.4428   -12099.612    21914.265    1.5296348 
    1120    413.19804   -8459.5369    -8413.444   -11926.861    21914.265    1.5369315 
    1130    409.94165   -8459.1721   -8413.4425   -11927.354    21914.265    1.5487344 
    1140    411.69689   -8459.3679   -8413.4425   -12274.932    21914.265    1.5644715 
    1150    417.92932   -8460.0654   -8413.4448   -12599.199    21914.265    1.5822789 
    1160    409.45399   -8459.1175   -8413.4423   -12608.558    21914.265    1.6004412 
    1170    405.75202   -8458.7057   -8413.4435   -12496.116    21914.265    1.6169469 
    1180    399.97271   -8458.0606    -8413.443   -12466.412    21914.265    1.6317671 
    1190    393.04741   -8457.2883   -8413.4433   -12618.331    21914.265    1.6460138 
    1200    381.93867   -8456.0489   -8413.4431   -12576.103    21914.265    1.6602667 
    1210    376.72969   -8455.4667   -8413.4419   -12745.258    21914.265    1.6726433 
    1220     387.4652   -8456.6661   -8413.4437   -13270.317    21914.265    1.6819979 
    1230    392.11995   -8457.1848   -8413.4433   -13698.725    21914.265    1.6894908 
    1240    392.35374   -8457.2109   -8413.4432   -14054.078    21914.265    1.6958816 
    1250    387.63167   -8456.6848   -8413.4439   -14383.659    21914.265    1.7022745 
    1260    377.01437   -8455.4984   -8413.4419   -14780.957    21914.265    1.7098627 
    1270    380.16106   -8455.8505   -8413.4429    -15291.91    21914.265    1.7186286 
    1280    386.65141    -8456.575   -8413.4435   -15684.863    21914.265    1.7280931 
    1290    386.45138   -8456.5524   -8413.4431   -15669.118    21914.265    1.7377267 
    1300    384.49318   -8456.3333   -8413.4425   -15192.167    21914.265    1.7465203 
    1310    389.16883   -8456.8559   -8413.4435   -14748.802    21914.265    1.7543822 
    1320    395.91985   -8457.6092   -8413.4437   -14540.669    21914.265    1.7626209 
    1330    402.24128   -8458.3144   -8413.4438   -14482.176    21914.265    1.7719127 
    1340    406.72312   -8458.8138   -8413.4433   -14593.779    21914.265    1.7822942 
    1350    413.88937   -8459.6138   -8413.4438   -14633.206    21914.265    1.7929881 
    1360    418.26368   -8460.1021   -8413.4441   -14272.723    21914.265    1.8043383 
    1370    412.53709   -8459.4628   -8413.4437   -13640.472    21914.265    1.8173742 
    1380    404.03017    -8458.513   -8413.4428   -13053.663    21914.265    1.8314414 
    1390    402.11865   -8458.3013   -8413.4444   -12796.252    21914.265    1.8446224 
    1400    396.75786   -8457.7017   -8413.4428   -12890.081    21914.265    1.8555613 
    1410     401.1626   -8458.1945   -8413.4442   -13251.623    21914.265    1.8625402 
    1420    405.53922    -8458.683   -8413.4445   -13540.901    21914.265    1.8651673 
    1430    404.12534   -8458.5245   -8413.4437   -13662.885    21914.265    1.8648977 
    1440    405.72045   -8458.7027    -8413.444   -13771.634    21914.265    1.8643414 
    1450    406.67484   -8458.8092    -8413.444   -13873.149    21914.265    1.8661066 
    1460    406.94702   -8458.8395   -8413.4439   -13898.845    21914.265    1.8707341 
    1470    405.99802   -8458.7335   -8413.4438    -13583.81    21914.265    1.8783175 
    1480    405.25435   -8458.6503   -8413.4436   -13097.342    21914.265    1.8881067 
    1490    408.19865    -8458.979   -8413.4439   -12662.726    21914.265    1.8977467 
    1500    414.56579   -8459.6887   -8413.4433   -12296.863    21914.265    1.9065246 
    1510    429.03716   -8461.3044   -8413.4447   -11735.577    21914.265    1.9156573 
    1520    435.43303   -8462.0188   -8413.4456   -11140.275    21914.265    1.9269758 
    1530    420.46896   -8460.3486   -8413.4446     -10759.3    21914.265    1.9420002 
    1540    404.55727   -8458.5707   -8413.4417   -10562.297    21914.265    1.9594173 
    1550     414.5371   -8459.6878   -8413.4456   -10873.945    21914.265    1.9756145 
    1560    415.64167   -8459.8093   -8413.4438    -11180.84    21914.265    1.9896674 
    1570    417.51903   -8460.0192   -8413.4444   -11574.862    21914.265      2.00287 
    1580    420.71133   -8460.3754   -8413.4444   -12084.028    21914.265    2.0173903 
    1590    422.23753   -8460.5459   -8413.4446   -12650.323    21914.265    2.0354221 
    1600    420.26548   -8460.3254   -8413.4441   -13157.964    21914.265    2.0567995 
    1610    418.97614   -8460.1816   -8413.4442   -13379.664    21914.265    2.0784503 
    1620    422.99101    -8460.629   -8413.4437   -13476.483    21914.265    2.0978277 
    1630    431.41255   -8461.5707    -8413.446   -13473.665    21914.265     2.115193 
    1640    426.28653   -8460.9963   -8413.4434   -13430.412    21914.265    2.1338075 
    1650    431.13487   -8461.5387    -8413.445   -13658.596    21914.265       2.1559 
    1660    436.17822   -8462.1019   -8413.4456   -13638.641    21914.265    2.1797337 
    1670    428.12023   -8461.2022   -8413.4447   -13252.346    21914.265    2.2035441 
    1680    422.66155   -8460.5919   -8413.4434   -13022.696    21914.265    2.2262152 
    1690    430.34848   -8461.4521    -8413.446   -12966.155    21914.265    2.2464937 
    1700    426.21611   -8460.9896   -8413.4446   -12849.343    21914.265    2.2649593 
    1710    421.63281   -8460.4781   -8413.4443    -12902.06    21914.265    2.2822078 
    1720    425.52952   -8460.9136   -8413.4451   -13254.993    21914.265    2.2992296 
    1730    433.21398   -8461.7705   -8413.4448   -13760.925    21914.265    2.3170264 
    1740    441.86781   -8462.7372   -8413.4461   -14050.542    21914.265    2.3352522 
    1750    438.27813    -8462.336   -8413.4454   -13921.401    21914.265    2.3528289 
    1760    429.17186   -8461.3192   -8413.4444   -13408.002    21914.265    2.3694072 
    1770    428.81898   -8461.2807   -8413.4453    -12917.73    21914.265    2.3858611 
    1780    433.34916   -8461.7857    -8413.445   -12638.931    21914.265    2.4026666 
    1790     441.0669   -8462.6474   -8413.4457   -12705.172    21914.265     2.419074 
    1800    447.24535   -8463.3359    -8413.445   -12842.309    21914.265    2.4345236 
    1810    451.04914   -8463.7611   -8413.4459   -13058.485    21914.265    2.4502124 
    1820    445.08252   -8463.0941   -8413.4445   -13035.825    21914.265    2.4671851 
    1830    441.70858   -8462.7187   -8413.4454   -12922.342    21914.265    2.4853863 
    1840    432.65555   -8461.7082   -8413.4449   -13058.866    21914.265    2.5046773 
    1850    428.24526   -8461.2146   -8413.4432   -13494.155    21914.265    2.5239509 
    1860    442.70809   -8462.8312   -8413.4464     -14052.9    21914.265    2.5417036 
    1870    445.34398   -8463.1238   -8413.4451   -14177.248    21914.265    2.5577578 
    1880    449.56383   -8463.5931   -8413.4436   -14088.107    21914.265    2.5732932 
    1890    469.70151   -8465.8424   -8413.4465   -13965.821    21914.265    2.5900107 
    1900    475.61979   -8466.5029   -8413.4468   -13338.709    21914.265    2.6092547 
    1910    460.77113   -8464.8444   -8413.4447   -12266.897    21914.265    2.6300063 
    1920    453.29076   -8464.0097   -8413.4444   -11600.031    21914.265    2.6488623 
    1930    455.01355   -8464.2038   -8413.4464   -11532.276    21914.265     2.664581 
    1940    446.57627   -8463.2611   -8413.4448   -11610.068    21914.265    2.6787843 
    1950    442.24787   -8462.7779   -8413.4445    -12067.88    21914.265     2.691974 
    1960    445.34565   -8463.1243   -8413.4453   -12574.104    21914.265    2.7033659 
    1970     445.3849   -8463.1293   -8413.4459   -12683.518    21914.265    2.7130116 
    1980    438.45896   -8462.3558    -8413.445   -12521.804    21914.265    2.7223802 
    1990    435.82997    -8462.062   -8413.4445   -12590.151    21914.265    2.7312795 
    2000    445.20858   -8463.1089   -8413.4452   -13039.215    21914.265    2.7384799 
Loop time of 1347.62 on 16 procs for 2000 steps with 864 atoms

Performance: 0.128 ns/day, 187.170 hours/ns, 1.484 timesteps/s
97.2% CPU use with 16 MPI tasks x 1 OpenMP threads

MPI task timing breakdown:
Section |  min time  |  avg time  |  max time  |%varavg| %total
---------------------------------------------------------------
Pair    | 550.5      | 833.4      | 1334.9     | 797.8 | 61.84
Bond    | 0.0002079  | 0.00051694 | 0.0012336  |   0.0 |  0.00
Neigh   | 0.018461   | 0.030297   | 0.054821   |   6.3 |  0.00
Comm    | 12.479     | 454.6      | 695.46     | 990.0 | 33.73
Output  | 0.14419    | 40.631     | 89.673     | 539.3 |  3.01
Modify  | 0.0097542  | 0.011315   | 0.013073   |   1.0 |  0.00
Other   |            | 18.95      |            |       |  1.41

Nlocal:        54.0000 ave          84 max          36 min
Histogram: 3 3 4 0 0 2 1 0 1 2
Nghost:        477.750 ave         592 max         348 min
Histogram: 2 0 2 1 3 3 1 0 0 4
Neighs:         0.00000 ave           0 max           0 min
Histogram: 16 0 0 0 0 0 0 0 0 0
FullNghs:      2234.12 ave        4892 max        1038 min
Histogram: 5 5 0 0 2 0 2 0 0 2

Total # of neighbors = 35746
Ave neighs/atom = 41.372685
Ave special neighs/atom = 0.0000000
Neighbor list builds = 199
Dangerous builds = 198
unfix   1

velocity    all create 750.0 1312343 dist gaussian
fix     2 all npt temp 750.0 750.0 $(100.0*dt) aniso 0.0 1.01325 $(1000.0*dt)
fix     2 all npt temp 750.0 750.0 0.10000000000000000555 aniso 0.0 1.01325 $(1000.0*dt)
fix     2 all npt temp 750.0 750.0 0.10000000000000000555 aniso 0.0 1.01325 1
run     3000
Per MPI rank memory allocation (min/avg/max) = 8.894 | 8.907 | 8.916 Mbytes
Step Temp PotEng TotEng Press Volume c_msd[4] 
    2000          750   -8463.1089   -8379.4453   -11382.032    21914.265    2.7384799 
    2010    690.79161   -8456.6025   -8379.5437   -10666.523    21905.153    2.7390932 
    2020    614.19553   -8448.2362   -8379.7217   -9295.7305    21879.002    2.7394676 
    2030    610.36664   -8447.9065   -8379.8192   -8710.0141      21837.9    2.7364364 
    2040    609.82083    -8447.766   -8379.7396   -7649.5199    21783.204    2.7305768 
    2050    612.74843   -8447.8196   -8379.4666   -6400.6381    21716.888    2.7243138 
    2060    627.95446   -8449.0841   -8379.0348   -5165.3928    21641.424    2.7204537 
    2070    619.88062   -8447.6648   -8378.5162   -3354.1191    21559.561    2.7201057 
    2080    625.63377   -8447.7553   -8377.9649   -1650.9437    21474.837    2.7215607 
    2090    641.03216   -8448.8895   -8377.3814   -671.56159    21390.607    2.7237623 
    2100     648.4199   -8449.1224   -8376.7902   -393.86052    21309.056    2.7255088 
    2110    664.64926    -8450.347   -8376.2044    -592.0038    21231.135    2.7253085 
    2120    671.84735   -8450.5557   -8375.6102   -705.27373    21157.035    2.7251629 
    2130    676.89189   -8450.5155   -8375.0072   -1035.6725    21086.801    2.7292515 
    2140    683.19325   -8450.5906   -8374.3794   -1721.7626    21020.094    2.7401328 
    2150    684.46815   -8450.0784   -8373.7249    -1961.474    20956.136    2.7562792 
    2160    691.69708   -8450.1838    -8373.024    -1576.691    20894.651    2.7729754 
    2170    703.21374    -8450.705   -8372.2604    -757.1951    20836.158       2.7874 
    2180    710.60582   -8450.7108   -8371.4417    232.27533    20781.648    2.7998316 
    2190     734.9161   -8452.5875   -8370.6065    657.01506    20732.109    2.8105023 
    2200    750.35254   -8453.5056   -8369.8026    925.69536    20687.698    2.8222235 
    2210    737.47427   -8451.3412   -8369.0748    1596.3179    20648.316     2.838231 
    2220    732.02743   -8450.0759   -8368.4171    1909.2595    20614.268    2.8574131 
    2230     743.6553   -8450.7537   -8367.7978    1501.2502    20585.389    2.8777706 
    2240    748.01955   -8450.6363   -8367.1936    1001.9955    20560.692    2.8954553 
    2250    753.02452   -8450.5922   -8366.5912    956.23825    20539.165    2.9078741 
    2260    753.20237   -8450.0092   -8365.9883    1494.1465    20520.452    2.9186161 
    2270    754.59683   -8449.5844    -8365.408    1934.1662    20504.945    2.9328244 
    2280    769.08652   -8450.6631   -8364.8704    1642.7549     20492.92     2.951183 
    2290    774.35898   -8450.7827   -8364.4018    1117.5817    20483.772    2.9719988 
    2300    758.24448   -8448.5922   -8364.0089    1483.3924    20476.755    2.9944782 
    2310    762.73562   -8448.7477   -8363.6634     2066.824    20472.151     3.018886 
    2320    784.04506   -8450.8075   -8363.3461    2166.9128    20470.516    3.0485553 
    2330    793.35346   -8451.5922   -8363.0924    2429.3471    20471.966     3.085615 
    2340    786.71132   -8450.6912   -8362.9324    2525.8506    20476.694     3.125712 
    2350     813.8669   -8453.6762   -8362.8882    1579.2018    20484.575    3.1652982 
    2360    815.30271   -8453.9387   -8362.9905    572.99956    20494.336    3.2059467 
    2370    781.78476   -8450.4508   -8363.2415    449.47401    20504.676    3.2469934 
    2380    779.53244   -8450.5388   -8363.5808    204.07396    20515.261    3.2878461 
    2390    803.00606   -8453.5811   -8364.0045   -158.01673    20525.751     3.329819 
    2400    808.67375   -8454.7704   -8364.5616   -132.24369    20535.713    3.3753903 
    2410    801.07474   -8454.6384   -8365.2773   -44.176268     20545.16    3.4266536 
    2420    769.54166    -8451.921   -8366.0775    54.623387    20554.247    3.4829502 
    2430    767.90493   -8452.5416   -8366.8807   -281.68049    20563.056    3.5415701 
    2440    788.26194   -8455.6252   -8367.6934   -793.03137    20571.151    3.6009166 
    2450    792.11528   -8456.9096    -8368.548   -327.27202    20577.999     3.660481 
    2460    784.26922   -8456.9043   -8369.4178    511.55991    20584.208    3.7189874 
    2470    803.35648   -8459.9206    -8370.305    347.33998    20590.779    3.7750801 
    2480    804.73793   -8461.0063   -8371.2366    32.052257    20597.606    3.8299018 
    2490    791.46512   -8460.4726   -8372.1835   -276.64409    20604.246    3.8837663 
    2500    798.16824   -8462.1673   -8373.1304   -887.60085    20610.196    3.9367572 
    2510    785.79406   -8461.7305    -8374.074   -480.72897    20614.816    3.9890751 
    2520    758.15828   -8459.5484   -8374.9747    750.84367    20618.689    4.0406479 
    2530    767.25132   -8461.4026   -8375.8145    1711.4203    20623.457    4.0934907 
    2540    783.89184   -8464.0779   -8376.6336    2010.1132    20630.352    4.1503704 
    2550    757.29566   -8461.8914   -8377.4139    2440.4364    20639.802    4.2133917 
    2560    734.86108   -8460.0917   -8378.1168    2469.3828      20652.2    4.2810636 
    2570    733.73375   -8460.5693   -8378.7202    1842.3317    20667.437    4.3494984 
    2580    753.88615   -8463.3478   -8379.2507    694.02887    20684.515    4.4167524 
    2590    762.43964   -8464.7869   -8379.7356   -394.75856    20701.781    4.4815801 
    2600    759.62321   -8464.9341    -8380.197   -1010.3979    20717.765    4.5447618 
    2610    755.22992    -8464.918    -8380.671   -1681.1128    20731.568    4.6091597 
    2620    738.09842   -8463.4872   -8381.1512   -2008.3162    20742.392    4.6765099 
    2630    732.62537   -8463.3212   -8381.5957   -2011.8863    20749.889    4.7432086 
    2640     750.0202   -8465.6626   -8381.9967   -1851.9726    20754.215    4.8060362 
    2650     754.8653   -8466.5924   -8382.3861   -1422.8939    20755.749    4.8659798 
    2660    735.15147   -8464.7644   -8382.7571   -598.41812    20755.286     4.921347 
    2670    745.80317   -8466.3041   -8383.1087   -574.65972    20753.917    4.9697747 
    2680    759.48154   -8468.1861   -8383.4648   -1079.0902    20751.763    5.0147509 
    2690    754.34302   -8467.9891    -8383.841   -1358.9933    20748.237    5.0633271 
    2700    749.94543   -8467.8724   -8384.2149   -1525.3105    20742.964    5.1207885 
    2710    743.02287   -8467.4415   -8384.5562   -1210.2519     20735.86    5.1862287 
    2720    747.31236   -8468.2336   -8384.8698   -782.51335    20727.404    5.2509105 
    2730    764.84332   -8470.5053   -8385.1859     -532.223    20718.237    5.3064351 
    2740     767.2865   -8471.1356   -8385.5436   -406.00422    20708.756     5.350977 
    2750    744.94664   -8469.0332   -8385.9332    92.123712    20699.228    5.3882562 
    2760    745.82152   -8469.5165   -8386.3189    297.54285    20690.228    5.4232968 
    2770    766.72449   -8472.2395   -8386.7102    239.38662    20682.024    5.4619583 
    2780    758.16809   -8471.6946   -8387.1198     325.5601    20674.541    5.5050508 
    2790    756.08117   -8471.8778   -8387.5358    151.34953    20667.801    5.5456433 
    2800    770.63983   -8473.9355   -8387.9694   -449.45803    20661.509    5.5786204 
    2810    762.85158    -8473.533   -8388.4358   -728.14775    20654.912    5.6061543 
    2820    747.09911    -8472.252   -8388.9119   -1017.8947    20647.568    5.6329607 
    2830    746.82221   -8472.6793   -8389.3701   -1208.1328    20639.128    5.6609888 
    2840     751.5608   -8473.6496   -8389.8118   -928.83823     20629.42    5.6903754 
    2850    753.80746   -8474.3269   -8390.2385   -874.59846    20618.789    5.7221952 
    2860    752.39705   -8474.5888   -8390.6578   -1181.4981    20607.344    5.7536628 
    2870    742.89318   -8473.9284   -8391.0575   -1619.1697    20594.711    5.7796123 
    2880    755.19047   -8475.6925   -8391.4498   -2148.2106    20580.306     5.799203 
    2890    767.02142   -8477.4184    -8391.856   -2450.1617    20563.478    5.8146586 
    2900    763.57875   -8477.4727   -8392.2944   -1954.5942    20543.988    5.8278958 
    2910    748.57387   -8476.2317   -8392.7272   -961.74473    20522.607    5.8377075 
    2920    745.84404   -8476.3313   -8393.1313   -146.97453    20500.685    5.8437704 
    2930    755.78249   -8477.8176   -8393.5089    832.94388    20479.398    5.8521935 
    2940    748.28211   -8477.3442   -8393.8722     1999.438    20460.067     5.867113 
    2950    741.67657   -8476.9418   -8394.2067    2792.3849    20444.149    5.8897987 
    2960    765.70526   -8479.9492   -8394.5336     2696.346    20432.505    5.9169478 
    2970    775.56737    -8481.408   -8394.8923    2801.3661     20425.01    5.9445147 
    2980    791.08686   -8483.5629   -8395.3159    2502.1668    20421.569    5.9736147 
    2990    805.74106    -8485.725   -8395.8433    1799.4123    20421.655    6.0053685 
    3000    789.18439   -8484.4921   -8396.4574    1227.3211    20424.241    6.0398414 
    3010    783.50842    -8484.517   -8397.1155    818.77678    20428.482    6.0760082 
    3020    794.70757   -8486.4402   -8397.7894   -217.36665     20433.63     6.116269 
    3030    816.23481   -8489.5696   -8398.5174   -1721.7229    20438.226    6.1640169 
    3040    780.11106   -8486.2927   -8399.2702   -1935.4394    20440.484    6.2183348 
    3050    759.75141   -8484.7023   -8399.9509   -1912.4349    20440.031     6.272628 
    3060    784.29546   -8488.0602   -8400.5709   -1992.0953     20436.94    6.3220528 
    3070    784.76491   -8488.7097    -8401.168   -1430.9318    20431.297    6.3695122 
    3080    787.85429    -8489.646   -8401.7597   -1672.5632    20423.748    6.4179947 
    3090    788.60917   -8490.3247   -8402.3541   -2078.4934    20414.116    6.4677037 
    3100    778.31456   -8489.7714   -8402.9492   -1784.7792     20402.02    6.5184906 
    3110    764.44213    -8488.808   -8403.5333   -1364.4975    20387.875    6.5697837 
    3120    752.91342   -8488.0689   -8404.0803   -1589.1503    20372.217    6.6216588 
    3130    771.49683   -8490.6761   -8404.6145   -2018.9157    20354.869    6.6735584 
    3140    783.00396   -8492.5103    -8405.165   -2475.3943    20335.327    6.7241635 
    3150    786.81467   -8493.5119   -8405.7415   -2408.2854     20313.17    6.7778374 
    3160    785.91347   -8494.0025   -8406.3327   -1840.6938    20288.579    6.8408054 
    3170    781.29041   -8494.0747   -8406.9206   -657.72229    20262.477    6.9127176 
    3180    760.85124   -8492.3413   -8407.4672    454.57517    20236.472    6.9871931 
    3190    762.32311   -8493.0012   -8407.9629    625.70106    20211.978    7.0548023 
    3200     779.2711   -8495.3971   -8408.4682    690.25702      20189.3    7.1094121 
    3210    763.58714   -8494.1695   -8408.9902    1594.0096    20168.578    7.1522585 
    3220    773.26143   -8495.7802   -8409.5217    1987.0669    20150.777    7.1904901 
    3230    806.19043   -8500.0476   -8410.1159    1443.8189    20136.228    7.2300136 
    3240    801.42518   -8500.1976   -8410.7975    1414.4039    20124.264    7.2755156 
    3250    782.63255   -8498.8133   -8411.5094     1773.558    20114.725    7.3297232 
    3260    785.63564   -8499.8567   -8412.2179    2019.6781    20107.895    7.3913926 
    3270    776.94887    -8499.579   -8412.9092    2145.8881    20104.001    7.4571553 
    3280     782.3574   -8500.8515   -8413.5783    2058.6079    20103.095    7.5237602 
    3290    779.92567   -8501.2365   -8414.2346    1815.4052    20104.946    7.5907506 
    3300    767.92112   -8500.5116   -8414.8489    717.11952    20109.038    7.6596866 
    3310    807.29288   -8505.5138   -8415.4591   -1444.9382    20113.785    7.7293792 
    3320    826.29149   -8508.3128   -8416.1387    -3012.614    20116.516    7.7968454 
    3330    801.67813    -8506.323   -8416.8946   -3512.0851    20115.257    7.8585093 
    3340    785.30328   -8505.2684   -8417.6666   -3617.1925    20109.418     7.913444 
    3350    784.95298   -8505.9884   -8418.4257   -3811.0037    20098.986    7.9620837 
    3360    776.08629   -8505.7337   -8419.1601   -3527.9708    20083.993    8.0040018 
    3370    764.76212   -8505.1596   -8419.8492   -3088.9324    20064.927    8.0377541 
    3380    758.15672   -8505.0555    -8420.482    -2331.979    20042.566    8.0591447 
    3390    755.99936   -8505.3836   -8421.0508   -1450.1778    20018.005    8.0670714 
    3400    764.49768   -8506.8586   -8421.5777   -514.87716    19992.479    8.0646765 
    3410    760.81736   -8506.9399   -8422.0696    50.134092    19967.237    8.0543042 
    3420    781.86248   -8509.7873   -8422.5694   -407.15887    19942.878    8.0385745 
    3430     784.3133   -8510.5998   -8423.1085   -768.93354    19918.917    8.0200069 
    3440    791.97893   -8512.0472   -8423.7008   -1154.3018    19894.838     8.003518 
    3450    806.21872   -8514.3159    -8424.381   -1773.9136    19870.097    7.9986692 
    3460     790.3771   -8513.3184   -8425.1507    -1945.636    19844.017    8.0082919 
    3470     781.9948   -8513.1967   -8425.9641   -2065.2359    19816.379    8.0255169 
    3480    772.22691   -8512.9324   -8426.7894   -1730.0071    19787.144    8.0495303 
    3490    765.75217   -8512.9896   -8427.5688   -969.93338    19756.819    8.0861807 
    3500    786.76639   -8516.0902   -8428.3252    -300.7596    19726.363    8.1353408 
    3510    773.37315   -8515.3193   -8429.0484    652.15301    19696.737    8.1942151 
    3520    781.16469   -8516.8823   -8429.7422    627.37557    19668.967    8.2581869 
    3530    797.35655    -8519.394   -8430.4476    47.880357    19643.037    8.3195778 
    3540    807.31652   -8521.2588   -8431.2014   -170.36514    19618.257    8.3700703 
    3550    808.28428   -8522.1663   -8432.0009    177.96186    19594.335    8.4096707 
    3560    781.77702   -8520.0046   -8432.7962    1075.9711     19571.68    8.4452108 
    3570    752.25998   -8517.4285   -8433.5128    1862.8086    19551.303    8.4832846 
    3580    762.76834   -8519.2312   -8434.1433    1396.2864    19533.965    8.5277698 
    3590    785.97218   -8522.4244    -8434.748    917.94817    19519.103    8.5779241 
    3600    790.77238   -8523.5751   -8435.3632    1069.8853    19506.081     8.630797 
    3610    796.22299   -8524.8444   -8436.0246    1455.8204    19494.986    8.6851137 
    3620    793.15822    -8525.194    -8436.716     1806.785    19486.166    8.7415935 
    3630    809.73479   -8527.7759   -8437.4488    1806.5887    19479.897    8.8014549 
    3640    815.01401   -8529.1704   -8438.2544     2078.652     19476.17    8.8648578 
    3650    778.70322   -8525.9555     -8439.09    2543.8392    19475.225    8.9279782 
    3660    775.23862   -8526.3737   -8439.8946    2012.8215    19477.375    8.9874525 
    3670    792.08893   -8529.0558   -8440.6971    1252.0144    19481.933    9.0473766 
    3680    786.93603   -8529.2782   -8441.4943    855.44367    19487.922    9.1132843 
    3690    814.44763   -8533.1685   -8442.3157    233.76453    19494.713     9.186382 
    3700    808.23134   -8533.3432   -8443.1838   -36.192819    19501.591    9.2662902 
    3710    778.76256   -8530.9161    -8444.044   -410.91552    19508.169    9.3540484 
    3720    780.91881   -8531.9686   -8444.8559   -1467.7383    19513.915    9.4505114 
    3730    781.48671   -8532.7975   -8445.6215   -2620.1707    19517.605     9.551021 
    3740    779.63991   -8533.3298   -8446.3598   -3169.9664    19517.939     9.649222 
    3750    759.91405   -8531.8275   -8447.0579   -2498.9913    19514.429    9.7425835 
    3760    757.81354   -8532.2429   -8447.7077   -1773.0238    19507.917    9.8298428 
    3770    774.26891   -8534.7054   -8448.3345   -1268.7033    19499.415    9.9111283 
    3780    796.86166   -8537.8884   -8448.9973    -652.1068    19489.651    9.9873865 
    3790    797.88794   -8538.7312   -8449.7256    110.06072    19479.471     10.06447 
    3800    784.92725   -8538.0489   -8450.4891    683.49762    19469.805     10.15064 
    3810    798.05246   -8540.2964   -8451.2725    445.44219    19461.249    10.245736 
    3820    800.30666   -8541.3792   -8452.1038    324.39981    19453.593    10.343047 
    3830    771.77728   -8539.0298   -8452.9369     608.1102    19446.678    10.436436 
    3840    777.21103   -8540.4476   -8453.7485    41.371507    19440.673     10.52488 
    3850    776.24001   -8541.1319   -8454.5412    -781.6243    19434.927    10.611944 
    3860    764.44021   -8540.5725    -8455.298   -1296.7175    19428.455    10.700545 
    3870    747.57049   -8539.3709   -8455.9782   -1778.7135    19420.624    10.793855 
    3880    757.76016   -8541.1357   -8456.6064   -2352.0216    19410.859    10.890916 
    3890    764.09606    -8542.458   -8457.2219   -2441.3685     19398.58    10.988257 
    3900    744.16025   -8540.8069   -8457.7947   -1578.7195    19383.862    11.082912 
    3910    758.57312   -8542.9157   -8458.2957   -1047.6285    19367.712    11.170896 
    3920    770.28902   -8544.7092   -8458.7823   -530.04165    19350.883    11.249601 
    3930    755.24311   -8543.5088   -8459.2603     292.2028    19334.092    11.321223 
    3940    782.98417   -8547.1059   -8459.7629    280.73954    19318.187    11.390382 
    3950    794.19961   -8548.9311    -8460.337    438.49586    19303.244    11.457311 
    3960    781.00625    -8548.104   -8460.9815    1286.4825    19289.488    11.520278 
    3970    769.75222   -8547.5227   -8461.6557    2057.2264    19277.826    11.583823 
    3980    763.11873    -8547.467     -8462.34    2706.9348    19269.096    11.658748 
    3990    765.00977   -8548.3449   -8463.0069    2806.5154    19263.915    11.750629 
    4000    775.79275   -8550.2173   -8463.6764    2066.9678     19262.24      11.8555 
    4010       753.27   -8548.3513   -8464.3229    1590.0308    19263.208    11.966308 
    4020    750.12001   -8548.5898   -8464.9128    909.22008    19266.081    12.075249 
    4030    762.32115   -8550.4908   -8465.4527    495.92586        19270    12.177366 
    4040    757.45618    -8550.456   -8465.9607    1038.9493    19274.503    12.270595 
    4050    773.93003   -8552.7995   -8466.4664    1197.2705    19280.054    12.355414 
    4060    786.99563   -8554.7986    -8467.008    969.92163    19286.857    12.433934 
    4070    787.63172   -8555.4688   -8467.6073    466.68288    19294.572    12.510366 
    4080    785.78652   -8555.9116    -8468.256     297.8874    19302.652    12.589361 
    4090    783.47031   -8556.3345   -8468.9372   -57.989112    19310.815    12.672114 
    4100    775.21975   -8556.1032   -8469.6263    -714.8467    19318.605    12.759956 
    4110    770.81941   -8556.2869   -8470.3008   -1420.5324    19325.266    12.854159 
    4120    762.44921   -8556.0088   -8470.9564   -1657.8914    19330.035    12.951174 
    4130    740.77655    -8554.191   -8471.5562   -1659.8814    19332.642    13.043634 
    4140    771.75174   -8558.2101   -8472.1201   -2791.2947    19332.952    13.125321 
    4150    767.24391   -8558.2759   -8472.6887   -3183.3352    19329.925    13.196706 
    4160    757.62793   -8557.7567   -8473.2422   -3539.2816    19323.064    13.260103 
    4170    788.22085   -8561.7387   -8473.8115   -4306.1335    19312.032    13.317309 
    4180    795.94287   -8563.2269   -8474.4383   -4946.8585    19296.067    13.366593 
    4190     793.6895   -8563.6732   -8475.1359   -5294.0264    19274.551    13.405754 
    4200    776.57508   -8562.5151   -8475.8869   -5213.4924    19247.268    13.437057 
    4210    750.17033   -8560.3021   -8476.6195   -3757.0885    19214.659     13.46114 
    4220    746.48746   -8560.5314   -8477.2596    -1258.338    19178.663    13.473003 
    4230    758.34326   -8562.3904    -8477.796    1508.1993    19142.362     13.47073 
    4240    759.00669   -8562.9121   -8478.2437    3981.3921    19109.089    13.461129 
    4250    769.08863   -8564.4567   -8478.6637    4926.2685    19081.542    13.457683 
    4260     783.7061   -8566.5356    -8479.112    5163.6312    19060.805     13.47217 
    4270    793.81627    -8568.185   -8479.6336    4848.2001    19046.863    13.506118 
    4280    781.76001   -8567.4229   -8480.2163    4934.7774    19039.231    13.556559 
    4290    786.28608   -8568.5487   -8480.8373    4440.0393    19037.696    13.616265 
    4300    806.29298   -8571.4616   -8481.5184     2816.976    19041.387    13.677969 
    4310    795.30817   -8570.9819    -8482.264    1766.5454    19048.399    13.739522 
    4320    763.79933   -8568.2026   -8482.9997    2009.3192    19057.454    13.798228 
    4330    770.01324   -8569.5894   -8483.6932    2194.8799    19068.636    13.853811 
    4340    765.24824   -8569.7115   -8484.3469    2499.2022    19082.148    13.910893 
    4350    762.75217   -8570.0515   -8484.9654    2174.3209    19098.207    13.972074 
    4360    776.53685   -8572.1787   -8485.5548    1010.8681    19116.362    14.038541 
    4370    789.06974   -8574.1696   -8486.1477    479.17105    19135.292    14.105677 
    4380     771.9093   -8572.8664   -8486.7588    1076.5393    19154.407    14.170457 
    4390    749.35262   -8570.9261   -8487.3347    1353.4891    19174.286    14.239612 
    4400    762.46601   -8572.9201   -8487.8658    515.85137    19195.153    14.316254 
    4410    774.41998   -8574.7556   -8488.3679   -989.61303    19216.005    14.397979 
    4420     789.8413   -8576.9863   -8488.8783   -2658.7873    19235.053    14.481946 
    4430    799.28032   -8578.6004   -8489.4395   -3609.1573    19250.416    14.566306 
    4440    769.31966   -8575.8642   -8490.0454   -3300.5658    19261.076    14.645749 
    4450    745.74674   -8573.8194   -8490.6302   -2667.6741    19267.427    14.713907 
    4460    758.12398    -8575.747   -8491.1772   -2568.4145    19270.258    14.768684 
    4470    746.40544   -8574.9526     -8491.69   -1692.8369    19269.964    14.808987 
    4480    729.28794   -8573.4946   -8492.1414   -187.52235    19267.682    14.834113 
    4490    740.43818   -8575.1258   -8492.5289    1116.9586    19265.196    14.848858 
    4500     751.0978   -8576.6554   -8492.8693    2178.9391    19264.159    14.860645 
    4510    778.14789   -8580.0199   -8493.2163    1909.5669    19265.664    14.876785 
    4520     782.9658    -8580.949    -8493.608    1531.7126    19269.468    14.904932 
    4530    776.42655   -8580.6753   -8494.0638      1503.21    19275.116    14.948001 
    4540    764.03528   -8579.7851   -8494.5558    1476.3129    19282.481    15.002851 
    4550     762.6055   -8580.1414   -8495.0716    1508.5681    19291.506    15.065349 
    4560    755.32864   -8579.8477   -8495.5897    1557.8015    19302.206    15.130649 
    4570    759.90718   -8580.8624   -8496.0936     720.7117    19314.494    15.193312 
    4580    772.72938   -8582.7894   -8496.5903     -958.489    19327.286    15.247225 
    4590    759.30187   -8581.7914   -8497.0901   -1747.3974    19338.716    15.286644 
    4600    734.49552   -8579.5128   -8497.5787   -1610.9727    19347.831    15.310253 
    4610    724.25935   -8578.7996   -8498.0073   -1681.7855    19354.728    15.318487 
    4620     749.8351   -8582.0159   -8498.3707   -2115.7836    19359.325    15.315263 
    4630    769.83772   -8584.5861   -8498.7095   -1884.2483    19361.273    15.309199 
    4640    766.39575   -8584.5442   -8499.0516   -1771.1951    19360.831     15.30541 
    4650    766.96667   -8584.9768   -8499.4205   -1950.8943    19358.168    15.301885 
    4660    737.65993   -8582.0752   -8499.7881   -1481.7801    19353.228    15.293937 
    4670    741.21386    -8582.795   -8500.1115   -1321.1493    19346.511    15.276897 
    4680     778.0326   -8587.2171   -8500.4264    -1218.928    19338.305    15.252912 
    4690    778.64952   -8587.6368   -8500.7772   -784.80349    19328.855    15.234444 
    4700    791.96423   -8589.5441   -8501.1993    -999.5452    19318.586    15.231793 
    4710    788.75433   -8589.6902   -8501.7035    -717.4492    19307.392    15.248258 
    4720    766.20419   -8587.7299   -8502.2587   -299.82631    19295.587    15.278817 
    4730    746.76457   -8586.1126   -8502.8098   -710.16326     19283.59    15.317511 
    4740    742.12546   -8586.1056   -8503.3204   -2070.0872    19270.886    15.355561 
    4750    738.60043   -8586.1773   -8503.7853   -2946.7438    19255.992    15.382978 
    4760    727.09341   -8585.2827   -8504.1743    -2919.224    19237.942    15.395566 
    4770    748.06356   -8587.9369   -8504.4893   -2884.0451    19216.726    15.395817 
    4780    770.23995   -8590.7064    -8504.785   -2164.8678    19192.562    15.389203 
    4790    761.59527   -8590.0345   -8505.0774   -723.47508    19166.433    15.380584 
    4800    772.92068    -8591.589   -8505.3686    143.64303    19140.001    15.369385 
    4810    783.44618   -8593.0776    -8505.683    1072.5566    19114.408    15.353413 
    4820    771.63544   -8592.0997   -8506.0226    2368.2677    19090.754    15.335399 
    4830    768.92936   -8592.1427   -8506.3675    3825.5894     19070.57    15.323189 
    4840    781.87194   -8593.9543   -8506.7353    4909.1562    19055.425    15.320644 
    4850    776.61233   -8593.7805   -8507.1483    5787.5182    19046.525    15.323212 
    4860    767.53002   -8593.2171    -8507.598    5682.8169    19044.685    15.327915 
    4870    769.74582    -8593.934   -8508.0677    4326.9412    19049.598    15.335144 
    4880    778.73404   -8595.4133   -8508.5444    2102.9733    19059.509    15.345311 
    4890     777.3834   -8595.7476   -8509.0293    475.54238    19071.811    15.353192 
    4900    757.94188   -8594.0445   -8509.4949    -231.7909    19084.549    15.352441 
    4910    763.68436   -8595.1098   -8509.9196   -1037.9459    19096.709    15.342105 
    4920    774.09071   -8596.6668   -8510.3158   -952.99066    19107.474    15.325753 
    4930    783.28228   -8598.0887   -8510.7124   -857.14398    19116.873     15.31125 
    4940    791.03424   -8599.3771    -8511.136   -1303.0969    19124.986    15.307826 
    4950    766.07959   -8597.0267   -8511.5694   -1384.5949    19131.425    15.318442 
    4960    751.11113   -8595.7567   -8511.9692   -1890.7252    19136.019    15.339436 
    4970    763.49696   -8597.5096   -8512.3403   -2572.6184     19138.21    15.363196 
    4980    761.20739   -8597.6072   -8512.6934   -2348.1123    19137.347    15.384308 
    4990    783.77575   -8600.4907   -8513.0593    -1850.679     19133.69     15.40265 
    5000    800.61528   -8602.7881   -8513.4783   -1302.6463    19127.857    15.422481 
Loop time of 2083.24 on 16 procs for 3000 steps with 864 atoms

Performance: 0.124 ns/day, 192.893 hours/ns, 1.440 timesteps/s
95.7% CPU use with 16 MPI tasks x 1 OpenMP threads

MPI task timing breakdown:
Section |  min time  |  avg time  |  max time  |%varavg| %total
---------------------------------------------------------------
Pair    | 911.87     | 1399.8     | 2042.4     | 992.1 | 67.19
Bond    | 0.00026488 | 0.00082657 | 0.0019596  |   0.0 |  0.00
Neigh   | 0.030009   | 0.049511   | 0.086714   |   8.7 |  0.00
Comm    | 5.282      | 470.54     | 1075.9     |1401.7 | 22.59
Output  | 0.25107    | 0.25394    | 0.29512    |   2.1 |  0.01
Modify  | 5.8127     | 212.55     | 762.41     |1618.0 | 10.20
Other   |            | 0.01695    |            |       |  0.00

Nlocal:        54.0000 ave          85 max          35 min
Histogram: 3 6 1 0 0 1 1 0 1 3
Nghost:        509.688 ave         660 max         354 min
Histogram: 2 2 0 2 3 1 1 1 0 4
Neighs:         0.00000 ave           0 max           0 min
Histogram: 16 0 0 0 0 0 0 0 0 0
FullNghs:      2658.12 ave        5597 max        1064 min
Histogram: 6 4 0 0 0 2 0 1 1 2

Total # of neighbors = 42530
Ave neighs/atom = 49.224537
Ave special neighs/atom = 0.0000000
Neighbor list builds = 300
Dangerous builds = 300
unfix   2

fix     3 all npt temp 750.0 750.0 $(100.0*dt) aniso 1.01325 1.01325 $(1000.0*dt)
fix     3 all npt temp 750.0 750.0 0.10000000000000000555 aniso 1.01325 1.01325 $(1000.0*dt)
fix     3 all npt temp 750.0 750.0 0.10000000000000000555 aniso 1.01325 1.01325 1
run     20000
Per MPI rank memory allocation (min/avg/max) = 8.899 | 8.909 | 8.922 Mbytes
Step Temp PotEng TotEng Press Volume c_msd[4] 
    5000    800.61528   -8602.7881   -8513.4783   -1302.6463    19127.857    15.422481 
    5010     781.4099   -8600.6937   -8513.5263   -542.79572    19127.195    15.438537 
    5020    776.23289   -8600.2519    -8513.662    149.52987    19125.874    15.469431 
    5030    772.77847   -8600.0596    -8513.855    547.13064    19124.735    15.516497 
    5040    779.68638   -8601.0926   -8514.1174    308.95318    19124.215    15.572754 
    5050    776.70151   -8601.0954   -8514.4532   -263.20847    19124.056    15.626316 
    5060    789.64603   -8602.9598   -8514.8736   -944.26441     19123.56    15.673541 
    5070    810.68563   -8605.8553   -8515.4221   -1581.9465    19121.882    15.716582 
    5080    796.71848    -8604.976   -8516.1008   -1032.1468    19118.407    15.758271 
    5090     791.7502   -8605.2027   -8516.8818   -350.72157    19113.671    15.801077 
    5100    775.81063   -8604.2347   -8517.6918    114.23989    19108.489    15.842389 
    5110    771.67934   -8604.5598   -8518.4779   -112.37106    19103.353    15.878151 
    5120    771.15252   -8605.2208   -8519.1976   -248.06897    19098.109    15.909484 
    5130    784.82524   -8607.3957   -8519.8472    -544.2441     19092.54    15.942976 
    5140    794.05344   -8609.0299    -8520.452     -932.662    19086.287    15.982905 
    5150    776.95058   -8607.6634   -8520.9934   -986.83656    19078.939    16.026903 
    5160    796.61002   -8610.3599   -8521.4969   -1125.3121    19070.358    16.067931 
    5170    791.60472   -8610.3005   -8521.9958   -352.91092    19060.484    16.101692 
    5180     764.6816   -8607.7649   -8522.4635     1359.626    19050.271    16.130495 
    5190    768.37884   -8608.6079   -8522.8941    2289.6787     19041.61    16.164046 
    5200    770.28735   -8609.2252   -8523.2985    2797.7333    19035.705    16.207515 
    5210    794.77588   -8612.3859   -8523.7274    2456.2664    19033.096    16.266508 
    5220    804.49632   -8613.9718    -8524.229    1347.6415    19033.377    16.352887 
    5230    789.49369   -8612.8645   -8524.7953    405.09059    19035.334    16.464888 
    5240    794.80017   -8614.0745   -8525.4133   -102.48508    19037.842    16.584799 
    5250    778.23249   -8612.8701   -8526.0571    586.02603      19040.4    16.694099 
    5260    774.20347   -8613.0698   -8526.7063    1297.1548    19043.664    16.785383 
    5270    790.18396   -8615.5106   -8527.3644    1207.4246    19048.394    16.868297 
    5280    782.01041   -8615.2654   -8528.0309    1209.1676    19054.586    16.956759 
    5290    756.64187   -8613.0666   -8528.6621    2281.0633    19062.398    17.059973 
    5300    762.57985   -8614.3247   -8529.2578    2450.4926    19072.881    17.178591 
    5310    762.58553   -8614.9031   -8529.8356    2018.7381    19086.322     17.30583 
    5320    767.08554   -8615.9797   -8530.4101    784.07987    19102.128     17.43812 
    5330    777.79787   -8617.7701   -8531.0056   -737.94896     19118.85     17.57743 
    5340    755.23679   -8615.8561   -8531.6083    -1379.179    19134.753    17.727325 
    5350    733.46901   -8613.9702   -8532.1507   -1492.0966    19149.003     17.89039 
    5360     761.7117   -8617.6086   -8532.6385   -2131.5375     19161.32    18.065661 
    5370    755.84929   -8617.4134   -8533.0973   -2378.4425    19171.021    18.245567 
    5380    715.22761   -8613.2701   -8533.4854   -2175.6835    19177.812    18.421491 
    5390    705.66729   -8612.4738   -8533.7555   -2424.3502    19181.831    18.590211 
    5400    726.19204   -8614.9231   -8533.9153   -2677.3958    19182.863    18.743329 
    5410    736.44178   -8616.1563   -8534.0051     -2646.31    19180.617    18.866499 
    5420    733.22914   -8615.8461   -8534.0533   -2408.3916    19175.171    18.955738 
    5430     756.9385    -8618.531   -8534.0933   -2492.5044      19166.8    19.020982 
    5440    774.24533    -8620.532   -8534.1637   -2170.4566    19155.522     19.07423 
    5450    771.23712   -8620.3275   -8534.2948    -1215.712    19141.759    19.119758 
    5460    739.93177   -8616.9983   -8534.4578    819.28374    19126.813     19.15536 
    5470    729.46278   -8615.9731   -8534.6005    2605.3264    19113.018    19.186599 
    5480    753.24451   -8618.7501   -8534.7246    3622.5576    19102.466    19.228243 
    5490    759.85403   -8619.6308   -8534.8679    4116.8682    19096.398    19.286962 
    5500    759.22264   -8619.7466   -8535.0541    3669.4896    19095.323    19.363807 
    5510    756.84313   -8619.6942   -8535.2672    2726.2186    19098.671    19.449785 
    5520    768.50332   -8621.2342   -8535.5065    2536.4418    19105.376    19.536255 
    5530      783.893   -8623.2579   -8535.8134    3003.7387    19115.155    19.621755 
    5540    768.00203    -8621.877   -8536.2052    3555.4306    19128.514    19.705982 
    5550    770.87833   -8622.6542   -8536.6615    3128.9987    19145.964    19.789752 
    5560    798.32617   -8626.2585    -8537.204    2130.8768    19166.981    19.881608 
    5570    776.64198   -8624.4838   -8537.8483    2129.1555    19190.492    19.990346 
    5580    748.54139   -8622.0409     -8538.54     2410.785    19216.369    20.116578 
    5590    760.47578   -8624.0583   -8539.2261    2297.3099    19244.863    20.256924 
    5600    770.03315   -8625.7972   -8539.8988    2034.9502    19275.836    20.409461 
    5610    759.77304   -8625.2966   -8540.5428    1248.7996    19308.868     20.56605 
    5620    748.15953   -8624.5691   -8541.1108   -311.83317    19342.939    20.714502 
    5630     739.3669   -8624.0415    -8541.564   -2185.1961    19376.108     20.84717 
    5640    749.12706   -8625.4816   -8541.9154   -3824.4962    19406.084    20.960875 
    5650    753.28233   -8626.2349   -8542.2051   -5097.4729    19430.808    21.057454 
    5660    753.10681   -8626.4746   -8542.4644   -5184.0077    19448.857    21.142946 
    5670    766.52541   -8628.2317   -8542.7247   -4434.9098    19460.166     21.21861 
    5680    757.04624   -8627.4441   -8542.9945   -3043.9135    19465.777    21.281131 
    5690    738.19987   -8625.5978   -8543.2505    -1592.951    19467.483    21.328361 
    5700    737.28957   -8625.7105   -8543.4647   -681.09451    19467.095     21.35522 
    5710    747.78243   -8627.0615   -8543.6453    122.51883    19465.857    21.361955 
    5720     738.6692   -8626.1985   -8543.7988    671.84564    19464.785    21.358972 
    5730    726.57116   -8624.9649   -8543.9148    437.85258    19464.488    21.353748 
    5740    728.18045   -8625.2078   -8543.9782    159.80361    19464.752    21.351435 
    5750    738.34932    -8626.359   -8543.9951   -38.047238    19465.238    21.357312 
    5760    738.60179   -8626.3737   -8543.9816   -215.44254     19465.67     21.37474 
    5770    740.91501   -8626.6001   -8543.9499    -34.00503    19465.866    21.404207 
    5780    753.67826   -8627.9948   -8543.9208   -38.966001    19465.956     21.44244 
    5790    742.45414   -8626.7282   -8543.9063    799.00463    19466.119    21.487626 
    5800    745.84921   -8627.1001   -8543.8995    1375.3597    19467.261    21.543253 
    5810     763.2959   -8629.0354   -8543.8886    1369.6215    19470.076    21.619348 
    5820    761.42109   -8628.8311   -8543.8934    1396.4798    19474.587    21.722825 
    5830    746.19498   -8627.1438   -8543.9046    1441.6798    19480.824    21.852466 
    5840      757.481    -8628.417   -8543.9188    606.98122    19488.663     21.99858 
    5850    737.92836   -8626.2228   -8543.9058    85.143913    19497.226    22.147579 
    5860    739.33116   -8626.3249   -8543.8514   -927.97309    19505.687    22.289346 
    5870    752.01637   -8627.6337   -8543.7452   -2065.6368    19512.822    22.419433 
    5880    761.63515   -8628.5863   -8543.6248   -2912.4772    19517.274    22.530655 
    5890    773.67706   -8629.8334   -8543.5286   -3645.0977    19517.975    22.618347 
    5900    772.06744   -8629.6124   -8543.4871   -4050.9366    19514.097    22.684718 
    5910    770.65321   -8629.4868   -8543.5192    -3869.054     19505.24    22.735402 
    5920    792.08946   -8632.0088     -8543.65   -2963.5707     19491.75    22.778164 
    5930    772.64307   -8630.0807   -8543.8912   -1290.9053    19474.865    22.816799 
    5940    753.32422   -8628.2538   -8544.2193    346.72574    19456.667    22.853208 
    5950    750.11641   -8628.2702   -8544.5936    1611.0531    19439.227    22.890318 
    5960    763.92908   -8630.2503   -8545.0329     2496.037    19424.098    22.928837 
    5970    769.62775   -8631.4371   -8545.5839    3252.4564    19412.377    22.966718 
    5980    746.75397   -8629.5463   -8546.2448    3913.0125    19404.951    23.005883 
    5990    738.77335   -8629.3628   -8546.9515    3776.8237    19402.489     23.05037 
    6000    759.35832   -8632.3903   -8547.6827    2902.2183    19404.728    23.106893 
    6010    761.89385   -8633.4196   -8548.4292    2370.4902    19410.606    23.181441 
    6020    756.27196   -8633.5289   -8549.1656    1802.3704    19419.338    23.271529 
    6030    745.74799   -8633.0402   -8549.8509    1051.2959    19430.164    23.364841 
    6040    740.93374   -8633.1009   -8550.4486    356.16732    19442.153    23.442705 
    6050    747.86016   -8634.3864   -8550.9614   -228.86863    19454.401    23.495744 
    6060     768.5648   -8637.1584   -8551.4239   -776.26288    19466.156    23.524358 
    6070    776.84225   -8638.5433   -8551.8853   -664.99277    19476.808    23.531679 
    6080    742.00306   -8635.0982   -8552.3266    515.13177    19486.581    23.527162 
    6090    732.17181   -8634.3797   -8552.7048    1192.7859    19496.813    23.521968 
    6100    744.47177   -8636.0553   -8553.0083    1034.6279    19508.324    23.522345 
    6110    769.86864   -8639.1585   -8553.2785    43.370808    19520.893    23.521854 
    6120    752.02883   -8637.4332   -8553.5432   -906.96293    19533.346    23.510466 
    6130    725.37766   -8634.6821   -8553.7651   -1825.7138    19544.474    23.486908 
    6140    752.59547   -8637.8939   -8553.9408   -3453.6268    19553.032    23.460305 
    6150    741.19191   -8636.7787   -8554.0977   -4088.2942    19557.187    23.441088 
    6160     729.2674    -8635.591   -8554.2402   -4181.4544    19556.128    23.433382 
    6170    746.08094   -8637.5907   -8554.3643   -4545.9264     19549.73    23.433107 
    6180     753.2921   -8638.5171   -8554.4863   -4578.8293    19537.706    23.430514 
    6190    768.10588   -8640.3312   -8554.6479   -4298.2299    19520.064    23.416816 
    6200      741.189   -8637.5096   -8554.8289   -2937.3547    19497.384    23.391972 
    6210     737.6738   -8637.2723   -8554.9837   -2040.9435     19471.25    23.361675 
    6220    766.50255   -8640.6242   -8555.1197   -1988.0387    19442.811    23.324656 
    6230    770.43124   -8641.2281   -8555.2854   -973.40979    19412.417    23.270819 
    6240    754.65859   -8639.6406   -8555.4573    1030.4921    19381.397     23.19976 
    6250    770.98172   -8641.6431   -8555.6389    2357.7058    19352.045     23.12462 
    6260    766.92462   -8641.4023   -8555.8507    3813.4014     19326.12    23.060419 
    6270    743.54819   -8639.0388   -8556.0949    5302.6201    19305.345    23.014164 
    6280    739.80922   -8638.8762   -8556.3494    6468.8663    19291.413    22.993291 
    6290    758.81066   -8641.2828   -8556.6363    7049.0492    19285.634    23.002505 
    6300    774.97987   -8643.4513   -8557.0011    6897.0661    19288.586    23.037989 
    6310    780.71991   -8644.5772   -8557.4867    5797.4924    19299.934    23.088987 
    6320     767.4191   -8643.6794   -8558.0727    4074.6501    19318.291    23.147155 
    6330    756.96105   -8643.1393   -8558.6991    1942.5601    19341.463    23.209905 
    6340    764.68875   -8644.6452    -8559.343   -47.811165    19366.806    23.281775 
    6350    756.66973   -8644.3933   -8559.9856   -1470.5081    19391.886    23.371525 
    6360    754.24011   -8644.7396    -8560.603   -3155.8608    19414.805    23.475114 
    6370    772.74461   -8647.3991   -8561.1983   -4870.5276    19433.499    23.575583 
    6380    766.05213   -8647.2445   -8561.7902   -5583.8689    19445.973    23.653992 
    6390    736.49992   -8644.4915   -8562.3338   -5176.8603    19451.407    23.698602 
    6400    726.01223   -8643.7689   -8562.7812   -4512.4898    19450.281    23.711069 
    6410    733.06855    -8644.899   -8563.1241   -3373.7601    19443.539    23.703843 
    6420    736.47028   -8645.5368   -8563.3824   -1268.7487    19432.759    23.689365 
    6430    722.93364   -8644.1959   -8563.5516    565.24099    19420.495    23.677247 
    6440    728.91154   -8644.9653   -8563.6541    1136.0186    19408.936    23.678156 
    6450    730.98214   -8645.2434   -8563.7012    1174.8523     19398.88    23.700688 
    6460    727.88996   -8644.9041   -8563.7068    692.84465    19390.342    23.747614 
    6470    722.18734   -8644.2238   -8563.6627   -115.18416    19382.726    23.810892 
    6480    740.07872   -8646.1364   -8563.5795   -563.91421    19375.101    23.880706 
    6490    757.01737    -8647.921   -8563.4746    -271.4326     19366.92    23.951679 
    6500    758.35654   -8647.9644   -8563.3686    1171.6228    19358.639     24.02118 
    6510     772.8002   -8649.4996   -8563.2926    1925.2883    19351.802    24.091637 
    6520    787.44735   -8651.1201   -8563.2792    2504.1437    19347.449    24.166353 
    6530    787.04686   -8651.1569   -8563.3606    2681.8474    19346.233    24.254296 
    6540    786.02322   -8651.2166   -8563.5346    2215.4506    19348.304     24.36558 
    6550    776.93196     -8650.44   -8563.7721    1441.8079    19353.093    24.495451 
    6560    764.44802   -8649.3356   -8564.0603    822.56238    19359.656    24.633885 
    6570    745.08136   -8647.4689   -8564.3539     379.1008    19367.219    24.771882 
    6580    751.18479   -8648.4287   -8564.6329   -670.41285    19375.112    24.896408 
    6590    754.24409   -8649.0438   -8564.9068   -1756.9935    19382.102    24.998151 
    6600    753.63725   -8649.2607   -8565.1914   -2544.9887    19386.849    25.074446 
    6610    766.55975   -8651.0123   -8565.5014   -2503.1267    19388.458    25.134036 
    6620    773.17273   -8652.0944   -8565.8458   -1911.4631    19386.996    25.186685 
    6630    773.83072   -8652.5609   -8566.2389   -1163.8411     19383.16     25.23963 
    6640    771.08323   -8652.6937   -8566.6782   -280.38636    19377.918    25.292493 
    6650    766.81649   -8652.6991   -8567.1596    179.80578    19372.348     25.33495 
    6660    766.73516    -8653.203   -8567.6725   -104.86582    19366.979     25.36133 
    6670    757.91099   -8652.7552   -8568.2091   -641.89906    19361.472    25.373512 
    6680    738.07649   -8651.0557   -8568.7222    105.53013    19355.368    25.373627 
    6690     742.7158   -8652.0379   -8569.1868    1451.9299    19349.511    25.372443 
    6700    752.02904   -8653.4925   -8569.6025    2364.4368    19345.481    25.388408 
    6710    763.49602    -8655.164   -8569.9949    2510.0249    19344.382     25.43296 
    6720    773.51948   -8656.6681   -8570.3809    2035.6036    19346.367    25.504458 
    6730    770.64919    -8656.731   -8570.7639    1253.5625    19350.836    25.591217 
    6740    747.80644   -8654.5197   -8571.1007    523.68828    19356.859    25.674292 
    6750    756.14577   -8655.7268   -8571.3776    -464.4287    19363.447    25.740286 
    6760    763.92292   -8656.8181   -8571.6013   -1348.1834     19369.39    25.792077 
    6770    778.15651   -8658.6205    -8571.816   -1934.1634     19373.62    25.834009 
    6780    768.01283   -8657.7218   -8572.0488   -1876.7629    19375.472    25.868764 
    6790    746.46207   -8655.5527   -8572.2838   -1703.8162    19374.954    25.894625 
    6800    748.85907   -8656.0325   -8572.4962   -1926.2417    19372.264    25.904775 
    6810    745.49718   -8655.8472   -8572.6858   -2027.7831    19367.204    25.893292 
    6820      743.361   -8655.7771   -8572.8541   -2101.2103    19359.646    25.863347 
    6830    756.95969   -8657.4465   -8573.0066   -2356.7681    19349.502    25.825063 
    6840    758.91306   -8657.8113   -8573.1534   -1630.7446    19336.646      25.7909 
    6850    769.76297   -8659.1688   -8573.3006   -969.43661    19321.855    25.764264 
    6860    798.49167   -8662.5638   -8573.4909   -391.94169    19305.969    25.742215 
    6870    797.77431   -8662.7564   -8573.7634     1102.024    19289.831    25.727804 
    6880    762.36152   -8659.1255   -8574.0829     3300.451    19275.289    25.721306 
    6890    750.93878   -8658.1761   -8574.4078    4887.2682     19264.88    25.722877 
    6900     753.8888   -8658.8239   -8574.7265    5697.7461    19260.539    25.730263 
    6910    779.76977   -8662.0787   -8575.0942    5236.1546     19263.14    25.736564 
    6920    763.29544   -8660.6671   -8575.5204    4917.3172    19272.262     25.74409 
    6930    737.92492   -8658.2721   -8575.9555    4274.0148    19287.396    25.765624 
    6940     742.5087   -8659.1576   -8576.3296    2388.5046    19307.632    25.811916 
    6950    771.22355   -8662.6669   -8576.6358    -596.4803    19330.607    25.879882 
    6960    781.67977   -8664.1158   -8576.9183   -3448.8995    19352.716     25.94622 
    6970     767.1769    -8662.804   -8577.2242   -5313.1789    19370.484     25.98843 
    6980    747.70601   -8660.9522   -8577.5445   -6131.7997    19381.592    26.003249 
    6990     757.1936   -8662.3391    -8577.873   -6791.3678    19384.929    25.998707 
    7000    761.09856   -8663.1343   -8578.2327   -6333.3595    19379.826    25.977355 
    7010     736.2117   -8660.7177   -8578.5922   -4388.5153    19367.028    25.933305 
    7020     719.6825   -8659.1729   -8578.8913   -3354.6814    19348.713    25.866039 
    7030    723.03112    -8659.759   -8579.1038   -2993.1005     19326.25    25.781015 
    7040    759.68133   -8664.0151   -8579.2715   -2967.8209    19300.181    25.684786 
    7050    777.45903    -8666.176   -8579.4493   -2327.2006    19270.713      25.5872 
    7060    781.85079    -8666.889   -8579.6724    -908.9035    19238.702    25.489262 
    7070     777.7463   -8666.6922   -8579.9334    272.20545    19205.833    25.384702 
    7080    761.59362   -8665.1703   -8580.2134    1537.0168    19173.629    25.271349 
    7090    758.24339   -8665.0497   -8580.4665    3171.5801    19143.681    25.156972 
    7100    780.36112   -8667.7562   -8580.7058    4378.1349    19117.886    25.052746 
    7110    784.58307   -8668.5061   -8580.9846    5039.2243    19097.633    24.971665 
    7120    771.11087   -8667.3338   -8581.3152    5707.0229    19083.744    24.922996 
    7130    766.90904   -8667.2216   -8581.6717    5509.8024    19076.809    24.908813 
    7140    785.06732   -8669.6373   -8582.0619    4463.9405     19076.52    24.923316 
    7150    772.62809   -8668.6708   -8582.4829    3889.2208     19081.75     24.95938 
    7160    769.06898   -8668.6938    -8582.903    2551.1576    19091.577    25.015504 
    7170    783.04718   -8670.6649   -8583.3148    383.80187    19104.374    25.083953 
    7180    767.83783   -8669.3615    -8583.708   -1254.1902    19117.621    25.148024 
    7190    759.77731   -8668.8247   -8584.0704    -2335.482    19129.296     25.19622 
    7200    762.79598   -8669.4803   -8584.3893   -2899.1894    19138.108     25.23029 
    7210    782.78363   -8672.0194   -8584.6987    -3342.761     19143.31     25.25622 
    7220    775.91442   -8671.5807   -8585.0263   -3494.2566    19144.433    25.279188 
    7230    743.51021    -8668.283   -8585.3433   -3373.1649    19141.322    25.297781 
    7240     768.2239   -8671.3334   -8585.6368   -4016.2844    19133.999    25.312706 
    7250    785.03295   -8673.5279   -8585.9563   -4275.5949    19121.858    25.327853 
    7260    761.87518   -8671.3013    -8586.313   -3296.4455    19104.721    25.339667 
    7270    751.38707   -8670.4851   -8586.6667   -2039.6171    19083.724    25.347503 
    7280    756.44223   -8671.3749   -8586.9926   -1243.3849    19060.346    25.357984 
    7290    771.71025   -8673.3966   -8587.3112   -1034.3294    19035.551     25.37438 
    7300    778.90657   -8674.5338   -8587.6456   -770.36064    19009.703    25.391896 
    7310    769.23023   -8673.8076   -8587.9988    349.72331    18983.231    25.407684 
    7320    759.27014   -8673.0511   -8588.3534     1688.485      18957.4    25.431925 
    7330    761.27183   -8673.6208   -8588.6998    2593.4041    18933.782    25.476601 
    7340    769.31949   -8674.8623   -8589.0435    3264.1682    18913.461    25.539649 
    7350    761.58813   -8674.3443    -8589.388    4487.6462    18897.304    25.612968 
    7360    759.74712   -8674.4847   -8589.7337    5362.6441    18886.586    25.696339 
    7370    764.67361   -8675.4028   -8590.1023    5851.5431    18882.304    25.790401 
    7380    765.18643   -8675.8618   -8590.5041    5818.4279     18884.97     25.89452 
    7390    769.80142   -8676.8091   -8590.9366     4957.698    18894.443    26.014327 
    7400    771.05792   -8677.4044   -8591.3917    4017.8134    18909.763    26.150367 
    7410     779.0323   -8678.7769   -8591.8747    2427.7592    18929.691     26.29867 
    7420    772.31216   -8678.5324   -8592.3798    936.75045    18952.401    26.456237 
    7430    763.23844   -8678.0265   -8592.8861    207.25535    18976.156    26.614412 
    7440    773.31096   -8679.6498   -8593.3858   -418.07347    18999.996    26.772512 
    7450    783.70732    -8681.317   -8593.8933   -1590.0648     19023.08    26.931876 
    7460    766.98299    -8679.963   -8594.4049   -2421.9398    19044.106    27.090873 
    7470    748.28664   -8678.3397   -8594.8672   -3228.0287    19062.024    27.240082 
    7480    759.93438    -8680.034   -8595.2622   -4144.7521    19075.883    27.369418 
    7490    780.04239     -8682.66   -8595.6451   -4886.6449    19084.606    27.481138 
    7500    779.15741    -8682.991   -8596.0748   -4266.2259    19087.457    27.581849 
    7510    756.40959   -8680.8986     -8596.52    -1863.585     19085.29    27.674619 
    7520    744.33621   -8679.9424   -8596.9106    834.85104    19080.933    27.760837 
    7530    754.67662   -8681.4019   -8597.2166    2065.8698    19077.509    27.847368 
    7540    793.97345   -8686.0773   -8597.5084    1891.7108    19076.489    27.943256 
    7550    800.06174   -8687.1119   -8597.8638    1910.3922    19077.841    28.047234 
    7560    796.43726   -8687.1532   -8598.3094    1567.0784    19081.452    28.153706 
    7570     789.7965   -8686.9349   -8598.8319     1112.794    19086.906    28.260217 
    7580    758.83921   -8684.0182   -8599.3686    1413.1491    19093.764     28.36225 
    7590    763.45727   -8685.0452   -8599.8804    1365.5467    19102.212    28.454653 
    7600    760.70003   -8685.2124   -8600.3552    1371.7271     19112.27    28.543265 
    7610    762.88592   -8685.8968   -8600.7957    995.42102    19123.857    28.638748 
    7620    770.38031   -8687.1595   -8601.2224     631.2991    19136.525    28.741642 
    7630     747.9948   -8685.0617   -8601.6217    985.35867    19149.918     28.84586 
    7640    756.15682   -8686.3312   -8601.9808    1095.7547     19164.34    28.950128 
    7650    763.70765   -8687.5117   -8602.3189    1191.3135    19179.957    29.056881 
    7660    755.70905   -8686.9509   -8602.6504    811.47333    19196.813    29.173708 
    7670    759.81789   -8687.7252   -8602.9664   -171.30078     19214.43    29.305203 
    7680    770.61248    -8689.238    -8603.275   -1798.2621    19231.572    29.437019 
    7690    772.73557   -8689.7953   -8603.5954   -3151.0169    19246.361    29.548724 
    7700     767.5854   -8689.5734   -8603.9481   -4041.4739    19257.141    29.633689 
    7710       762.66   -8689.4012   -8604.3253   -4877.9416    19262.814    29.699105 
    7720    766.59756   -8690.2534   -8604.7382   -5465.6137    19262.432     29.75736 
    7730    744.98422   -8688.2784   -8605.1743   -4883.1941    19255.436    29.818996 
    7740    730.58989   -8687.0787   -8605.5803   -3599.1408     19242.56     29.88532 
    7750    749.60132   -8689.5598   -8605.9406   -2574.1275    19225.336    29.951967 
    7760    744.34507   -8689.3017   -8606.2688   -893.15687    19205.224    30.012838 
    7770    712.21672   -8685.9691   -8606.5203    977.29037     19184.27    30.065038 
    7780    725.20641   -8687.5756   -8606.6778     1633.088    19164.622    30.114388 
    7790    740.13717    -8689.338   -8606.7746    1642.9141    19147.137    30.171148 
    7800    745.12579   -8689.9608   -8606.8409    1567.6735    19131.857    30.243325 
    7810    762.96406    -8692.002   -8606.8922     1450.741    19118.659    30.329335 
    7820    763.52929   -8692.1125   -8606.9397    1848.2245    19107.442    30.419417 
    7830    753.94855   -8691.1025   -8606.9984    2471.5728    19098.619    30.499914 
    7840     781.3059   -8694.2431   -8607.0872    1953.1282    19092.773     30.56411 
    7850    815.56111   -8698.2675   -8607.2904    882.14967     19089.32    30.614112 
    7860    773.17637   -8693.8775   -8607.6285    897.27762    19087.124    30.664415 
    7870    764.46744   -8693.3293   -8608.0518    695.14597    19085.995    30.733575 
    7880    749.22603   -8692.0865   -8608.5092    713.77064    19085.763    30.828036 
    7890     742.6803   -8691.8048   -8608.9577    873.45864    19086.432    30.941406 
    7900    764.95008   -8694.7416   -8609.4103    933.06678    19088.135    31.059591 
    7910    727.46368   -8690.9991   -8609.8494    1911.6799    19091.088    31.168304 
    7920    725.23451   -8691.1385   -8610.2375    1527.6292    19096.176    31.260428 
    7930     745.1374    -8693.703   -8610.5818    528.00431    19103.016    31.335414 
    7940    733.80223   -8692.7443   -8610.8876     616.4809    19110.568    31.391917 
    7950    755.94543   -8695.5059   -8611.1791    734.20829    19118.782    31.430718 
    7960     741.7221   -8694.2077   -8611.4675    1438.8081    19127.922    31.463759 
    7970    716.20424    -8691.617   -8611.7234    1249.0958    19138.642    31.500806 
    7980    730.42259   -8693.3969   -8611.9172   -191.88544    19150.669    31.540593 
    7990    733.49161   -8693.8682   -8612.0462   -1426.8928    19162.429    31.572299 
    8000    733.94293   -8693.9908   -8612.1183   -2383.1754     19172.37    31.584902 
    8010    745.46232   -8695.3023   -8612.1449   -2302.2218    19179.422    31.577453 
    8020    744.24958   -8695.1637   -8612.1415   -1302.3508    19183.705    31.566458 
    8030    745.13617   -8695.2588   -8612.1377   -693.98499    19186.321    31.572276 
    8040    739.28149   -8694.5933   -8612.1253   -664.45452    19188.034    31.594964 
    8050    741.01957   -8694.7626   -8612.1007    -1015.543    19188.872    31.624371 
    8060    753.16322   -8696.0816   -8612.0651   -867.83771     19188.51    31.653787 
    8070    765.01826   -8697.3797   -8612.0407   -361.39321    19187.138     31.67922 
    8080    744.11755   -8695.0383   -8612.0309     605.0517    19185.413    31.708753 
    8090    753.74809   -8696.1008   -8612.0191    840.33255    19184.354    31.755731 
    8100    780.32944   -8699.0717   -8612.0248    641.04675    19184.282    31.821296 
    8110    764.97968    -8697.417   -8612.0823    737.14382    19185.052    31.890921 
    8120    768.13765   -8697.8868   -8612.1999    310.60379    19186.649    31.951137 
    8130    765.76894   -8697.7938   -8612.3711    348.97947    19188.671    31.997862 
    8140    755.15465   -8696.8423   -8612.6037    675.93194    19191.171    32.033527 
    8150    753.25248   -8696.9391   -8612.9126    364.99163    19194.438    32.070926 
    8160    758.73123   -8697.9813   -8613.3437   -633.66645    19198.059    32.118668 
    8170    762.92412   -8699.0737   -8613.9684   -1582.8569    19200.893    32.167817 
    8180    756.80826   -8699.2802   -8614.8571   -1389.4283    19201.918    32.204454 
    8190    747.01201   -8699.3161   -8615.9858   -376.70243    19201.316    32.224805 
    8200    735.91968   -8699.3266   -8617.2336    622.34819    19200.242    32.229339 
    8210    716.99074   -8698.3646   -8618.3832    1576.8735    19199.956    32.222007 
    8220    719.45913   -8699.5728    -8619.316    1748.1014    19201.536    32.213152 
    8230    734.87268    -8702.022   -8620.0459    1259.4703    19205.206    32.218798 
    8240    724.95187   -8701.4736   -8620.6042    800.81186    19210.458    32.253154 
    8250    719.58026   -8701.2809   -8621.0106   -326.65869    19216.632    32.320334 
    8260     719.4365   -8701.5456   -8621.2914   -1833.8312    19222.359    32.401627 
    8270    710.77754    -8700.771   -8621.4827   -2367.8187    19225.913     32.47342 
    8280    689.21284   -8698.4564   -8621.5736   -1762.6554    19226.654    32.538149 
    8290    706.60337   -8700.3843   -8621.5616   -1131.1292    19225.204    32.612318 
    8300    738.34484   -8703.8312   -8621.4677   -1316.2302     19222.26    32.700785 
    8310    754.73673   -8705.5465   -8621.3545   -2653.2643    19217.563    32.799752 
    8320    755.55779   -8705.5476    -8621.264    -4517.003    19209.538    32.904743 
    8330    754.72475   -8705.4074   -8621.2168   -5498.2921    19196.034    33.006971 
    8340    732.68437   -8702.9096   -8621.1776   -5001.9718    19175.955    33.099736 
    8350    736.41859   -8703.2596    -8621.111   -4521.2391    19149.739    33.180914 
    8360    733.03364   -8702.7551   -8620.9841   -3516.9453    19118.127     33.23975 
    8370    731.72467   -8702.4014   -8620.7764   -2384.8294    19082.391    33.270846 
    8380    772.96197   -8706.7467   -8620.5216   -1919.9532    19043.869    33.279654 
    8390    770.18397   -8706.1792    -8620.264   -180.15702    19003.481    33.274603 
    8400    758.20951    -8704.579   -8619.9996    2171.9292    18963.335    33.270328 
    8410    770.23568   -8705.6516   -8619.7306    3716.8773     18926.12    33.277899 
    8420    786.33175   -8707.2089   -8619.4924    4660.0229    18893.704    33.293579 
    8430    793.94787   -8707.8939   -8619.3279    5234.2252    18867.172    33.309344 
    8440    806.24188   -8709.2244   -8619.2869    5534.8561    18847.138    33.321219 
    8450    789.41936   -8707.4541   -8619.3932    5855.3721      18833.9    33.329057 
    8460    773.44158   -8705.9081   -8619.6296    5622.4315    18827.649     33.33497 
    8470    791.70133   -8708.3028   -8619.9873    5185.6228    18828.103    33.341794 
[...]
   22890     766.6227   -8778.8976   -8693.3796    1113.6332    19128.596    53.443879 
   22900    790.12045   -8781.3951   -8693.2559    464.10615    19136.684    53.442067 
   22910    788.33633   -8781.1509   -8693.2108   -307.92823    19145.447    53.464063 
   22920     763.5947   -8778.4151    -8693.235   -521.64335    19154.024    53.488908 
   22930    794.82204   -8781.9904   -8693.3268   -1112.7943    19162.049    53.504245 
   22940    811.12763   -8784.0208   -8693.5383   -1897.3581    19168.806    53.524232 
   22950    781.43915   -8781.0855   -8693.9148   -2003.1157    19173.389     53.57486 
   22960    747.13068   -8777.7258   -8694.3822   -2288.5301    19175.534    53.671453 
   22970     737.5601    -8777.132   -8694.8561    -2937.662    19174.852    53.807372 
   22980    743.72511   -8778.2631   -8695.2994    -3896.033    19170.484     53.96746 
   22990    774.93917    -8782.228   -8695.7823   -4498.4071    19161.228    54.136046 
   23000    767.94525   -8781.9971   -8696.3317   -3630.0662    19146.425    54.284894 
   23010    766.10843   -8782.3874   -8696.9269   -1931.5054     19126.97    54.382706 
   23020    764.75466   -8782.8228   -8697.5133    130.88969    19104.858    54.422646 
   23030    777.09171   -8784.7822   -8698.0965    1447.8356    19082.467    54.420888 
   23040    765.34673   -8784.0543   -8698.6787    2193.3086     19061.45    54.400691 
   23050    738.13959   -8781.5596    -8699.219    3148.0484    19042.836    54.381213 
   23060    738.61227   -8782.0711   -8699.6778    3959.9744    19027.796    54.379491 
   23070    780.64262    -8787.195   -8700.1131     4067.904    19017.297    54.404494 
   23080    781.05643    -8787.703    -8700.575    4342.3076    19011.614    54.450666 
   23090     740.8453   -8783.6568   -8701.0144    5260.3002    19011.241    54.508025 
   23100    754.88401    -8785.611   -8701.4025    4521.7259    19017.111    54.567075 
   23110    770.53572   -8787.7184    -8701.764    2575.3788    19028.478    54.613425 
   23120    756.10522   -8786.4541   -8702.1095    901.42626    19043.199    54.644733 
   23130    747.36733   -8785.7809    -8702.411   -598.53048    19059.269    54.668631 
   23140    750.87693   -8786.4004    -8702.639   -1810.9205    19074.902    54.690273 
   23150    758.37121   -8787.4257   -8702.8282   -2433.0378     19088.62    54.700983 
   23160    735.63999    -8785.053   -8702.9912   -2167.4161    19099.655    54.694221 
   23170    746.74304   -8786.4366   -8703.1363   -2482.3429    19108.102    54.669521 
   23180    766.63957    -8788.802   -8703.2822   -3132.6061    19113.571    54.606292 
   23190    746.95718   -8786.7548   -8703.4306   -2602.6908    19115.407    54.485422 
   23200    752.96059   -8787.5603   -8703.5664   -1675.7416    19114.106    54.324426 
   23210    752.43629   -8787.6363   -8703.7009   -1269.7886    19110.646     54.14683 
   23220     736.0899   -8785.9525   -8703.8405   -1432.3003    19105.562    53.960528 
   23230    754.31878   -8788.1344    -8703.989   -2956.9436    19098.532    53.758561 
   23240     747.5356   -8787.5503   -8704.1616   -3451.3714    19087.934     53.53071 
   23250    714.88852   -8784.0599    -8704.313   -2450.7644    19073.179    53.276521 
   23260    732.42339   -8786.1003   -8704.3973   -1696.2352    19055.243    53.002927 
   23270    757.62857   -8788.9453   -8704.4307   -426.96842    19035.144    52.706982 
   23280    727.84632   -8785.6058   -8704.4135    2447.9782    19014.592     52.40266 
   23290    717.40071   -8784.3332   -8704.3061    4513.3718     18996.81    52.134687 
   23300    750.58016   -8787.8637   -8704.1353    4631.0271    18984.192    51.933986 
   23310    754.19952    -8788.097   -8703.9649    4657.1455    18977.148    51.792916 
   23320    740.45848   -8786.4155   -8703.8163    4607.6367    18975.707    51.691695 
   23330    725.86493   -8784.6237   -8703.6524    4675.1856     18979.84    51.616771 
   23340    727.73702   -8784.6082    -8703.428     4674.009    18989.643    51.559337 
   23350    770.16572   -8789.0636   -8703.1505    4031.6825    19005.076    51.527311 
   23360    785.44559   -8790.4823   -8702.8646    2525.6819    19025.334    51.534149 
   23370    762.29559   -8787.6551   -8702.6198    463.61582    19048.654    51.574353 
   23380     724.1106   -8783.1305   -8702.3548   -1693.3548    19072.616    51.632616 
   23390    739.87456   -8784.5229   -8701.9888   -4207.9446    19094.501    51.703492 
   23400    763.57095    -8786.704   -8701.5266   -6376.8705    19111.275    51.783827 
   23410     743.2141   -8783.9459   -8701.0392   -6865.5601    19120.446    51.847543 
   23420    743.06731   -8783.4262   -8700.5359   -6866.4065    19121.248    51.863149 
   23430    765.98495   -8785.4315   -8699.9847   -6823.4184    19113.634    51.820574 
   23440    756.07826   -8783.7623   -8699.4207   -5811.8518     19097.78    51.738553 
   23450    761.39336   -8783.7745   -8698.8399   -4230.1041     19074.92    51.638209 
   23460    780.78074   -8785.3411   -8698.2438   -3318.3704    19046.853    51.537536 
   23470    774.60916   -8784.0862   -8697.6774   -2146.6211    19014.866    51.450703 
   23480    765.97791   -8782.5949   -8697.1489   -277.68035    18980.469    51.370222 
   23490    766.74628   -8782.1468   -8696.6151    1821.4775    18945.915    51.273094 
   23500    779.86383   -8783.0898   -8696.0948    3301.7636    18913.657    51.159866 
   23510    780.37443   -8782.6812   -8695.6292     4041.983    18885.466    51.047239 
   23520    799.36169   -8784.4344   -8695.2644    4422.5915    18862.232    50.951344 
   23530    798.68116   -8784.1284   -8695.0343    4848.3909    18844.368    50.889802 
   23540    764.21439   -8780.1797   -8694.9304    5817.4166    18832.415    50.876536 
   23550    757.32854   -8779.3742    -8694.893    5600.7076    18827.314    50.916159 
   23560    768.12835   -8780.5919   -8694.9061    4309.2939    18828.788    50.994334 
   23570    749.02033   -8778.4982   -8694.9439     3301.467    18835.449    51.088194 
   23580     788.3552   -8782.9699   -8695.0277    1728.6343    18845.933    51.176133 
   23590    776.07313   -8781.7517   -8695.1796    1571.0673      18858.6    51.242339 
   23600    760.32124    -8780.218    -8695.403    2148.5272    18873.173    51.281284 
   23610    799.86677   -8784.9216   -8695.6953       1510.2    18890.081    51.290139 
   23620    772.22023   -8782.1864   -8696.0441    552.65116    18908.727     51.28448 
   23630    768.58931   -8782.1628   -8696.4255   -1681.9238    18927.814    51.277547 
   23640    770.54014   -8782.7647   -8696.8098   -3513.9056    18944.845    51.264193 
   23650    759.26867   -8781.9276     -8697.23   -4140.9299    18957.702     51.23069 
   23660    746.93538   -8780.9956   -8697.6739   -4451.7859    18965.546    51.172619 
   23670    743.87323   -8781.1055   -8698.1254   -4686.1502    18968.002     51.08647 
   23680    754.88047   -8782.7851   -8698.5771   -4433.1173    18964.869    50.965781 
   23690    763.33979   -8784.1863   -8699.0346     -3459.04    18956.529    50.819978 
   23700    748.70848   -8782.9824   -8699.4628   -2069.6189    18944.167    50.672879 
   23710    754.77115   -8784.0377   -8699.8418   -1107.9846    18929.381    50.543508 
   23720    757.17411   -8784.6526   -8700.1887   -123.76008    18913.396    50.425452 
   23730    733.93312   -8782.3415   -8700.4702     1036.357    18897.431    50.301635 
   23740     737.9849   -8782.9971   -8700.6738    1835.7352    18882.808    50.165298 
   23750    732.25369   -8782.4854   -8700.8014    2648.2072    18870.509    50.023031 
   23760    740.37508   -8783.4591   -8700.8691    3026.7032    18861.433    49.889375 
   23770    762.67302   -8785.9935   -8700.9162    2680.6608    18855.967    49.781916 
   23780    765.16363   -8786.3323   -8700.9771    1738.1358    18853.672    49.708083 
   23790    770.34806   -8787.0001   -8701.0666    454.56787    18853.429     49.65988 
   23800     764.3153   -8786.4349   -8701.1744    314.36728    18853.871    49.618677 
   23810    756.95887   -8785.7297   -8701.2898    448.81277      18854.7     49.57535 
   23820    765.41427   -8786.7917   -8701.4086   -28.345964    18856.007    49.529918 
   23830    761.53794   -8786.4973   -8701.5466    -345.2919     18857.29    49.489734 
   23840    732.00483   -8783.3285   -8701.6723   -268.10753    18858.226    49.462072 
   23850    737.55387   -8784.0349   -8701.7597   -1109.3657    18858.737    49.446833 
   23860    745.96265   -8785.0282   -8701.8149   -1827.7213    18857.939    49.443901 
   23870    738.62605   -8784.2569   -8701.8621   -1627.4614    18855.073    49.443999 
   23880     734.5192   -8783.8232   -8701.8864   -1298.6777    18850.328    49.448687 
   23890    760.54307    -8786.738   -8701.8983     -1974.42    18843.967     49.45939 
   23900    744.16694   -8784.9296   -8701.9166    -2177.227    18835.375     49.47123 
   23910    727.06344   -8783.0323   -8701.9273   -2079.9703    18824.283     49.47744 
   23920    744.73286   -8784.9847   -8701.9086   -1665.1339    18810.846    49.474337 
   23930    760.02567   -8786.6499   -8701.8679   -531.82718    18795.626    49.466231 
   23940    771.88499   -8787.9424   -8701.8375    634.17082    18779.855    49.456573 
   23950    772.47812   -8787.9968   -8701.8257    1955.3903    18764.956    49.450217 
   23960    791.25271   -8790.1487   -8701.8833    2707.3124    18752.357    49.452479 
   23970    756.77388   -8786.4269   -8702.0076    3380.6571    18743.032     49.46619 
   23980     743.3429   -8785.0874   -8702.1663    2369.9251    18737.571    49.486577 
   23990    755.85403   -8786.6546   -8702.3379    461.13533    18734.841    49.501605 
   24000     754.0095   -8786.6502   -8702.5393   -517.30424    18732.758    49.500685 
   24010    745.62495    -8785.943   -8702.7675   -239.24367    18730.227    49.488287 
   24020    733.00825   -8784.7669   -8702.9988    155.22929    18727.431    49.468239 
   24030    734.86449    -8785.185   -8703.2097    264.08424    18724.793    49.443486 
   24040    757.21125   -8787.8881   -8703.4201    4.8240605    18722.442     49.42548 
   24050    759.32401   -8788.3616   -8703.6579    115.05226    18720.129    49.423101 
   24060     765.2299    -8789.307   -8703.9445    1023.5351     18718.04    49.429348 
   24070    758.34665   -8788.8844   -8704.2896    1991.1731    18717.157    49.425587 
   24080    745.70796   -8787.8564   -8704.6716    1849.0578    18718.492    49.401646 
   24090     757.2427   -8789.5631   -8705.0915    474.24022    18721.855    49.363055 
   24100     747.8628   -8788.9714   -8705.5462   -563.31986    18725.801    49.331436 
   24110    735.68515   -8788.0964   -8706.0296   -750.21684    18729.155    49.334305 
   24120    733.15027   -8788.2911   -8706.5071    -540.9957    18731.673    49.385173 
   24130    736.03579   -8789.0835   -8706.9776   -147.66558     18733.59    49.472472 
   24140    710.73897   -8786.6967   -8707.4127    976.21752    18735.439    49.577104 
   24150    715.26362    -8787.573   -8707.7843    1543.3971    18738.383    49.693036 
   24160    735.35288    -8790.139   -8708.1092    1410.7996     18743.06    49.811738 
   24170    724.59602   -8789.2281   -8708.3983    2020.4306      18749.5    49.920492 
   24180    728.48771   -8789.9199    -8708.656    2522.8077      18758.3    50.019606 
   24190    705.80766     -8787.59   -8708.8561     2850.955    18770.076    50.121913 
   24200    704.72445   -8787.5937   -8708.9806    1817.4228    18785.093    50.233496 
   24210    721.07136   -8789.4376    -8709.001   -613.36407     18802.11    50.344325 
   24220    729.31007   -8790.2831   -8708.9275   -2729.6941     18818.43    50.434906 
   24230    733.02141   -8790.5544   -8708.7848   -3203.5248    18831.703    50.495457 
   24240     727.2635   -8789.7199   -8708.5926    -2270.415    18841.325    50.528867 
   24250    725.04212   -8789.2156    -8708.336   -1759.0593    18848.163    50.542613 
   24260    743.82515   -8790.9721   -8707.9973   -1408.2874    18852.916    50.543735 
   24270    740.10036   -8790.1394   -8707.5801   -1156.5664     18855.98    50.533755 
   24280    723.06333   -8787.7349   -8707.0761    -678.4654    18857.714    50.509263 
   24290     742.9314    -8789.319   -8706.4439   -885.33303    18858.564    50.468872 
   24300    768.02684   -8791.3567   -8705.6822   -1065.9838    18858.381    50.423565 
   24310    778.13771   -8791.6764    -8704.874   -888.79428    18856.958    50.389765 
   24320    754.41819   -8788.2463   -8704.0898   -114.79441    18854.574    50.372623 
   24330    741.44593   -8786.0594     -8703.35   -85.732629    18851.979     50.37693 
   24340    749.38723   -8786.2362   -8702.6409   -807.27351    18849.195    50.404809 
   24350    742.20436   -8784.7909   -8701.9969   -1230.3863    18845.496    50.454844 
   24360    738.56438   -8783.8454   -8701.4574   -1353.7098    18840.327     50.52177 
   24370    722.58522   -8781.5939   -8700.9884    168.81833    18833.745    50.599082 
   24380    734.41268   -8782.4767   -8700.5518    1199.1087    18827.291    50.691407 
   24390    766.57064   -8785.6661    -8700.154    1258.0696    18822.143    50.813695 
   24400    756.76606   -8784.2485   -8699.8301    1776.0686    18818.555    50.968079 
   24410    755.69654   -8783.8728   -8699.5737    2210.6992    18817.063    51.141666 
   24420    785.52939   -8786.9954   -8699.3685    2351.5763    18818.165    51.329645 
   24430    785.11562   -8786.8172   -8699.2364    2731.4143    18822.111    51.529387 
   24440     767.8981    -8784.853   -8699.1929    3072.1431    18829.305    51.735543 
   24450    756.79761   -8783.6246   -8699.2027    2662.7252    18840.059     51.94257 
   24460    772.68179   -8785.4286   -8699.2347    1324.5626    18853.837    52.139821 
   24470    767.96053   -8784.9558   -8699.2887    402.64776    18869.199    52.321791 
   24480    725.30612    -8780.254    -8699.345   -154.06831    18885.048    52.499508 
   24490    739.02041   -8781.7992   -8699.3604   -1193.1101    18900.613    52.672053 
   24500     772.4233   -8785.5192   -8699.3542   -2434.8245    18914.669    52.818539 
   24510    769.11108   -8785.1834   -8699.3879   -2891.6594    18925.852    52.925182 
   24520    777.12633   -8786.1855   -8699.4959   -2622.5603     18933.59    52.995641 
   24530    756.20069   -8784.0311   -8699.6758   -896.12282    18938.302    53.026047 
   24540    728.51875   -8781.1356   -8699.8682     805.4408    18941.929    53.005652 
   24550    753.15112   -8784.0588   -8700.0437    1193.9838    18946.381    52.946158 
   24560    763.71484   -8785.4208   -8700.2272    1807.7057    18952.301    52.880931 
   24570    764.56188   -8785.7407   -8700.4527    2517.7084    18960.399    52.845893 
   24580    785.20145   -8788.3298   -8700.7394    2826.3377    18971.434      52.8627 
   24590    777.08509   -8787.7922   -8701.1072    3333.7702    18985.881    52.929986 
   24600    747.85964   -8784.9612   -8701.5363     2952.431    19004.211    53.036065 
   24610    738.63994   -8784.3645   -8701.9681    1370.9928    19025.922    53.163471 
   24620    746.32502   -8785.6311   -8702.3774   -492.67864    19049.208    53.294413 
   24630    729.20937   -8784.1096   -8702.7652   -1747.6412    19071.903    53.418091 
   24640    726.18586   -8784.1135   -8703.1064   -2984.8739    19092.415    53.533732 
   24650    760.40553   -8788.2472   -8703.4228   -4439.0969    19109.162    53.650254 
   24660    752.56645   -8787.7172   -8703.7673   -4489.9245    19120.554    53.771183 
   24670    727.71181   -8785.3052   -8704.1279   -3290.8888    19126.542     53.89694 
   24680    735.35059   -8786.4904   -8704.4609   -2276.4462    19128.452    54.026481 
   24690    747.12529   -8788.1266   -8704.7837   -1816.5102    19127.501    54.165795 
   24700    740.42409   -8787.7045   -8705.1091   -1534.5864    19124.355    54.321223 
   24710    750.82941   -8789.2004   -8705.4443   -2135.7764    19119.253    54.482509 
   24720     735.7262   -8787.8406   -8705.7692   -2060.2954    19111.696    54.624311 
   24730    736.86633   -8788.2591   -8706.0605   -2179.3698    19101.643    54.729114 
   24740    753.63122   -8790.4018   -8706.3331   -1830.7815    19089.062    54.808807 
   24750    725.37668   -8787.4853   -8706.5685    273.29115    19074.588    54.888024 
   24760    725.43347   -8787.6792    -8706.756    1718.7316    19060.491    54.977306 
   24770    743.99201   -8789.9234     -8706.93    2192.5171    19048.516    55.062175 
   24780    742.72442     -8789.99    -8707.138     2814.066    19039.346    55.116336 
   24790    726.08657   -8788.3692   -8707.3732    3737.7295    19033.727    55.132295 
   24800    739.94724   -8790.1653   -8707.6231    4423.6267    19032.669     55.12026 
   24810    740.20612   -8790.4896   -8707.9185    4901.5947    19036.943    55.100072 
   24820    708.20545   -8787.2341   -8708.2328    5093.5229    19047.106    55.085852 
   24830    749.95805   -8792.2412   -8708.5822    3889.6668     19063.18    55.084235 
   24840    730.18537    -8790.421   -8708.9677    3227.3307     19083.88    55.091406 
   24850    706.74616   -8788.2153   -8709.3767    3125.3702    19108.363    55.108449 
   24860    699.13734   -8787.7373   -8709.7475    2179.3984    19136.332    55.143281 
   24870    695.93727   -8787.6836   -8710.0508    154.26337    19166.549    55.194315 
   24880    713.75044   -8789.8901   -8710.2701   -2492.6546    19196.537    55.246554 
   24890    726.14099   -8791.4215   -8710.4193   -4354.4052    19223.201    55.289434 
   24900    709.59842   -8789.6995   -8710.5428    -4634.423    19244.328    55.313415 
   24910    702.87108    -8789.033   -8710.6267   -4659.0244    19259.487    55.308819 
   24920    717.07078   -8790.6363    -8710.646   -5392.0881    19268.597    55.279156 
   24930    727.01431   -8791.7111   -8710.6115   -5308.5988    19271.011     55.23695 
   24940    716.97827   -8790.5022   -8710.5222   -4056.4814    19266.966    55.194551 
   24950    708.58142   -8789.3893    -8710.346    -2838.368    19257.971    55.152694 
   24960     717.6871   -8790.1159   -8710.0569   -1710.2465    19245.633    55.107227 
   24970    710.41975   -8788.8988   -8709.6504   -394.89649    19231.429    55.067944 
   24980    704.26811    -8787.688   -8709.1258     970.9907    19217.022    55.052508 
   24990    706.66821   -8787.3062   -8708.4763     1484.331        19204    55.075251 
   25000    741.16409   -8790.4148   -8707.7368    947.38792    19192.973    55.137692 
Loop time of 14552.3 on 16 procs for 20000 steps with 864 atoms

Performance: 0.119 ns/day, 202.115 hours/ns, 1.374 timesteps/s
95.4% CPU use with 16 MPI tasks x 1 OpenMP threads

MPI task timing breakdown:
Section |  min time  |  avg time  |  max time  |%varavg| %total
---------------------------------------------------------------
Pair    | 3954.1     | 8001.4     | 14285      |4186.6 | 54.98
Bond    | 0.0016994  | 0.0043354  | 0.010415   |   4.0 |  0.00
Neigh   | 0.17519    | 0.35931    | 0.67535    |  32.4 |  0.00
Comm    | 192.21     | 4600.2     | 9097.7     |5054.8 | 31.61
Output  | 1.4114     | 1.429      | 1.6734     |   5.3 |  0.01
Modify  | 73.04      | 1948.8     | 8003.3     |5742.6 | 13.39
Other   |            | 0.1036     |            |       |  0.00

Nlocal:        54.0000 ave          96 max          21 min
Histogram: 2 3 3 2 0 0 2 0 2 2
Nghost:        515.000 ave         700 max         297 min
Histogram: 1 3 0 2 2 2 0 2 0 4
Neighs:         0.00000 ave           0 max           0 min
Histogram: 16 0 0 0 0 0 0 0 0 0
FullNghs:      2847.12 ave        6574 max         674 min
Histogram: 6 4 0 0 0 0 2 0 2 2

Total # of neighbors = 45554
Ave neighs/atom = 52.724537
Ave special neighs/atom = 0.0000000
Neighbor list builds = 2000
Dangerous builds = 2000
unfix   3
                
Total wall time: 4:59:49
