LiKCl-full/0.70x-LiKCl-full/initial-solid.data (written by ASE) 

432 	 atoms 
3  atom types
0.0       17.77167967029887  xlo xhi
0.0       17.77167967029887  ylo yhi
0.0      35.543359340597739  zlo zhi


Masses 

1 35.45
2 39.0983
3 6.94


Atoms 

     1   0   3   0.0                       0                       0                       0
     2   0   2   0.0 -2.5115460394772983e-33      2.9619466117164786      2.9619466117164786
     3   0   2   0.0      2.9619466117164786  1.8136692186419666e-16      2.9619466117164786
     4   0   2   0.0      2.9619466117164786      2.9619466117164786                       0
     5   0   1   0.0      2.9619466117164786  5.3829643108654055e-49                       0
     6   0   1   0.0      2.9619466117164786      2.9619466117164786      2.9619466117164786
     7   0   1   0.0  1.8136692186419669e-16  1.8136692186419669e-16      2.9619466117164786
     8   0   1   0.0 -1.8136692186419669e-16      2.9619466117164786  2.4651903288156619e-32
     9   0   2   0.0  3.6273384372839337e-16  3.6273384372839337e-16      5.9238932234329571
    10   0   3   0.0  3.6273384372839332e-16       2.961946611716479      8.8858398351494348
    11   0   2   0.0       2.961946611716479  5.4410076559259001e-16      8.8858398351494348
    12   0   3   0.0       2.961946611716479       2.961946611716479      5.9238932234329571
    13   0   1   0.0       2.961946611716479  3.6273384372839337e-16      5.9238932234329571
    14   0   1   0.0       2.961946611716479       2.961946611716479      8.8858398351494365
    15   0   1   0.0  5.4410076559259001e-16  5.4410076559259001e-16      8.8858398351494348
    16   0   1   0.0  1.8136692186419669e-16       2.961946611716479      5.9238932234329571
    17   0   3   0.0  7.2546768745678675e-16  7.2546768745678675e-16      11.847786446865914
    18   0   2   0.0  7.2546768745678665e-16      2.9619466117164794      14.809733058582392
    19   0   2   0.0      2.9619466117164794  9.0683460932098338e-16      14.809733058582392
    20   0   2   0.0      2.9619466117164794      2.9619466117164794      11.847786446865914
    21   0   1   0.0      2.9619466117164794  7.2546768745678675e-16      11.847786446865914
    22   0   1   0.0      2.9619466117164794      2.9619466117164794      14.809733058582394
    23   0   1   0.0  9.0683460932098338e-16  9.0683460932098338e-16      14.809733058582392
    24   0   1   0.0  5.4410076559259001e-16      2.9619466117164794      11.847786446865914
    25   0   2   0.0    1.08820153118518e-15    1.08820153118518e-15       17.77167967029887
    26   0   3   0.0  1.0882015311851802e-15      2.9619466117164799      20.733626282015351
    27   0   3   0.0      2.9619466117164799  1.2695684530493769e-15      20.733626282015351
    28   0   3   0.0      2.9619466117164794      2.9619466117164794       17.77167967029887
    29   0   1   0.0      2.9619466117164794    1.08820153118518e-15       17.77167967029887
    30   0   1   0.0      2.9619466117164799      2.9619466117164799      20.733626282015351
    31   0   1   0.0  1.2695684530493769e-15  1.2695684530493769e-15      20.733626282015351
    32   0   1   0.0  9.0683460932098338e-16      2.9619466117164794       17.77167967029887
    33   0   2   0.0  1.4509353749135735e-15  1.4509353749135735e-15      23.695572893731828
    34   0   3   0.0  1.4509353749135735e-15      2.9619466117164803      26.657519505448306
    35   0   3   0.0      2.9619466117164803  1.6323022967777701e-15      26.657519505448306
    36   0   2   0.0      2.9619466117164799      2.9619466117164799      23.695572893731828
    37   0   1   0.0      2.9619466117164799  1.4509353749135735e-15      23.695572893731828
    38   0   1   0.0      2.9619466117164803      2.9619466117164803      26.657519505448306
    39   0   1   0.0  1.6323022967777701e-15  1.6323022967777701e-15      26.657519505448306
    40   0   1   0.0  1.2695684530493769e-15      2.9619466117164799      23.695572893731828
    41   0   2   0.0  1.8136692186419668e-15  1.8136692186419668e-15      29.619466117164784
    42   0   2   0.0  1.8136692186419668e-15      2.9619466117164803      32.581412728881261
    43   0   2   0.0      2.9619466117164803  1.9950361405061632e-15      32.581412728881261
    44   0   2   0.0      2.9619466117164803      2.9619466117164803      29.619466117164784
    45   0   1   0.0      2.9619466117164803  1.8136692186419668e-15      29.619466117164784
    46   0   1   0.0      2.9619466117164803      2.9619466117164803      32.581412728881261
    47   0   1   0.0  1.9950361405061632e-15  1.9950361405061632e-15      32.581412728881261
    48   0   1   0.0  1.6323022967777701e-15      2.9619466117164803      29.619466117164784
    49   0   2   0.0 -3.6273384372839337e-16      5.9238932234329571  4.9303806576313238e-32
    50   0   2   0.0 -3.6273384372839327e-16      8.8858398351494348      2.9619466117164786
    51   0   2   0.0      2.9619466117164781      5.9238932234329571      2.9619466117164786
    52   0   3   0.0      2.9619466117164781      8.8858398351494348  9.8607613152626476e-32
    53   0   1   0.0      2.9619466117164781      5.9238932234329571                       0
    54   0   1   0.0      2.9619466117164781      8.8858398351494348      2.9619466117164786
    55   0   1   0.0 -1.8136692186419666e-16      5.9238932234329571      2.9619466117164786
    56   0   1   0.0 -5.4410076559259001e-16      8.8858398351494348                       0
    57   0   2   0.0 -5.0230920789545966e-33      5.9238932234329571      5.9238932234329571
    58   0   2   0.0 -1.2616074479994299e-32      8.8858398351494348      8.8858398351494348
    59   0   3   0.0      2.9619466117164786       5.923893223432958      8.8858398351494348
    60   0   2   0.0      2.9619466117164786      8.8858398351494348      5.9238932234329562
    61   0   1   0.0      2.9619466117164786      5.9238932234329571      5.9238932234329562
    62   0   1   0.0      2.9619466117164786      8.8858398351494348      8.8858398351494365
    63   0   1   0.0  1.8136692186419661e-16       5.923893223432958      8.8858398351494348
    64   0   1   0.0 -1.8136692186419664e-16      8.8858398351494348      5.9238932234329562
    65   0   2   0.0  3.6273384372839337e-16       5.923893223432958      11.847786446865914
    66   0   2   0.0  3.6273384372839337e-16      8.8858398351494365      14.809733058582392
    67   0   2   0.0       2.961946611716479       5.923893223432958      14.809733058582392
    68   0   2   0.0       2.961946611716479      8.8858398351494348      11.847786446865914
    69   0   1   0.0       2.961946611716479       5.923893223432958      11.847786446865914
    70   0   1   0.0       2.961946611716479      8.8858398351494365      14.809733058582394
    71   0   1   0.0  5.4410076559259001e-16       5.923893223432958      14.809733058582392
    72   0   1   0.0  1.8136692186419674e-16      8.8858398351494348      11.847786446865914
    73   0   3   0.0  7.2546768745678665e-16       5.923893223432958       17.77167967029887
    74   0   3   0.0  7.2546768745678685e-16      8.8858398351494365      20.733626282015351
    75   0   3   0.0      2.9619466117164794       5.923893223432958      20.733626282015351
    76   0   2   0.0       2.961946611716479      8.8858398351494365       17.77167967029887
    77   0   1   0.0       2.961946611716479       5.923893223432958       17.77167967029887
    78   0   1   0.0      2.9619466117164794      8.8858398351494365      20.733626282015351
    79   0   1   0.0  9.0683460932098338e-16       5.923893223432958      20.733626282015351
    80   0   1   0.0  5.4410076559259001e-16      8.8858398351494365       17.77167967029887
    81   0   2   0.0    1.08820153118518e-15      5.9238932234329589      23.695572893731828
    82   0   2   0.0    1.08820153118518e-15      8.8858398351494365      26.657519505448306
    83   0   2   0.0      2.9619466117164799      5.9238932234329589      26.657519505448306
    84   0   2   0.0      2.9619466117164794      8.8858398351494365      23.695572893731828
    85   0   1   0.0      2.9619466117164794      5.9238932234329589      23.695572893731828
    86   0   1   0.0      2.9619466117164799      8.8858398351494365      26.657519505448306
    87   0   1   0.0  1.2695684530493767e-15      5.9238932234329589      26.657519505448306
    88   0   1   0.0  9.0683460932098338e-16      8.8858398351494365      23.695572893731828
    89   0   3   0.0  1.4509353749135733e-15      5.9238932234329589      29.619466117164784
    90   0   2   0.0  1.4509353749135733e-15      8.8858398351494365      32.581412728881261
    91   0   2   0.0      2.9619466117164799      5.9238932234329589      32.581412728881261
    92   0   2   0.0      2.9619466117164799      8.8858398351494365      29.619466117164784
    93   0   1   0.0      2.9619466117164799      5.9238932234329589      29.619466117164784
    94   0   1   0.0      2.9619466117164799      8.8858398351494365      32.581412728881261
    95   0   1   0.0  1.6323022967777699e-15      5.9238932234329589      32.581412728881261
    96   0   1   0.0  1.2695684530493767e-15      8.8858398351494365      29.619466117164784
    97   0   3   0.0 -7.2546768745678675e-16      11.847786446865914  9.8607613152626476e-32
    98   0   2   0.0 -7.2546768745678665e-16      14.809733058582392      2.9619466117164781
    99   0   2   0.0      2.9619466117164781      11.847786446865914      2.9619466117164781
   100   0   3   0.0      2.9619466117164781      14.809733058582392                       0
   101   0   1   0.0      2.9619466117164781      11.847786446865914                       0
   102   0   1   0.0      2.9619466117164781      14.809733058582392      2.9619466117164786
   103   0   1   0.0 -5.4410076559259001e-16      11.847786446865914      2.9619466117164781
   104   0   1   0.0 -9.0683460932098338e-16      14.809733058582392                       0
   105   0   2   0.0 -3.6273384372839332e-16      11.847786446865914      5.9238932234329571
   106   0   3   0.0 -3.6273384372839327e-16      14.809733058582392      8.8858398351494348
   107   0   2   0.0      2.9619466117164786      11.847786446865914      8.8858398351494348
   108   0   2   0.0      2.9619466117164786      14.809733058582392      5.9238932234329571
   109   0   1   0.0      2.9619466117164786      11.847786446865914      5.9238932234329571
   110   0   1   0.0      2.9619466117164786      14.809733058582392      8.8858398351494348
   111   0   1   0.0 -1.8136692186419664e-16      11.847786446865914      8.8858398351494365
   112   0   1   0.0 -5.4410076559258991e-16      14.809733058582392      5.9238932234329571
   113   0   3   0.0 -1.0046184157909193e-32      11.847786446865914      11.847786446865914
   114   0   2   0.0 -1.7639166558948896e-32      14.809733058582394       14.80973305858239
   115   0   3   0.0       2.961946611716479      11.847786446865916       14.80973305858239
   116   0   2   0.0       2.961946611716479      14.809733058582392      11.847786446865912
   117   0   1   0.0       2.961946611716479      11.847786446865914      11.847786446865912
   118   0   1   0.0       2.961946611716479      14.809733058582394      14.809733058582392
   119   0   1   0.0  1.8136692186419661e-16      11.847786446865916      14.809733058582392
   120   0   1   0.0 -1.8136692186419664e-16      14.809733058582392      11.847786446865912
   121   0   2   0.0  3.6273384372839323e-16      11.847786446865916       17.77167967029887
   122   0   3   0.0  3.6273384372839347e-16      14.809733058582394      20.733626282015351
   123   0   2   0.0      2.9619466117164794      11.847786446865916      20.733626282015351
   124   0   3   0.0       2.961946611716479      14.809733058582394       17.77167967029887
   125   0   1   0.0       2.961946611716479      11.847786446865916       17.77167967029887
   126   0   1   0.0      2.9619466117164794      14.809733058582394      20.733626282015351
   127   0   1   0.0  5.4410076559259011e-16      11.847786446865916      20.733626282015351
   128   0   1   0.0  1.8136692186419661e-16      14.809733058582394       17.77167967029887
   129   0   2   0.0  7.2546768745678675e-16      11.847786446865916      23.695572893731828
   130   0   3   0.0  7.2546768745678675e-16      14.809733058582394      26.657519505448306
   131   0   2   0.0      2.9619466117164799      11.847786446865916      26.657519505448306
   132   0   3   0.0      2.9619466117164794      14.809733058582394      23.695572893731828
   133   0   1   0.0      2.9619466117164794      11.847786446865916      23.695572893731828
   134   0   1   0.0      2.9619466117164799      14.809733058582394      26.657519505448306
   135   0   1   0.0  9.0683460932098338e-16      11.847786446865916      26.657519505448306
   136   0   1   0.0  5.4410076559259011e-16      14.809733058582394      23.695572893731828
   137   0   2   0.0    1.08820153118518e-15      11.847786446865916      29.619466117164784
   138   0   3   0.0    1.08820153118518e-15      14.809733058582394      32.581412728881261
   139   0   2   0.0      2.9619466117164799      11.847786446865916      32.581412728881261
   140   0   2   0.0      2.9619466117164799      14.809733058582394      29.619466117164784
   141   0   1   0.0      2.9619466117164799      11.847786446865916      29.619466117164784
   142   0   1   0.0      2.9619466117164799      14.809733058582394      32.581412728881261
   143   0   1   0.0  1.2695684530493767e-15      11.847786446865916      32.581412728881261
   144   0   1   0.0  9.0683460932098338e-16      14.809733058582394      29.619466117164784
   145   0   2   0.0      5.9238932234329571  1.0765928621730811e-48                       0
   146   0   2   0.0      5.9238932234329571      2.9619466117164786      2.9619466117164786
   147   0   2   0.0      8.8858398351494348  1.8136692186419669e-16      2.9619466117164786
   148   0   3   0.0      8.8858398351494348      2.9619466117164786  9.8607613152626476e-32
   149   0   1   0.0      8.8858398351494348  2.7012684424881227e-48                       0
   150   0   1   0.0      8.8858398351494348      2.9619466117164786      2.9619466117164786
   151   0   1   0.0      5.9238932234329571  1.8136692186419669e-16      2.9619466117164786
   152   0   1   0.0      5.9238932234329571      2.9619466117164786                       0
   153   0   2   0.0      5.9238932234329571  3.6273384372839332e-16      5.9238932234329571
   154   0   2   0.0       5.923893223432958       2.961946611716479      8.8858398351494348
   155   0   3   0.0      8.8858398351494348  5.4410076559259001e-16      8.8858398351494348
   156   0   3   0.0      8.8858398351494348       2.961946611716479      5.9238932234329562
   157   0   1   0.0      8.8858398351494348  3.6273384372839332e-16      5.9238932234329562
   158   0   1   0.0      8.8858398351494348       2.961946611716479      8.8858398351494365
   159   0   1   0.0       5.923893223432958  5.4410076559259001e-16      8.8858398351494348
   160   0   1   0.0      5.9238932234329571       2.961946611716479      5.9238932234329562
   161   0   2   0.0       5.923893223432958  7.2546768745678675e-16      11.847786446865914
   162   0   3   0.0       5.923893223432958      2.9619466117164794      14.809733058582392
   163   0   2   0.0      8.8858398351494365  9.0683460932098338e-16      14.809733058582392
   164   0   3   0.0      8.8858398351494348      2.9619466117164794      11.847786446865914
   165   0   1   0.0      8.8858398351494348  7.2546768745678675e-16      11.847786446865914
   166   0   1   0.0      8.8858398351494365      2.9619466117164794      14.809733058582394
   167   0   1   0.0       5.923893223432958  9.0683460932098338e-16      14.809733058582392
   168   0   1   0.0       5.923893223432958      2.9619466117164794      11.847786446865914
   169   0   2   0.0       5.923893223432958    1.08820153118518e-15       17.77167967029887
   170   0   2   0.0       5.923893223432958      2.9619466117164799      20.733626282015351
   171   0   2   0.0      8.8858398351494365  1.2695684530493769e-15      20.733626282015351
   172   0   2   0.0      8.8858398351494365      2.9619466117164794       17.77167967029887
   173   0   1   0.0      8.8858398351494365    1.08820153118518e-15       17.77167967029887
   174   0   1   0.0      8.8858398351494365      2.9619466117164799      20.733626282015351
   175   0   1   0.0       5.923893223432958  1.2695684530493769e-15      20.733626282015351
   176   0   1   0.0       5.923893223432958      2.9619466117164794       17.77167967029887
   177   0   2   0.0      5.9238932234329589  1.4509353749135735e-15      23.695572893731828
   178   0   3   0.0      5.9238932234329589      2.9619466117164803      26.657519505448306
   179   0   2   0.0      8.8858398351494365  1.6323022967777701e-15      26.657519505448306
   180   0   2   0.0      8.8858398351494365      2.9619466117164799      23.695572893731828
   181   0   1   0.0      8.8858398351494365  1.4509353749135735e-15      23.695572893731828
   182   0   1   0.0      8.8858398351494365      2.9619466117164803      26.657519505448306
   183   0   1   0.0      5.9238932234329589  1.6323022967777701e-15      26.657519505448306
   184   0   1   0.0      5.9238932234329589      2.9619466117164799      23.695572893731828
   185   0   2   0.0      5.9238932234329589  1.8136692186419668e-15      29.619466117164784
   186   0   2   0.0      5.9238932234329589      2.9619466117164803      32.581412728881261
   187   0   2   0.0      8.8858398351494365  1.9950361405061632e-15      32.581412728881261
   188   0   2   0.0      8.8858398351494365      2.9619466117164803      29.619466117164784
   189   0   1   0.0      8.8858398351494365  1.8136692186419668e-15      29.619466117164784
   190   0   1   0.0      8.8858398351494365      2.9619466117164803      32.581412728881261
   191   0   1   0.0      5.9238932234329589  1.9950361405061632e-15      32.581412728881261
   192   0   1   0.0      5.9238932234329589      2.9619466117164803      29.619466117164784
   193   0   2   0.0      5.9238932234329571      5.9238932234329571                       0
   194   0   3   0.0      5.9238932234329571      8.8858398351494348      2.9619466117164781
   195   0   3   0.0      8.8858398351494348      5.9238932234329571      2.9619466117164781
   196   0   3   0.0      8.8858398351494348      8.8858398351494348                       0
   197   0   1   0.0      8.8858398351494348      5.9238932234329571                       0
   198   0   1   0.0      8.8858398351494348      8.8858398351494348      2.9619466117164786
   199   0   1   0.0      5.9238932234329571      5.9238932234329571      2.9619466117164781
   200   0   1   0.0      5.9238932234329571      8.8858398351494348                       0
   201   0   2   0.0      5.9238932234329571      5.9238932234329571      5.9238932234329571
   202   0   3   0.0       5.923893223432958      8.8858398351494348      8.8858398351494348
   203   0   2   0.0      8.8858398351494348       5.923893223432958      8.8858398351494348
   204   0   3   0.0      8.8858398351494348      8.8858398351494348      5.9238932234329571
   205   0   1   0.0      8.8858398351494348      5.9238932234329571      5.9238932234329571
   206   0   1   0.0      8.8858398351494348      8.8858398351494348      8.8858398351494348
   207   0   1   0.0       5.923893223432958       5.923893223432958      8.8858398351494365
   208   0   1   0.0      5.9238932234329571      8.8858398351494348      5.9238932234329571
   209   0   3   0.0       5.923893223432958       5.923893223432958      11.847786446865914
   210   0   3   0.0       5.923893223432958      8.8858398351494365       14.80973305858239
   211   0   3   0.0      8.8858398351494365       5.923893223432958       14.80973305858239
   212   0   3   0.0      8.8858398351494348      8.8858398351494348      11.847786446865912
   213   0   1   0.0      8.8858398351494348       5.923893223432958      11.847786446865912
   214   0   1   0.0      8.8858398351494365      8.8858398351494365      14.809733058582392
   215   0   1   0.0       5.923893223432958       5.923893223432958      14.809733058582392
   216   0   1   0.0       5.923893223432958      8.8858398351494348      11.847786446865912
   217   0   2   0.0       5.923893223432958       5.923893223432958       17.77167967029887
   218   0   3   0.0       5.923893223432958      8.8858398351494365      20.733626282015351
   219   0   2   0.0      8.8858398351494365       5.923893223432958      20.733626282015351
   220   0   2   0.0      8.8858398351494365      8.8858398351494365       17.77167967029887
   221   0   1   0.0      8.8858398351494365       5.923893223432958       17.77167967029887
   222   0   1   0.0      8.8858398351494365      8.8858398351494365      20.733626282015351
   223   0   1   0.0       5.923893223432958       5.923893223432958      20.733626282015351
   224   0   1   0.0       5.923893223432958      8.8858398351494365       17.77167967029887
   225   0   2   0.0      5.9238932234329589      5.9238932234329589      23.695572893731828
   226   0   2   0.0      5.9238932234329589      8.8858398351494365      26.657519505448306
   227   0   2   0.0      8.8858398351494365      5.9238932234329589      26.657519505448306
   228   0   2   0.0      8.8858398351494365      8.8858398351494365      23.695572893731828
   229   0   1   0.0      8.8858398351494365      5.9238932234329589      23.695572893731828
   230   0   1   0.0      8.8858398351494365      8.8858398351494365      26.657519505448306
   231   0   1   0.0      5.9238932234329589      5.9238932234329589      26.657519505448306
   232   0   1   0.0      5.9238932234329589      8.8858398351494365      23.695572893731828
   233   0   3   0.0      5.9238932234329589      5.9238932234329589      29.619466117164784
   234   0   3   0.0      5.9238932234329589      8.8858398351494365      32.581412728881261
   235   0   3   0.0      8.8858398351494365      5.9238932234329589      32.581412728881261
   236   0   3   0.0      8.8858398351494365      8.8858398351494365      29.619466117164784
   237   0   1   0.0      8.8858398351494365      5.9238932234329589      29.619466117164784
   238   0   1   0.0      8.8858398351494365      8.8858398351494365      32.581412728881261
   239   0   1   0.0      5.9238932234329589      5.9238932234329589      32.581412728881261
   240   0   1   0.0      5.9238932234329589      8.8858398351494365      29.619466117164784
   241   0   3   0.0      5.9238932234329562      11.847786446865914                       0
   242   0   2   0.0      5.9238932234329562      14.809733058582392      2.9619466117164781
   243   0   2   0.0      8.8858398351494348      11.847786446865914      2.9619466117164781
   244   0   2   0.0      8.8858398351494348      14.809733058582392  1.9721522630525295e-31
   245   0   1   0.0      8.8858398351494348      11.847786446865914                       0
   246   0   1   0.0      8.8858398351494348      14.809733058582392      2.9619466117164786
   247   0   1   0.0      5.9238932234329562      11.847786446865914      2.9619466117164786
   248   0   1   0.0      5.9238932234329562      14.809733058582392                       0
   249   0   2   0.0      5.9238932234329562      11.847786446865914      5.9238932234329571
   250   0   2   0.0      5.9238932234329571      14.809733058582392      8.8858398351494348
   251   0   3   0.0      8.8858398351494348      11.847786446865914      8.8858398351494348
   252   0   3   0.0      8.8858398351494348      14.809733058582392      5.9238932234329562
   253   0   1   0.0      8.8858398351494348      11.847786446865914      5.9238932234329571
   254   0   1   0.0      8.8858398351494348      14.809733058582392      8.8858398351494348
   255   0   1   0.0      5.9238932234329571      11.847786446865914      8.8858398351494348
   256   0   1   0.0      5.9238932234329562      14.809733058582392      5.9238932234329571
   257   0   3   0.0      5.9238932234329571      11.847786446865914      11.847786446865914
   258   0   2   0.0      5.9238932234329571      14.809733058582394      14.809733058582394
   259   0   2   0.0      8.8858398351494365      11.847786446865916      14.809733058582394
   260   0   2   0.0      8.8858398351494348      14.809733058582392      11.847786446865914
   261   0   1   0.0      8.8858398351494348      11.847786446865914      11.847786446865914
   262   0   1   0.0      8.8858398351494365      14.809733058582394      14.809733058582394
   263   0   1   0.0      5.9238932234329571      11.847786446865916      14.809733058582394
   264   0   1   0.0      5.9238932234329571      14.809733058582392      11.847786446865914
   265   0   2   0.0      5.9238932234329571      11.847786446865916      17.771679670298873
   266   0   2   0.0      5.9238932234329571      14.809733058582394      20.733626282015351
   267   0   2   0.0      8.8858398351494365      11.847786446865916      20.733626282015351
   268   0   2   0.0      8.8858398351494365      14.809733058582394      17.771679670298873
   269   0   1   0.0      8.8858398351494365      11.847786446865916      17.771679670298873
   270   0   1   0.0      8.8858398351494365      14.809733058582394      20.733626282015351
   271   0   1   0.0      5.9238932234329571      11.847786446865916      20.733626282015351
   272   0   1   0.0      5.9238932234329571      14.809733058582394      17.771679670298873
   273   0   2   0.0       5.923893223432958      11.847786446865916      23.695572893731828
   274   0   3   0.0       5.923893223432958      14.809733058582394      26.657519505448306
   275   0   3   0.0      8.8858398351494365      11.847786446865916      26.657519505448306
   276   0   3   0.0      8.8858398351494365      14.809733058582394      23.695572893731828
   277   0   1   0.0      8.8858398351494365      11.847786446865916      23.695572893731828
   278   0   1   0.0      8.8858398351494365      14.809733058582394      26.657519505448306
   279   0   1   0.0       5.923893223432958      11.847786446865916      26.657519505448306
   280   0   1   0.0       5.923893223432958      14.809733058582394      23.695572893731828
   281   0   2   0.0       5.923893223432958      11.847786446865916      29.619466117164784
   282   0   2   0.0       5.923893223432958      14.809733058582394      32.581412728881261
   283   0   2   0.0      8.8858398351494365      11.847786446865916      32.581412728881261
   284   0   2   0.0      8.8858398351494365      14.809733058582394      29.619466117164784
   285   0   1   0.0      8.8858398351494365      11.847786446865916      29.619466117164784
   286   0   1   0.0      8.8858398351494365      14.809733058582394      32.581412728881261
   287   0   1   0.0       5.923893223432958      11.847786446865916      32.581412728881261
   288   0   1   0.0       5.923893223432958      14.809733058582394      29.619466117164784
   289   0   2   0.0      11.847786446865914  2.1531857243461622e-48                       0
   290   0   2   0.0      11.847786446865914      2.9619466117164786      2.9619466117164781
   291   0   3   0.0      14.809733058582392  1.8136692186419666e-16      2.9619466117164781
   292   0   2   0.0      14.809733058582392      2.9619466117164786                       0
   293   0   1   0.0      14.809733058582392  6.5147723677956121e-48                       0
   294   0   1   0.0      14.809733058582392      2.9619466117164786      2.9619466117164786
   295   0   1   0.0      11.847786446865914  1.8136692186419666e-16      2.9619466117164781
   296   0   1   0.0      11.847786446865914      2.9619466117164786                       0
   297   0   2   0.0      11.847786446865914  3.6273384372839337e-16      5.9238932234329571
   298   0   2   0.0      11.847786446865914       2.961946611716479      8.8858398351494348
   299   0   3   0.0      14.809733058582392  5.4410076559259001e-16      8.8858398351494348
   300   0   2   0.0      14.809733058582392       2.961946611716479      5.9238932234329571
   301   0   1   0.0      14.809733058582392  3.6273384372839337e-16      5.9238932234329571
   302   0   1   0.0      14.809733058582392       2.961946611716479      8.8858398351494348
   303   0   1   0.0      11.847786446865914  5.4410076559259011e-16      8.8858398351494365
   304   0   1   0.0      11.847786446865914       2.961946611716479      5.9238932234329571
   305   0   2   0.0      11.847786446865914  7.2546768745678665e-16      11.847786446865914
   306   0   3   0.0      11.847786446865916      2.9619466117164794       14.80973305858239
   307   0   2   0.0      14.809733058582394  9.0683460932098338e-16       14.80973305858239
   308   0   2   0.0      14.809733058582392      2.9619466117164794      11.847786446865912
   309   0   1   0.0      14.809733058582392  7.2546768745678665e-16      11.847786446865912
   310   0   1   0.0      14.809733058582394      2.9619466117164794      14.809733058582392
   311   0   1   0.0      11.847786446865916  9.0683460932098338e-16      14.809733058582392
   312   0   1   0.0      11.847786446865914      2.9619466117164794      11.847786446865912
   313   0   2   0.0      11.847786446865916    1.08820153118518e-15       17.77167967029887
   314   0   2   0.0      11.847786446865916      2.9619466117164799      20.733626282015351
   315   0   2   0.0      14.809733058582394  1.2695684530493769e-15      20.733626282015351
   316   0   2   0.0      14.809733058582394      2.9619466117164794       17.77167967029887
   317   0   1   0.0      14.809733058582394    1.08820153118518e-15       17.77167967029887
   318   0   1   0.0      14.809733058582394      2.9619466117164799      20.733626282015351
   319   0   1   0.0      11.847786446865916  1.2695684530493769e-15      20.733626282015351