LAMMPS (29 Sep 2021 - Update 3)
OMP_NUM_THREADS environment is not set. Defaulting to 1 thread. (src/comm.cpp:98)
  using 1 OpenMP thread(s) per MPI task
Reading data file ...
  orthogonal box = (0.0000000 0.0000000 0.0000000) to (15.613400 15.650667 60.676648)
  2 by 2 by 4 MPI processor grid
  reading atoms ...
  864 atoms
Finding 1-2 1-3 1-4 neighbors ...
  special bond factors lj:    0        0        0       
  special bond factors coul:  0        0        0       
     0 = max # of 1-2 neighbors
     0 = max # of 1-3 neighbors
     0 = max # of 1-4 neighbors
     1 = max # of special neighbors
  special bonds CPU = 0.001 seconds
  read_data CPU = 3.164 seconds
Neighbor list info ...
  update every 1 steps, delay 10 steps, check yes
  max neighbors/atom: 2000, page size: 100000
  master list distance cutoff = 6.22
  ghost atom cutoff = 6.22
  binsize = 3.11, bins = 6 6 20
  1 neighbor lists, perpetual/occasional/extra = 1 0 0
  (1) pair quip, perpetual
      attributes: full, newton on
      pair build: full/bin
      stencil: full/bin/3d
      bin: standard
Setting up Verlet run ...
  Unit style    : metal
  Current step  : 0
  Time step     : 0.001
Per MPI rank memory allocation (min/avg/max) = 8.889 | 8.898 | 8.908 Mbytes
Step Temp PotEng TotEng Press Volume c_msd[4] 
       0            0    -9417.799    -9417.799   -30975.102    14826.953            0 
      10    165.55627   -9436.2929   -9417.8248   -35808.397    14826.953 0.00030948002 
      20    378.45436   -9460.0599   -9417.8428   -42850.796    14826.953 0.0037274276 
      30    405.69294   -9463.0843   -9417.8287   -44302.105    14826.953  0.012463481 
      40    392.02077   -9461.5541   -9417.8236   -44279.401    14826.953  0.024415468 
      50    417.08826   -9464.3564   -9417.8296    -45973.39    14826.953  0.036982033 
      60    420.75535   -9464.7647   -9417.8288    -47753.74    14826.953  0.049634467 
      70     407.9112   -9463.3278   -9417.8247   -49652.187    14826.953  0.062755472 
      80    419.12468   -9464.5812   -9417.8272   -52906.106    14826.953   0.07687559 
      90    432.06858   -9466.0257   -9417.8278   -56644.554    14826.953  0.092516529 
     100    437.07358   -9466.5845   -9417.8283    -59457.96    14826.953   0.10938904 
     110    434.54866   -9466.3021   -9417.8275   -61104.413    14826.953   0.12652542 
     120    434.14482   -9466.2568   -9417.8273   -62154.885    14826.953    0.1431545 
     130      439.361   -9466.8391   -9417.8277   -63630.197    14826.953   0.15919619 
     140    446.51909   -9467.6387   -9417.8289   -65558.428    14826.953   0.17463459 
     150    447.02916   -9467.6951   -9417.8283   -67360.122    14826.953   0.18924565 
     160    445.88924   -9467.5675   -9417.8279   -69292.957    14826.953   0.20295995 
     170    449.26197   -9467.9437   -9417.8279   -71767.875    14826.953   0.21606234 
     180    456.11765   -9468.7096    -9417.829   -74290.183    14826.953   0.22912636 
     190    454.43711   -9468.5223   -9417.8292    -76612.29    14826.953   0.24280842 
     200    446.62774    -9467.649    -9417.827   -78739.398    14826.953   0.25734039 
     210    454.33781   -9468.5105   -9417.8284   -80806.826    14826.953    0.2725174 
     220    466.39184   -9469.8552   -9417.8285   -82316.213    14826.953   0.28796461 
     230    478.52262   -9471.2093   -9417.8294   -82954.729    14826.953   0.30306018 
     240    481.66435   -9471.5594    -9417.829   -83195.523    14826.953   0.31749982 
     250    481.45071   -9471.5331   -9417.8266    -83193.07    14826.953   0.33144361 
     260    501.18304   -9473.7372   -9417.8295   -82982.381    14826.953   0.34536204 
     270    513.25195   -9475.0851   -9417.8311   -82417.815    14826.953   0.35987885 
     280    501.57666   -9473.7806    -9417.829   -81721.808    14826.953   0.37471171 
     290    492.47305   -9472.7646   -9417.8285   -81146.258    14826.953   0.38855622 
     300    495.01951   -9473.0493   -9417.8292   -80485.485    14826.953   0.40074053 
     310    503.02213   -9473.9419    -9417.829   -79975.837    14826.953   0.41197537 
     320    517.02716   -9475.5049   -9417.8298    -80100.53    14826.953   0.42312641 
     330    528.24549   -9476.7573   -9417.8307   -80345.683    14826.953   0.43452756 
     340    527.46021   -9476.6689   -9417.8299   -79908.329    14826.953   0.44600697 
     350    525.40472   -9476.4395   -9417.8298   -79635.847    14826.953   0.45751829 
     360    526.17025   -9476.5255   -9417.8304   -79296.551    14826.953    0.4690149 
     370    526.91272   -9476.6086   -9417.8307   -78934.771    14826.953   0.47994193 
     380    523.77443   -9476.2591   -9417.8312    -78349.26    14826.953    0.4899244 
     390    515.97368   -9475.3874   -9417.8298   -77628.832    14826.953   0.49901453 
     400    520.05492    -9475.843   -9417.8301   -77188.099    14826.953   0.50752529 
     410    532.56265   -9477.2391    -9417.831   -76589.953    14826.953   0.51614865 
     420    540.25226   -9478.0982   -9417.8322   -75877.581    14826.953   0.52551418 
     430    530.99756   -9477.0645   -9417.8309   -74960.344    14826.953   0.53577624 
     440    520.22454   -9475.8617   -9417.8299   -74047.729    14826.953   0.54643624 
     450    524.10068   -9476.2951   -9417.8308    -73298.66    14826.953   0.55673143 
     460    534.09515   -9477.4108   -9417.8316   -72760.738    14826.953   0.56614172 
     470    540.77118   -9478.1556   -9417.8317   -72524.651    14826.953   0.57446846 
     480    541.24645   -9478.2098    -9417.833   -72632.257    14826.953   0.58202651 
     490    525.98312   -9476.5055   -9417.8313   -72557.778    14826.953   0.58956581 
     500    519.29389   -9475.7579   -9417.8299   -72672.134    14826.953   0.59738896 
     510    536.84993   -9477.7197   -9417.8332   -73590.734    14826.953   0.60540983 
     520    541.07469   -9478.1913   -9417.8336   -74459.431    14826.953   0.61314596 
     530    525.46621    -9476.448   -9417.8314     -75250.3    14826.953   0.61964842 
     540    517.81909   -9475.5943   -9417.8308   -76615.008    14826.953   0.62442657 
     550    530.74801   -9477.0373   -9417.8316   -78518.677    14826.953   0.62810042 
     560    549.85385   -9479.1718   -9417.8347   -80253.367    14826.953   0.63196072 
     570    545.69369   -9478.7044   -9417.8314    -81117.21    14826.953   0.63700617 
     580    550.79507   -9479.2735   -9417.8315   -82215.551    14826.953   0.64324602 
     590    565.64388   -9480.9333   -9417.8349   -83714.176    14826.953   0.65037812 
     600    553.97462   -9479.6301   -9417.8334   -84197.142    14826.953   0.65818616 
     610    534.68082   -9477.4754   -9417.8309    -84240.65    14826.953   0.66624572 
     620    539.88467    -9478.057    -9417.832   -85068.031    14826.953   0.67443063 
     630    557.34145   -9480.0068   -9417.8345   -86385.256    14826.953   0.68307389 
     640    561.99273   -9480.5241    -9417.833   -87221.521    14826.953   0.69206136 
     650    566.38107   -9481.0145   -9417.8338   -87655.782    14826.953   0.70036908 
     660    568.86956   -9481.2918   -9417.8335    -87740.11    14826.953   0.70722977 
     670    575.19383   -9481.9963   -9417.8326   -87866.365    14826.953   0.71303183 
     680    595.54742   -9484.2684   -9417.8342   -88404.913    14826.953   0.71947662 
     690    609.98222   -9485.8807   -9417.8363   -88729.686    14826.953    0.7286457 
     700    596.15452   -9484.3367   -9417.8348   -87868.063    14826.953   0.74132924 
     710     573.7335   -9481.8333   -9417.8324   -86258.222    14826.953   0.75645284 
     720    573.70821   -9481.8317   -9417.8337   -84983.366    14826.953   0.77238493 
     730     586.6623   -9483.2786   -9417.8355   -84422.122    14826.953   0.78843572 
     740    590.84846   -9483.7457   -9417.8357   -83666.343    14826.953   0.80463072 
     750    583.49524   -9482.9245   -9417.8347    -82343.99    14826.953   0.82074782 
     760    583.95649   -9482.9744   -9417.8332   -81187.395    14826.953   0.83649385 
     770    604.11555   -9485.2273   -9417.8373   -80598.713    14826.953   0.85208187 
     780    602.14592   -9485.0071   -9417.8368   -79807.857    14826.953   0.86786713 
     790    583.15212   -9482.8843   -9417.8328   -79182.757    14826.953   0.88337328 
     800    591.98235   -9483.8727   -9417.8362    -79217.67    14826.953   0.89779065 
     810     593.6376   -9484.0604   -9417.8392   -78586.479    14826.953   0.91096518 
     820    564.19404    -9480.769   -9417.8323   -76887.536    14826.953   0.92230305 
     830    578.29071   -9482.3435   -9417.8343    -76070.66    14826.953   0.93079609 
     840    620.21177   -9487.0247   -9417.8391   -76615.231    14826.953   0.93735222 
     850    635.72143   -9488.7531   -9417.8374   -76706.283    14826.953   0.94395854 
     860    638.46305   -9489.0584   -9417.8369   -76335.754    14826.953    0.9515297 
     870    639.16227   -9489.1369   -9417.8374   -76423.443    14826.953   0.96015894 
     880    632.78052   -9488.4255   -9417.8379    -76496.29    14826.953   0.96986761 
     890    619.52962   -9486.9443   -9417.8348   -76440.217    14826.953   0.98065907 
     900    631.58349   -9488.2902   -9417.8361   -77290.162    14826.953   0.99283193 
     910    659.71446   -9491.4297   -9417.8375   -78626.622    14826.953    1.0074175 
     920    682.68232   -9493.9925   -9417.8382   -79649.341    14826.953     1.025539 
     930    692.81423   -9495.1224   -9417.8379   -80089.571    14826.953    1.0472636 
     940    693.68664   -9495.2193   -9417.8375   -80244.074    14826.953    1.0718362 
     950     697.6853   -9495.6642   -9417.8364   -80549.347    14826.953    1.0985217 
     960    720.55047   -9498.2165    -9417.838   -81100.976    14826.953    1.1269795 
     970    736.50661   -9500.0011   -9417.8427   -81178.831    14826.953    1.1574498 
     980    709.64481   -9496.9987   -9417.8368   -80198.822    14826.953    1.1900413 
     990    699.67715   -9495.8872   -9417.8372   -80141.397    14826.953    1.2238706 
    1000    721.55559   -9498.3287    -9417.838   -81850.645    14826.953    1.2577136 
    1010    753.07988   -9501.8503   -9417.8431   -83180.243    14826.953    1.2911781 
    1020      745.493   -9501.0009   -9417.8401   -82863.976    14826.953    1.3253393 
    1030    733.65366   -9499.6762    -9417.836   -82639.661    14826.953    1.3609259 
    1040    758.67379   -9502.4737   -9417.8425   -83602.278    14826.953     1.397925 
    1050    756.83368   -9502.2682   -9417.8422   -83730.377    14826.953    1.4364633 
    1060    728.60541   -9499.1145   -9417.8375   -82787.476    14826.953    1.4761865 
    1070    732.87934   -9499.5908    -9417.837   -82732.658    14826.953    1.5166131 
    1080    772.96075   -9504.0683   -9417.8434   -84026.785    14826.953     1.557623 
    1090    781.69039   -9505.0406   -9417.8419   -84442.056    14826.953    1.5996324 
    1100    771.56221   -9503.9052   -9417.8363   -84299.214    14826.953    1.6430538 
    1110    801.54413   -9507.2546   -9417.8412   -84972.703    14826.953    1.6886146 
    1120    823.54281   -9509.7109   -9417.8435   -85496.656    14826.953    1.7387343 
    1130     822.5412   -9509.5935   -9417.8378   -84712.521    14826.953    1.7953724 
    1140    852.09877   -9512.8966   -9417.8437   -84635.582    14826.953    1.8578542 
    1150    856.32238   -9513.3687   -9417.8447   -83808.928    14826.953    1.9247272 
    1160    829.16843   -9510.3332   -9417.8382   -82252.194    14826.953    1.9939774 
    1170    841.50467   -9511.7132   -9417.8421   -82218.858    14826.953    2.0635991 
    1180    862.29463   -9514.0344   -9417.8441    -82731.26    14826.953    2.1335867 
    1190    866.74056   -9514.5296   -9417.8434   -81686.997    14826.953    2.2053203 
    1200       872.69    -9515.192   -9417.8421   -80417.058    14826.953    2.2796571 
    1210    894.17681   -9517.5923   -9417.8456   -80254.886    14826.953    2.3566684 
    1220    898.69177    -9518.094   -9417.8436   -80269.089    14826.953    2.4365388 
    1230    902.65555   -9518.5356   -9417.8431   -79919.279    14826.953     2.518764 
    1240    911.76859   -9519.5544   -9417.8452   -78985.613    14826.953    2.6023137 
    1250    918.59896   -9520.3146   -9417.8435   -76973.171    14826.953    2.6875029 
    1260    941.81665   -9522.9069   -9417.8458   -75160.665    14826.953    2.7758222 
    1270     961.5063   -9525.1039   -9417.8464   -73045.867    14826.953    2.8682405 
    1280    975.25968   -9526.6366   -9417.8449   -70472.054    14826.953    2.9648404 
    1290    1001.7621   -9529.5952   -9417.8471   -69578.057    14826.953    3.0655448 
    1300    1017.6288   -9531.3669   -9417.8489   -68777.285    14826.953    3.1701834 
    1310     1014.471   -9531.0095   -9417.8438   -66497.248    14826.953    3.2777376 
    1320    1037.6476   -9533.6011     -9417.85   -64366.582    14826.953    3.3877913 
    1330    1036.1698   -9533.4336   -9417.8473   -62062.663    14826.953    3.5023518 
    1340    1033.7099   -9533.1571   -9417.8452   -59413.385    14826.953    3.6220509 
    1350    1054.8214   -9535.5189   -9417.8519   -57213.004    14826.953    3.7454243 
    1360    1037.5641   -9533.5912   -9417.8494   -54687.928    14826.953    3.8711956 
    1370    1024.3347   -9532.1105   -9417.8444   -51863.642    14826.953    3.9979351 
    1380    1062.9789   -9536.4316   -9417.8547   -49837.894    14826.953    4.1246204 
    1390    1057.5859    -9535.828   -9417.8527   -47126.721    14826.953    4.2515344 
    1400    1031.7037   -9532.9346   -9417.8465   -44628.045    14826.953    4.3784738 
    1410    1045.5289   -9534.4845   -9417.8542   -43213.649    14826.953    4.5048283 
    1420    1036.1371   -9533.4348   -9417.8521   -40686.938    14826.953    4.6299533 
    1430    1013.3873   -9530.8963   -9417.8514   -37037.959    14826.953    4.7524242 
    1440    1009.9024   -9530.5043   -9417.8482   -34353.771    14826.953    4.8714929 
    1450      1045.07    -9534.436   -9417.8569   -32718.717    14826.953     4.987903 
    1460     1044.846   -9534.4069   -9417.8527   -30915.035    14826.953    5.1042348 
    1470    1040.0569   -9533.8734   -9417.8535   -30330.474    14826.953    5.2222883 
    1480    1033.2322   -9533.1134   -9417.8548   -30604.537    14826.953    5.3412471 
    1490    1017.9278   -9531.4016   -9417.8502   -29807.511    14826.953    5.4578543 
    1500    1040.2213   -9533.8955   -9417.8572   -28131.475    14826.953    5.5684253 
    1510    1039.3849   -9533.8003   -9417.8554   -25914.416    14826.953    5.6718067 
    1520    1029.0609   -9532.6473    -9417.854   -24594.464    14826.953    5.7682644 
    1530    1031.5004   -9532.9233   -9417.8579   -24254.573    14826.953    5.8578573 
    1540    1019.0107   -9531.5253   -9417.8532   -23531.216    14826.953    5.9413335 
    1550    1035.4455    -9533.363   -9417.8575   -23504.541    14826.953    6.0203438 
    1560    1050.1303   -9535.0005   -9417.8569    -23102.24    14826.953    6.0964063 
    1570     1053.806   -9535.4108   -9417.8571   -22678.296    14826.953    6.1693718 
    1580     1061.119   -9536.2243   -9417.8549   -21883.077    14826.953     6.236789 
    1590    1088.5999   -9539.2973   -9417.8624   -21917.761    14826.953    6.2959336 
    1600      1067.89   -9536.9845   -9417.8598   -22163.429    14826.953    6.3467449 
    1610    1035.4961   -9533.3641    -9417.853   -23136.244    14826.953    6.3901828 
    1620    1056.7784   -9535.7458   -9417.8606   -24690.284    14826.953    6.4275988 
    1630    1066.5554   -9536.8339   -9417.8581   -25692.824    14826.953    6.4607565 
    1640    1082.2069   -9538.5786   -9417.8568   -26490.679    14826.953    6.4897954 
    1650    1116.1576   -9542.3698   -9417.8608   -28025.498    14826.953    6.5134721 
    1660    1130.4022   -9543.9576   -9417.8596   -28776.295    14826.953    6.5310838 
    1670    1144.7697   -9545.5608     -9417.86   -30173.707    14826.953    6.5431878 
    1680    1161.8103    -9547.465   -9417.8633   -32505.604    14826.953    6.5523479 
    1690    1144.3333   -9545.5114   -9417.8593    -33279.31    14826.953    6.5616337 
    1700    1136.3544   -9544.6191    -9417.857   -33690.837    14826.953    6.5724324 
    1710    1176.6035   -9549.1142   -9417.8623   -37361.619    14826.953    6.5842075 
    1720    1198.4999   -9551.5635   -9417.8691   -40786.714    14826.953    6.5951801 
    1730    1154.0225   -9546.5909    -9417.858    -41380.84    14826.953    6.6025599 
    1740    1162.4697   -9547.5365   -9417.8612   -42122.661    14826.953    6.6035206 
    1750    1217.5958   -9553.6894   -9417.8648   -44095.184    14826.953    6.5987402 
    1760    1258.0248   -9558.2033   -9417.8687   -46540.118    14826.953     6.591658 
    1770    1236.8678   -9555.8357   -9417.8612   -48451.256    14826.953    6.5846594 
    1780    1229.6407   -9555.0271   -9417.8588   -50743.073    14826.953    6.5769021 
    1790    1262.7885   -9558.7348   -9417.8689   -53292.589    14826.953    6.5687005 
    1800    1252.0625   -9557.5318   -9417.8623   -54893.743    14826.953    6.5624205 
    1810    1246.8613   -9556.9532   -9417.8639   -56632.643    14826.953    6.5581611 
    1820    1242.3945   -9556.4566   -9417.8657   -58535.832    14826.953    6.5543941 
    1830    1221.3702    -9554.109   -9417.8634   -60009.412    14826.953    6.5499057 
    1840    1212.9357   -9553.1643   -9417.8595   -61556.573    14826.953    6.5428348 
    1850    1263.9969   -9558.8674   -9417.8667   -65435.852    14826.953    6.5324408 
    1860    1285.5884   -9561.2846   -9417.8753    -68660.14    14826.953    6.5212296 
    1870    1214.4221   -9553.3281   -9417.8575   -67913.202    14826.953    6.5108613 
    1880    1240.7292   -9556.2712    -9417.866   -69208.737    14826.953    6.4995978 
    1890    1270.4483   -9559.6022   -9417.8818   -71282.098    14826.953    6.4880409 
    1900    1157.8079   -9547.0093   -9417.8541   -70763.972    14826.953    6.4774151 
    1910     1166.235     -9547.96   -9417.8648   -72850.327    14826.953    6.4654768 
    1920    1214.5736   -9553.3625    -9417.875   -76494.653    14826.953    6.4516584 
    1930    1182.0419   -9549.7195   -9417.8609   -76455.664    14826.953    6.4355978 
    1940    1204.4023   -9552.2203   -9417.8674   -75958.225    14826.953    6.4157942 
    1950    1226.3694   -9554.6747   -9417.8713   -74838.153    14826.953    6.3937969 
    1960    1204.4092   -9552.2146   -9417.8609   -73367.437    14826.953    6.3721901 
    1970    1239.3277   -9556.1157   -9417.8668   -73666.391    14826.953    6.3514773 
    1980    1264.3958   -9558.9153     -9417.87   -74700.467    14826.953    6.3312291 
    1990     1229.627   -9555.0308    -9417.864   -74940.507    14826.953    6.3107868 
    2000    1194.8681   -9551.1533   -9417.8639   -75555.459    14826.953    6.2895403 
Loop time of 1650.17 on 16 procs for 2000 steps with 864 atoms

Performance: 0.105 ns/day, 229.190 hours/ns, 1.212 timesteps/s
95.2% CPU use with 16 MPI tasks x 1 OpenMP threads

MPI task timing breakdown:
Section |  min time  |  avg time  |  max time  |%varavg| %total
---------------------------------------------------------------
Pair    | 1222       | 1391       | 1605.1     | 304.7 | 84.29
Bond    | 0.00015926 | 0.00038169 | 0.00064921 |   0.0 |  0.00
Neigh   | 0.025497   | 0.03243    | 0.043016   |   3.4 |  0.00
Comm    | 44.935     | 256.02     | 426.27     | 700.5 | 15.51
Output  | 0.11631    | 1.6042     | 5.1226     | 163.2 |  0.10
Modify  | 0.0095818  | 0.010673   | 0.012529   |   0.7 |  0.00
Other   |            | 1.503      |            |       |  0.09

Nlocal:        54.0000 ave          65 max          37 min
Histogram: 1 0 3 1 3 0 0 0 4 4
Nghost:        616.312 ave         727 max         487 min
Histogram: 4 3 1 0 0 0 0 0 0 8
Neighs:         0.00000 ave           0 max           0 min
Histogram: 16 0 0 0 0 0 0 0 0 0
FullNghs:      3255.38 ave        4280 max        2032 min
Histogram: 1 3 4 0 0 0 0 0 3 5

Total # of neighbors = 52086
Ave neighs/atom = 60.284722
Ave special neighs/atom = 0.0000000
Neighbor list builds = 199
Dangerous builds = 198
Setting up Verlet run ...
  Unit style    : metal
  Current step  : 2000
  Time step     : 0.001
Per MPI rank memory allocation (min/avg/max) = 8.898 | 8.906 | 8.912 Mbytes
Step Temp PotEng TotEng Press Volume c_msd[4] 
    2000          900   -9551.1533   -9450.7569   -77925.034    14826.953    6.2895403 
    2010    965.54749   -9559.9438   -9452.2355   -77120.911    14803.141    6.2703508 
    2020    1052.9964   -9574.0511   -9456.5878   -71203.317    14732.733    6.2233778 
    2030    1033.0024   -9578.1427   -9462.9097   -57242.795    14621.269    6.1583872 
    2040    1079.5541   -9590.1375   -9469.7116   -42314.555    14480.899    6.0876772 
    2050     1139.167   -9603.1123   -9476.0365   -27396.272    14327.059     6.022621 
    2060    1129.7104   -9607.1008   -9481.0799     -10397.4    14175.764    5.9715127 
    2070    1142.5887   -9611.9164    -9484.459    5102.2409    14041.209    5.9408384 
    2080    1167.1205   -9616.7838   -9486.5897    17482.744    13932.094    5.9358708 
    2090    1155.0697   -9616.8535   -9488.0037    26583.717    13851.217    5.9583088 
    2100    1167.4603   -9619.5479    -9489.316    30379.956    13797.457    6.0052213 
    2110    1179.0813   -9622.5633    -9491.035    30444.671    13767.212    6.0713231 
    2120    1147.5837    -9621.176   -9493.1613     29191.31    13756.298     6.150554 
    2130    1128.9716   -9621.4173   -9495.4789    24520.623    13761.078    6.2368277 
    2140    1143.2249   -9625.4555   -9497.9271     17288.51    13777.472    6.3267414 
    2150     1122.607   -9625.6308   -9500.4023    10558.368    13801.025    6.4172558 
    2160    1060.6927   -9621.0183   -9502.6965    5823.3147    13828.103    6.5012392 
    2170    1054.8618   -9622.4149   -9504.7434    164.17718    13856.103    6.5715595 
    2180    1104.1066   -9629.9245   -9506.7598   -6566.9721    13882.223    6.6241002 
    2190    1091.9697   -9630.6839   -9508.8731   -11386.578    13903.377    6.6567641 
    2200    1053.9393   -9628.5781   -9511.0096   -13669.373    13917.442    6.6685366 
    2210    1058.1311   -9631.2076   -9513.1715   -15429.029    13923.565    6.6598976 
    2220    1077.1275   -9635.6188   -9515.4636   -18214.764    13921.171    6.6327775 
    2230     1062.375   -9636.4186    -9517.909    -19732.89    13909.357    6.5878385 
    2240     1063.183   -9639.0672   -9520.4676   -19750.348    13887.796    6.5254883 
    2250    1074.7547   -9643.0481   -9523.1576   -19080.459    13856.971    6.4484436 
    2260    1086.1822   -9647.1341   -9525.9688   -17913.802    13817.755     6.360178 
    2270    1108.9473   -9652.6483   -9528.9436   -15102.996    13771.331    6.2641612 
    2280    1072.3987   -9651.4616   -9531.8339   -8838.8598     13719.85    6.1657199 
    2290    1092.6886   -9656.3855   -9534.4944   -4333.2744    13666.751    6.0716298 
    2300    1123.6411   -9662.4973   -9537.1534   -1363.9793    13614.642    5.9875708 
    2310    1104.6344   -9663.0128   -9539.7892    2174.3149    13565.212    5.9165295 
    2320    1122.9772   -9667.6629   -9542.3931    5717.7968     13520.13    5.8598321 
    2330    1129.7991   -9671.0893   -9545.0585    8052.2902     13480.86    5.8185947 
    2340    1137.7355   -9674.7082   -9547.7921     8239.846     13448.16    5.7907682 
    2350    1203.2902   -9684.9905   -9550.7617    5327.7868    13421.599    5.7717628 
    2360    1227.0856   -9691.0058   -9554.1225    3154.5891    13399.514    5.7588546 
    2370    1167.7319   -9687.7858   -9557.5236    2303.1449    13380.533    5.7512044 
    2380     1181.159   -9692.5372   -9560.7772    268.06966    13363.909    5.7463645 
    2390    1225.2498   -9700.8667   -9564.1882   -677.49564    13348.568    5.7413925 
    2400    1234.5854   -9705.4704   -9567.7506    1804.1624    13334.104    5.7348198 
    2410    1314.5506   -9718.2531    -9571.613    1345.5333     13321.32    5.7294198 
    2420     1311.974   -9722.2078   -9575.8552    527.98867     13310.01    5.7318061 
    2430     1255.194   -9720.0751   -9580.0563    327.43376    13299.729    5.7460918 
    2440    1248.1974   -9723.3681   -9584.1298   -3414.3863     13290.07    5.7713581 
    2450    1260.5459   -9728.8793   -9588.2635   -6323.5442    13279.418    5.8031133 
    2460    1241.5576   -9730.9492   -9592.4516   -6183.2753    13266.544    5.8360944 
    2470     1254.704   -9736.6226   -9596.6585   -7025.2155    13251.423    5.8664008 
    2480    1257.8728   -9741.3227   -9601.0051    -7304.045    13233.868    5.8934622 
    2490    1228.7239   -9742.4125   -9605.3465   -6028.2855    13213.946    5.9179352 
    2500    1205.9321   -9744.0702   -9609.5467   -4180.6783    13192.384    5.9404333 
    2510    1213.8761   -9749.0614   -9613.6517   -3004.5381    13170.078    5.9612696 
    2520    1189.9283   -9750.4177   -9617.6794   -523.01432    13147.739    5.9792224 
    2530     1164.015   -9751.3409   -9621.4933     3053.594    13126.553    5.9932888 
    2540    1214.6298   -9760.7852   -9625.2914    3778.2936    13107.917    6.0039408 
    2550    1252.3559   -9769.0703   -9629.3681     3606.954    13092.113    6.0114728 
    2560    1221.3327   -9769.8361   -9633.5946    3890.7264    13078.953    6.0149974 
    2570    1190.1296   -9770.4714   -9637.7106    2653.7699      13068.3    6.0127773 
    2580    1207.9739   -9776.6315   -9641.8802    1218.7518    13059.455    6.0034555 
    2590    1125.5882   -9771.5396   -9645.9786    3877.8712    13051.874    5.9866602 
    2600    1091.9207   -9771.5495   -9649.7441    5727.6584    13046.499    5.9615799 
    2610    1128.1268   -9779.3037   -9653.4595     4321.872    13043.951    5.9282279 
    2620    1135.3441   -9783.8331   -9657.1838    2745.4932     13043.54    5.8890704 
    2630    1138.8895   -9787.9173   -9660.8724    1989.2441    13044.459    5.8484657 
    2640    1127.9177   -9790.3605   -9664.5396    1662.1304     13046.26    5.8101086 
    2650    1106.8494   -9791.5365   -9668.0658    1740.2566    13048.748     5.777004 
    2660    1117.7247   -9796.1683   -9671.4844    1609.2791    13051.887    5.7519428 
    2670    1119.4728    -9799.795   -9674.9162    1453.5536    13055.599    5.7359654 
    2680    1121.7612   -9803.4862   -9678.3521   -47.606292    13059.684    5.7294193 
    2690    1125.2741   -9807.3607   -9681.8347   -1781.9142     13063.51    5.7337083 
    2700    1116.5254     -9809.87   -9685.3199   -4286.4887    13066.251    5.7491835 
    2710    1138.6247   -9815.8809   -9688.8656   -7593.9681    13066.799    5.7723838 
    2720    1112.1783   -9816.5609   -9692.4957   -8705.3946     13063.89    5.7983321 
    2730    1045.4858   -9812.5397   -9695.9142   -7980.9607    13057.206    5.8215521 
    2740    1045.8731   -9815.7839   -9699.1151   -7804.2822    13047.194    5.8374822 
    2750    1052.8492   -9819.7041   -9702.2572   -6877.9319    13034.173    5.8450232 
    2760    1059.1129   -9823.5151   -9705.3694   -4727.0699    13018.771    5.8457659 
    2770    1074.5231   -9828.3842   -9708.5196   -1543.3738    13002.087    5.8443518 
    2780    1050.6131   -9828.8346   -9711.6372    3227.6839    12985.691    5.8470172 
    2790    1042.2651   -9830.8939   -9714.6276    6092.9775     12971.59    5.8576844 
    2800    1073.9786   -9837.4511   -9717.6472    6864.1903    12960.957    5.8768503 
    2810    1044.2522   -9837.2004   -9720.7125    7891.5668    12954.045    5.9020152 
    2820    1009.2576   -9836.2134   -9723.6292     8305.931    12951.078    5.9296636 
    2830    1020.4391   -9840.3039   -9726.4724    6052.2251    12951.933    5.9575223 
    2840    974.65585   -9837.9115   -9729.1872    4008.4309    12955.538    5.9831828 
    2850    931.88943   -9835.5875   -9731.6339    1143.0073    12960.752    6.0032447 
    2860    941.93049   -9838.9448    -9733.871   -2448.5471    12966.202    6.0158994 
    2870    977.66371   -9845.1382   -9736.0784   -5722.9472    12970.288    6.0202815 
    2880    983.60492   -9848.0732   -9738.3506    -6831.264    12971.647    6.0150607 
    2890    947.65883   -9846.3203   -9740.6075    -4892.969    12969.949      6.00145 
    2900    914.26498   -9844.6987    -9742.711   -3518.3368    12966.055    5.9838688 
    2910    911.70745   -9846.3837   -9744.6813   -3172.1064    12960.689    5.9658335 
    2920    907.14323   -9847.7369   -9746.5437   -1579.8577    12954.175     5.948778 
    2930     903.2066    -9849.054   -9748.2999    698.80589    12947.263    5.9330991 
    2940    886.27432   -9848.7872   -9749.9219    2246.5486     12940.95    5.9187301 
    2950    895.41161   -9851.2942   -9751.4097    2453.2133    12935.926    5.9049391 
    2960    893.45708   -9852.4825    -9752.816    1265.9428    12932.193    5.8916916 
    2970    870.28763   -9851.1854   -9754.1035     1441.562    12929.276    5.8780577 
    2980    868.01167   -9852.1134   -9755.2854    1943.1391    12927.158    5.8627539 
    2990    879.77255   -9854.5201   -9756.3802    1908.5923    12925.991    5.8465183 
    3000    894.52571   -9857.2304   -9757.4447    1246.4656    12925.715    5.8323981 
    3010    873.64186   -9855.9219   -9758.4658    732.59197    12926.031    5.8235086 
    3020    873.99486   -9856.8989   -9759.4034   -523.25226    12926.634    5.8204844 
    3030    905.73777   -9861.3474    -9760.311   -2007.0984    12926.961    5.8221382 
    3040    895.52196   -9861.1206   -9761.2237   -1412.8935     12926.46     5.826108 
    3050     872.1161   -9859.3835   -9762.0977   -305.19415    12925.365    5.8298357 
    3060    869.84519   -9859.9128   -9762.8802    -560.8606    12924.117     5.832441 
    3070    888.46581   -9862.6997     -9763.59   -1523.4778     12922.64     5.834258 
    3080    896.45486   -9864.2739    -9764.273   -2242.9794    12920.544     5.836047 
    3090    877.69671   -9862.8334   -9764.9251   -1049.6124    12917.595     5.838946 
    3100    865.72838    -9862.088   -9765.5147    892.58359      12914.3    5.8447011 
    3110    874.02294   -9863.5293   -9766.0307    2109.3463     12911.51    5.8543424 
    3120    892.07379   -9866.0224   -9766.5103    2245.5104    12909.761    5.8679532 
    3130     882.8949   -9865.4564   -9766.9681    1626.0524    12909.072    5.8851182 
    3140    868.03122    -9864.218   -9767.3878    893.89472    12909.148    5.9038113 
    3150    865.52291   -9864.2849   -9767.7346    241.13581    12909.631    5.9215209 
    3160    893.41416   -9867.6958   -9768.0341   -710.70688    12910.181    5.9380732 
    3170    877.94809   -9866.2296   -9768.2931   -272.48289    12910.461    5.9551738 
    3180    865.63264   -9865.0637    -9768.501    58.512762    12910.587    5.9721988 
    3190    860.35322   -9864.6116   -9768.6379    60.992518    12910.718    5.9869604 
    3200    857.26275   -9864.3168   -9768.6878   -662.98441    12910.839    5.9983653 
    3210    889.92928   -9867.9452   -9768.6723    -2181.601    12910.612     6.007507 
    3220    870.03444   -9865.6584   -9768.6047   -1725.5584    12909.482    6.0158097 
    3230    878.36789   -9866.4825   -9768.4993   -1623.5472    12907.569    6.0212003 
    3240    888.87303   -9867.5101    -9768.355   -2443.2799    12904.921    6.0208945 
    3250    863.39489   -9864.4844   -9768.1714   -1707.0617    12901.324    6.0135914 
    3260     896.3453   -9867.9288   -9767.9401   -2844.3896    12896.958    5.9995007 
    3270    885.13034   -9866.4007   -9767.6631   -2715.1023    12891.497    5.9806961 
    3280     855.9053   -9862.8278   -9767.3503   -1063.9878    12885.031    5.9598056 
    3290    876.05146   -9864.6953   -9766.9705    633.67247    12878.291    5.9384561 
    3300    854.60737   -9861.8192   -9766.4864    3506.5806     12872.13    5.9170903 
    3310    882.03949    -9864.315   -9765.9222    3928.1405    12867.647    5.8951544 
    3320    896.14292   -9865.2463   -9765.2802    2199.6331    12865.002    5.8734491 
    3330    880.28398   -9862.8222   -9764.6252    47.007702    12863.438    5.8538906 
    3340     886.1143    -9862.798   -9763.9506   -2259.2087    12861.949    5.8376968 
    3350    913.42387   -9865.1531   -9763.2593   -3650.1117    12859.505    5.8246709 
    3360    926.27161   -9865.9279   -9762.6009   -3095.4854    12855.551    5.8146882 
    3370    911.54773   -9863.7026   -9762.0181   -999.07874    12850.378    5.8082187 
    3380    891.50823   -9860.9314   -9761.4823    519.79824    12844.883    5.8051523 
    3390    915.88507   -9863.1167   -9760.9484    779.18564    12839.742    5.8053416 
    3400    911.49001   -9862.0863   -9760.4082    2056.1421    12835.181    5.8094662 
    3410    893.48211   -9859.5487   -9759.8794    2858.5248    12831.686    5.8177349 
    3420     906.0451   -9860.4131   -9759.3424    2102.2865    12829.545    5.8295646 
    3430    922.08892   -9861.6599   -9758.7995    1748.0927    12828.456    5.8438432 
    3440    951.52454   -9864.4472   -9758.3032    1464.3861     12828.19    5.8587832 
    3450    943.36513    -9863.151   -9757.9172    1952.8398    12828.626     5.873393 
    3460    893.59058    -9857.304   -9757.6227    2623.5958    12829.949    5.8876251 
    3470    941.57183   -9862.4206   -9757.3868    1620.9189    12832.358    5.9008492 
    3480      953.937   -9863.6384   -9757.2252    1286.0841    12835.471    5.9123875 
    3490    942.69411   -9862.3608   -9757.2019    1275.5848    12839.091    5.9200396 
    3500    959.63241   -9864.3343   -9757.2859   -518.74807     12843.09     5.922541 
    3510    944.34129   -9862.8136    -9757.471   -1170.9278    12846.822    5.9216389 
    3520    941.51418   -9862.7838   -9757.7564   -2472.5003    12849.898    5.9198897 
    3530    962.75442   -9865.5641   -9758.1674   -4795.6149    12851.722    5.9185001 
    3540    942.72563   -9863.8786   -9758.7162   -5506.6697    12851.396    5.9171394 
    3550     939.6654   -9864.1831    -9759.362   -4674.5256    12848.654    5.9144426 
    3560    956.11462   -9866.7572   -9760.1011   -4958.0382     12843.78    5.9098366 
    3570    917.30349   -9863.2494   -9760.9228   -4602.6916    12836.812    5.9034799 
    3580    899.05711   -9862.0452   -9761.7541   -2612.7164    12828.034    5.8954022 
    3590    926.60982   -9865.9635   -9762.5988   -1171.5844    12818.273    5.8866467 
    3600    917.16027   -9865.7814   -9763.4708    1240.2931    12808.298    5.8789894 
    3610    901.89945   -9864.9533    -9764.345    2578.7341    12799.112    5.8733287 
    3620    898.70587   -9865.4524   -9765.2004    2232.4869    12791.291    5.8694705 
    3630    906.37601   -9867.1653   -9766.0577    1098.6973     12784.65    5.8679385 
    3640    906.65303   -9868.0658   -9766.9272    384.31474    12778.702    5.8706851 
    3650    900.38944   -9868.2423   -9767.8025    -425.8004    12773.073    5.8782571 
    3660    902.51083   -9869.3637   -9768.6872    464.74929     12767.46    5.8894856 
    3670    872.72822   -9866.8904   -9769.5362    2455.8119    12762.236    5.9021229 
    3680    866.58582    -9866.958    -9770.289    3581.7784    12758.227    5.9128414 
    3690    898.96776   -9871.2675   -9770.9863    3740.9307    12755.905    5.9200693 
    3700    867.68557   -9868.4308   -9771.6392    4513.6147    12755.357    5.9252922 
    3710    858.13414   -9867.9201    -9772.194    4322.0392    12756.813     5.930292 
    3720    917.10522   -9875.0167   -9772.7122    1704.5563    12760.068    5.9361427 
    3730    884.05252   -9871.8423   -9773.2249    1221.5791    12764.126    5.9428763 
    3740    876.16632   -9871.4532   -9773.7155    18.103183    12768.589    5.9491811 
    3750    881.60161   -9872.5138   -9774.1698    -2181.943    12772.928    5.9553309 
    3760    852.84072   -9869.6824   -9774.5467   -3727.9747    12776.239    5.9621034 
    3770    880.92192   -9873.1282   -9774.8601   -5653.8887    12777.767    5.9699584 
    3780    859.95391   -9871.0357   -9775.1066   -5898.4683    12776.785    5.9799397 
    3790    867.53848   -9872.0758   -9775.3006   -5923.6501     12773.17    5.9911478 
    3800    891.13081   -9874.8654   -9775.4584    -5703.454    12766.972     6.002562 
    3810    860.73422   -9871.5946   -9775.5784    -3398.453    12758.446    6.0140627 
    3820    845.68472   -9869.9535   -9775.6161   -1105.6206    12748.583    6.0246243 
    3830    852.70907   -9870.6482   -9775.5272     662.7478    12738.434    6.0332792 
    3840    868.33693   -9872.1766   -9775.3123     2058.915    12728.801    6.0404161 
    3850    889.86865   -9874.2776   -9775.0115    3672.3877    12720.302    6.0469648 
    3860    859.84982   -9870.5671   -9774.6495    5989.2087    12713.688    6.0542854 
    3870    847.49542   -9868.7634    -9774.224    5604.5512    12709.803    6.0629354 
    3880     889.8465   -9872.9806   -9773.7168    3607.1373    12708.454    6.0726563 
    3890    873.22521   -9870.5666    -9773.157    2695.9087    12708.785    6.0822294 
    3900    879.90245   -9870.7295    -9772.575    2206.5272    12710.323     6.088014 
    3910     909.7361   -9873.4322   -9771.9498    1484.9019     12712.81    6.0874961 
    3920    886.71554   -9870.2347   -9771.3202     579.6888    12715.915    6.0818945 
    3930    889.37366   -9869.8981   -9770.6871    -1890.299    12719.141    6.0741331 
    3940     917.8416   -9872.4005   -9770.0139    -4208.365    12721.466    6.0676151 
    3950    916.16874   -9871.5597   -9769.3597   -4410.2814    12721.966    6.0639212 
    3960    907.16781   -9869.9554   -9768.7595   -4695.3099    12720.457    6.0603722 
    3970    897.84522   -9868.3453   -9768.1893   -3700.0737    12716.933     6.053655 
    3980     912.3222   -9869.3986   -9767.6277   -1526.3293      12711.9     6.043602 
    3990    915.12262   -9869.1641   -9767.0808    331.50552    12706.283     6.032585 
    4000    913.16876   -9868.4318   -9766.5664     2158.759     12700.94    6.0230337 
    4010    943.72349   -9871.3879   -9766.1141     3011.266    12696.617    6.0162024 
    4020    894.18685   -9865.4785   -9765.7306    4533.0486    12693.778    6.0120937 
    4030    901.66716   -9865.9621   -9765.3798    3033.2487    12692.887    6.0092544 
    4040    939.50879    -9869.812   -9765.0084    162.62063    12693.317      6.00839 
    4050    899.52278   -9865.0101    -9764.667   -338.22085    12693.935    6.0114403 
    4060    915.95104   -9866.5427    -9764.367   -1761.4345    12694.338    6.0177115 
    4070    925.13932   -9867.3009   -9764.1002   -2944.3801    12693.934     6.025178 
    4080    894.21947    -9863.625   -9763.8734   -1589.3958    12692.349    6.0309574 
    4090    910.91568   -9865.2795   -9763.6655   -2025.6502    12690.014    6.0326075 
    4100    934.33907    -9867.729   -9763.5021   -2919.7289    12686.832    6.0304318 
    4110    921.35812    -9866.186   -9763.4071   -2783.9315    12682.463    6.0265985 
    4120    935.87557    -9867.777   -9763.3786   -3365.4136    12676.915    6.0216434 
    4130    938.73376   -9868.1504   -9763.4332   -3983.2918    12669.959    6.0139607 
    4140    908.40783   -9864.8898   -9763.5555   -1717.2312    12661.513    6.0019251 
    4150    914.10997   -9865.6874    -9763.717   -1086.1912    12652.418    5.9843848 
    4160    908.52033   -9865.2689   -9763.9221   -334.28089     12643.04    5.9609304 
    4170    871.17729   -9861.2943   -9764.1132    1930.9958    12633.768    5.9322143 
    4180    900.23753    -9864.679   -9764.2561    2456.2715    12625.469    5.8992251 
    4190    928.77709   -9867.9897   -9764.3832    2479.9101    12618.404    5.8634829 
    4200    910.86075   -9866.1442   -9764.5364    4752.6089    12612.698    5.8262948 
    4210    921.56453   -9867.5275   -9764.7256    5406.0967    12609.121    5.7890902 
    4220    922.62656   -9867.8616   -9764.9412    4676.0618    12607.942    5.7538771 
    4230    918.98149   -9867.7029   -9765.1892    3294.5431    12608.818    5.7214094 
    4240    912.03357   -9867.2291   -9765.4904     2660.149    12611.149    5.6913543 
    4250    889.58592   -9865.0365   -9765.8018    2747.1739    12614.639    5.6628971 
    4260    917.59174   -9868.5018    -9766.143    94.042523    12619.163    5.6352161 
    4270    906.61499   -9867.6624   -9766.5282   -3439.0494    12623.608    5.6087911 
    4280    887.50592   -9865.9487   -9766.9461   -5723.5185     12626.51     5.583915 
    4290    894.08788    -9867.088   -9767.3512   -7517.6554    12626.861    5.5613319 
    4300    922.31075   -9870.6448   -9767.7597   -8264.6894    12623.939    5.5415022 
    4310    915.39259   -9870.2953   -9768.1819     -7049.24    12617.523    5.5237186 
    4320    934.11542   -9872.8443   -9768.6424   -5619.1355    12608.157    5.5065936 
    4330    918.52502   -9871.6343   -9769.1714   -3388.8266    12596.557    5.4900488 
    4340    911.54452   -9871.4131   -9769.7289   -621.14913    12583.759    5.4740937 
    4350     956.7702   -9877.0976   -9770.3685    1467.4532    12570.936    5.4584819 
    4360    926.99959   -9874.5221   -9771.1139    4806.1981    12559.105      5.44295 
    4370    897.50667   -9872.0195   -9771.9013    6874.4295    12549.599    5.4262422 
    4380    899.85413   -9873.0792   -9772.6991    6594.3351    12543.197    5.4081383 
    4390    910.21107   -9875.0154     -9773.48    5708.6463    12539.789    5.3899484 
    4400    949.84304     -9880.25   -9774.2936    2599.6492    12538.832    5.3726759 
    4410    934.43322   -9879.4191   -9775.1817     737.2971     12539.09    5.3556444 
    4420    907.26487   -9877.2897   -9776.0829    -1406.107    12539.635    5.3372621 
    4430    927.24064   -9880.4265   -9776.9914   -4076.2248    12539.535    5.3177555 
    4440    920.73743   -9880.6338   -9777.9241   -4824.9591    12537.754    5.2990703 
    4450     881.1813   -9877.1138   -9778.8167   -3556.0841    12534.025    5.2810553 
    4460    886.32086   -9878.5219   -9779.6514   -3781.5749    12528.769    5.2611273 
    4470    893.87243   -9880.1756   -9780.4628   -4091.5165    12522.022    5.2380579 
    4480    903.86385   -9882.0981   -9781.2708   -3612.8648    12513.706    5.2133644 
    4490    915.47826   -9884.2126   -9782.0896   -1897.0213    12504.065    5.1898872 
    4500    908.69448   -9884.2774   -9782.9112    1130.5318    12493.878    5.1691644 
    4510    885.90298   -9882.5214   -9783.6976    4264.9116    12484.417    5.1505372 
    4520    861.46803    -9880.504   -9784.4059    5835.1858    12476.965    5.1317813 
    4530     853.7714   -9880.2509   -9785.0115    4295.9293    12472.087    5.1108453 
    4540      878.013   -9883.4819   -9785.5382    202.94007    12469.058    5.0879219 
    4550    885.49457   -9884.8095   -9786.0313   -2233.4545    12466.262    5.0645134 
    4560    856.81928   -9882.0608   -9786.4813   -2888.1814    12462.643    5.0410248 
    4570     844.5112   -9881.0464   -9786.8399   -2737.9015    12457.911    5.0167613 
    4580    865.94856   -9883.7074   -9787.1095   -2666.2291    12452.107    4.9916568 
    4590    859.93026   -9883.2291   -9787.3026   -2110.2495    12445.316    4.9663045 
    4600    859.90878   -9883.3499   -9787.4257    -832.4993    12437.794    4.9400931 
    4610    840.26223   -9881.1747   -9787.4422    537.83979    12430.101    4.9111712 
    4620    822.78396   -9879.1052   -9787.3225    358.64715     12422.77    4.8778969 
    4630    845.75336      -9881.4   -9787.0549   -1593.2789    12415.689    4.8420916 
    4640     879.7448   -9884.8262   -9786.6893   -2696.6637    12408.134    4.8077322 
    4650     873.3912   -9883.6998   -9786.2717    -2419.443    12399.658    4.7762144 
    4660    860.81762   -9881.8375    -9785.812   -1248.2124    12390.375    4.7464694 
    4670    867.10989   -9882.0189   -9785.2915    64.348075    12380.771    4.7184988 
    4680    883.10848     -9883.22   -9784.7079    819.09438    12371.407     4.694033 
    4690    885.16635   -9882.8056    -9784.064    1335.3078    12362.618    4.6749837 
    4700    864.46877   -9879.7899   -9783.3571    2725.7729    12354.676     4.661587 
    4710    868.60064   -9879.4584   -9782.5647    3327.5395    12348.065    4.6509214 
    4720    901.62993   -9882.2733   -9781.6951    2340.5481    12342.969    4.6394052 
    4730    917.91621    -9883.236   -9780.8411    1005.9253    12338.984     4.626934 
    4740    907.14423   -9881.2526   -9780.0593    889.05701    12335.576    4.6158114 
    4750    889.86992   -9878.5804    -9779.314    1012.5467     12332.64    4.6070745 
    4760    901.13767   -9879.0675   -9778.5442   -105.35779    12330.154    4.5991211 
    4770    935.50138   -9882.1266     -9777.77   -1351.0153    12327.689    4.5900628 
    4780    943.00587   -9882.2583   -9777.0646   -2052.8913     12324.76    4.5804522 
    4790    943.65894   -9881.7461   -9776.4796   -4397.3849    12320.977     4.571628 
    4800    933.71428   -9880.1792    -9776.022   -7017.6663    12315.441    4.5652677 
    4810    917.36243   -9878.0128   -9775.6797   -6956.8009    12307.263    4.5623504 
    4820    938.02414   -9880.0613   -9775.4233   -5856.3175    12296.447    4.5628522 
    4830     941.3171   -9880.2464    -9775.241   -3008.4323    12283.613    4.5670045 
    4840    947.91588   -9880.8968   -9775.1554   -1708.2261    12269.858    4.5741523 
    4850    930.41486   -9878.9436   -9775.1544   -1500.2495      12255.8    4.5833467 
    4860    920.36814   -9877.9135    -9775.245   -3094.5723    12241.469    4.5945743 
    4870    901.32539   -9875.9271   -9775.3829   -3593.7571     12226.36    4.6090484 
    4880    920.09767    -9878.183   -9775.5447   -5098.1382    12210.222    4.6274375 
    4890    967.26921   -9883.7029   -9775.8026    -7008.776    12192.508    4.6511049 
    4900    953.18632   -9882.5431   -9776.2137   -5889.9267    12172.642    4.6794673 
    4910    909.64031   -9878.1701   -9776.6983   -2569.4664    12151.167    4.7082516 
    4920    936.10232     -9881.64   -9777.2163   -1389.4457    12129.324    4.7346519 
    4930    969.68604   -9886.0137   -9777.8438    133.41552    12107.743    4.7607775 
    4940    947.68916   -9884.2849   -9778.5688    3623.2502    12087.124    4.7906666 
    4950    944.75326    -9884.737   -9779.3484    5913.3903    12068.732    4.8256684 
    4960    940.81851   -9885.1205   -9780.1708    6275.0603    12053.383    4.8632998 
    4970    948.78905   -9886.9134   -9781.0745    4503.8469    12041.063    4.9000946 
    4980    955.01181   -9888.6303   -9782.0973    2337.7483    12031.029     4.936308 
    4990    979.88098   -9892.5734   -9783.2662   -152.12287    12022.321    4.9746981 
    5000    955.02868   -9891.0884   -9784.5535   -1679.4987    12013.954    5.0165192 
Loop time of 2567.01 on 16 procs for 3000 steps with 864 atoms

Performance: 0.101 ns/day, 237.686 hours/ns, 1.169 timesteps/s
96.0% CPU use with 16 MPI tasks x 1 OpenMP threads

MPI task timing breakdown:
Section |  min time  |  avg time  |  max time  |%varavg| %total
---------------------------------------------------------------
Pair    | 1540       | 2106.7     | 2532.1     | 753.1 | 82.07
Bond    | 0.00023198 | 0.00056767 | 0.0014448  |   0.0 |  0.00
Neigh   | 0.040027   | 0.059492   | 0.073992   |   5.3 |  0.00
Comm    | 33.514     | 439.12     | 946.48     |1537.2 | 17.11
Output  | 0.37903    | 0.38312    | 0.4403     |   2.4 |  0.01
Modify  | 0.73339    | 20.714     | 80.105     | 753.4 |  0.81
Other   |            | 0.01323    |            |       |  0.00

Nlocal:        54.0000 ave          62 max          42 min
Histogram: 1 3 0 0 2 1 1 1 1 6
Nghost:        669.312 ave         751 max         605 min
Histogram: 8 0 0 0 0 0 1 3 0 4
Neighs:         0.00000 ave           0 max           0 min
Histogram: 16 0 0 0 0 0 0 0 0 0
FullNghs:      3491.00 ave        4207 max        2521 min
Histogram: 2 2 0 2 1 1 1 0 1 6

Total # of neighbors = 55856
Ave neighs/atom = 64.648148
Ave special neighs/atom = 0.0000000
Neighbor list builds = 300
Dangerous builds = 300
Setting up Verlet run ...
  Unit style    : metal
  Current step  : 5000
  Time step     : 0.001
Per MPI rank memory allocation (min/avg/max) = 8.899 | 8.907 | 8.913 Mbytes
Step Temp PotEng TotEng Press Volume c_msd[4] 
    5000    955.02868   -9891.0884   -9784.5535   -1679.4987    12013.954    5.0165192 
    5010    913.67567    -9886.512   -9784.5901   -3696.7417    12013.476    5.0338036 
    5020    928.23203   -9888.2383   -9784.6926   -5874.8821    12011.497    5.0522845 
    5030    948.68541   -9890.7128   -9784.8855   -6937.0262    12007.203    5.0751785 
    5040    958.92323   -9892.2183    -9785.249   -7779.3016    12000.119    5.1065571 
    5050    942.03921   -9890.8943   -9785.8084   -7799.9973    11989.947    5.1491649 
    5060    913.76382   -9888.4336   -9786.5019   -7090.3002    11976.674    5.2038086 
    5070     921.7734   -9890.1078   -9787.2826   -6385.1995    11960.563     5.269609 
    5080    932.02171   -9892.1291   -9788.1607   -3957.3025    11942.017    5.3453019 
    5090    929.83834   -9892.8306   -9789.1057   -1369.0862     11921.99    5.4293206 
    5100    956.75282   -9896.8439   -9790.1167   -1153.2764    11901.479    5.5200386 
    5110    968.71443    -9899.305   -9791.2435   -3006.5456    11880.631     5.616116 
    5120    938.37552   -9897.0999   -9792.4227   -3402.2799    11858.922    5.7161627 
    5130    929.12101   -9897.1547   -9793.5098    -2308.046    11836.282    5.8187747 
    5140    939.27621   -9899.2169   -9794.4392    328.31192    11813.285    5.9239716 
    5150    951.44097   -9901.3719   -9795.2372    2502.2919    11790.992    6.0322635 
    5160    964.76228   -9903.5758   -9795.9551    1163.7406    11770.174    6.1432491 
    5170    995.62931   -9907.7212   -9796.6572   -2448.0313    11750.416    6.2570166 
    5180    1010.0764   -9910.1005   -9797.4249    -6630.431    11730.422    6.3754174 
    5190    1034.3912   -9913.7341   -9798.3462   -7580.4266    11708.832    6.5005458 
    5200    1023.6164   -9913.5974   -9799.4114   -4738.7969    11685.478    6.6331144 
    5210    1027.5017   -9915.1957   -9800.5764   -3089.9327    11661.407    6.7717104 
    5220     1031.527   -9916.9281   -9801.8597   -2892.9641    11637.328    6.9166994 
    5230    1006.9783   -9915.4803   -9803.1503   -2094.2732    11613.461    7.0699553 
    5240    1047.3766   -9921.2823   -9804.4458   -1913.1595    11590.078    7.2307966 
    5250    1065.8071   -9924.7143    -9805.822    44.043762    11567.338    7.3975252 
    5260    1016.6014   -9920.6041   -9807.2007    5430.2554    11546.039    7.5663127 
    5270    986.69931   -9918.5239   -9808.4561    8824.4349    11527.857    7.7284752 
    5280    1009.1647   -9922.2487   -9809.6749    7582.8678    11513.723    7.8755575 
    5290    1005.0101   -9923.0714    -9810.961    5005.6016    11503.055    8.0064402 
    5300    987.98248   -9922.4813   -9812.2703    2393.4678    11494.769    8.1260403 
    5310    1012.3544   -9926.5603   -9813.6306   -121.93578    11487.756    8.2400301 
    5320    995.11273   -9926.0563     -9815.05   -63.736074    11481.128     8.350926 
    5330    953.63955   -9922.8172   -9816.4373    1487.8053    11474.834    8.4570293 
    5340    938.88608   -9922.4527   -9817.7185    1202.5445    11469.293    8.5543769 
    5350    959.64432   -9925.9901   -9818.9403    -1588.113    11464.339    8.6405099 
    5360    964.30228   -9927.7147   -9820.1453   -3553.3604    11459.036    8.7170511 
    5370    944.93604   -9926.7521   -9821.3431   -2968.2343    11452.761    8.7876437 
    5380    911.12272   -9924.1183   -9822.4812   -1843.2268    11445.705    8.8556417 
    5390    906.29595   -9924.6417    -9823.543   -1836.6011    11438.233    8.9234299 
    5400    915.59668    -9926.711   -9824.5748   -3953.8518    11430.297    8.9925295 
    5410    927.52823   -9929.1087   -9825.6416   -6122.7457    11421.237    9.0620067 
    5420    935.01532   -9931.0841   -9826.7817   -8102.7956    11410.282    9.1306153 
    5430    931.59694    -9931.892   -9827.9709   -7960.3309    11396.881      9.19987 
    5440    932.87622   -9933.2396   -9829.1758   -7540.5779    11381.105    9.2750847 
    5450    940.08954   -9935.2513   -9830.3829   -5768.6804    11363.225    9.3644982 
    5460    949.94775   -9937.5548   -9831.5867   -2039.3027    11343.987    9.4717737 
    5470    933.95735   -9936.8896   -9832.7053    3800.1405    11324.792     9.589874 
    5480    910.21316   -9935.1645   -9833.6289    9764.0111    11307.646    9.7016513 
    5490    940.17696   -9939.3265   -9834.4484    13587.532    11294.516    9.7930025 
    5500    957.25473   -9942.0942    -9835.311    14224.605     11286.54    9.8626148 
    5510    936.88779   -9940.7652   -9836.2539    13782.129    11283.786    9.9169465 
    5520    899.10395   -9937.4643   -9837.1679    13216.051    11285.931    9.9611951 
    5530    941.39337   -9943.0859    -9838.072    9854.5692    11292.516    9.9965343 
    5540    942.37247    -9944.107    -9838.984    5949.5806    11302.329    10.022957 
    5550     926.1773   -9943.2041   -9839.8876    1460.5703    11313.891    10.038405 
    5560    931.86395   -9944.7597   -9840.8089   -3489.7986    11325.569    10.043254 
    5570     884.6541   -9940.3864   -9841.7019   -5249.8053    11335.774    10.041171 
    5580    866.80766   -9939.2069   -9842.5132   -8009.1441    11343.762    10.032641 
    5590    894.70979   -9943.0815   -9843.2753   -11167.801    11348.669    10.018031 
    5600    867.56587   -9940.7805   -9844.0022   -9219.9644    11349.663    9.9992374 
    5610    851.69555   -9939.6707   -9844.6628    -6103.887    11347.389    9.9754969 
    5620    869.34768    -9942.195    -9845.218   -4161.4178    11342.982    9.9476855 
    5630    889.89679   -9944.9348   -9845.6655   -2294.2939    11337.232    9.9183312 
    5640    901.78248    -9946.637   -9846.0418   -666.71133    11330.803    9.8870467 
    5650     889.0196   -9945.5244   -9846.3529    1921.5136    11324.341    9.8522695 
    5660    878.37939   -9944.5508   -9846.5663    5024.0871    11318.758    9.8135975 
    5670    900.50341   -9947.1575    -9846.705    6703.6879    11315.072     9.774811 
    5680     903.7204   -9947.6588   -9846.8475    7453.0082    11313.835    9.7427341 
    5690    888.34304   -9946.1375   -9847.0415    6626.4034    11315.196    9.7188372 
    5700    895.09736    -9947.117   -9847.2675    2692.5254    11318.758    9.6995192 
    5710    882.37391   -9945.9134   -9847.4833   -590.52219    11323.227    9.6851699 
    5720    884.76419   -9946.3877   -9847.6909   -3747.4792    11327.365    9.6814083 
    5730     892.4992   -9947.4599   -9847.9002   -5594.2502    11330.111    9.6954406 
    5740    902.07165   -9948.7532   -9848.1257   -5107.5554    11330.886    9.7317464 
    5750    903.62884   -9949.1858   -9848.3846   -3744.2554    11329.858    9.7894366 
    5760     862.0031   -9944.7858   -9848.6281   -2370.0592    11327.534    9.8613182 
    5770    866.48947     -9945.46   -9848.8018   -2172.6525    11324.382    9.9358464 
    5780    896.17699   -9948.8621   -9848.8922   -1757.2208    11320.526    10.004912 
    5790    915.69338    -9951.091    -9848.944    364.34457     11316.21     10.06526 
    5800     907.4196   -9950.2031   -9848.9791    2545.9155    11312.139    10.114589 
    5810      901.935   -9949.6053    -9848.993    2553.5718    11309.002    10.150861 
    5820    892.66837   -9948.5689   -9848.9904    2611.7801    11306.874     10.17514 
    5830    888.08652   -9948.0383   -9848.9709    3173.0052    11305.735      10.1916 
    5840    947.28401   -9954.6388   -9848.9678    2756.0493    11305.688     10.20547 
    5850    969.74229   -9957.2527   -9849.0765    3320.5993    11306.649    10.221797 
    5860    906.81995   -9950.4887   -9849.3316     5628.465    11308.836    10.239544 
    5870    883.31256   -9948.1756   -9849.6408    4952.0574     11312.87    10.249944 
    5880    911.81531   -9951.6833   -9849.9689    -446.0688    11318.389    10.248202 
    5890    872.29186   -9947.5812   -9850.2757   -3963.6826    11323.715    10.239191 
    5900     882.7071   -9949.0165   -9850.5492   -6124.5683    11327.573    10.229033 
    5910    911.41407   -9952.4759   -9850.8063    -8325.364    11329.173    10.222956 
    5920    915.98632   -9953.2844   -9851.1047   -9193.1706    11327.844    10.225793 
    5930     906.9785   -9952.6326   -9851.4578   -7040.0087     11323.39    10.240236 
    5940    892.98762   -9951.4306   -9851.8164   -3024.2505    11316.586    10.264672 
    5950    893.69185   -9951.8284   -9852.1357    119.45926     11308.82    10.296622 
    5960    895.12564   -9952.2693   -9852.4167    2011.2463    11301.212    10.336339 
    5970    914.83271   -9954.7448   -9852.6938    2555.0292    11294.426    10.384348 
    5980    928.69086   -9956.6207   -9853.0239    1900.1764    11288.651    10.439989 
    5990    928.40084   -9956.9915    -9853.427    1567.8228    11283.677    10.500165 
    6000    933.71037   -9958.0826   -9853.9258    2136.4518    11279.371    10.559308 
    6010    894.18507   -9954.2273   -9854.4796    4117.8113    11275.971    10.615337 
    6020    886.39223   -9953.8912   -9855.0128    2965.6635    11273.983    10.670692 
    6030    935.25967   -9959.9031   -9855.5735   -384.15333    11272.991    10.730801 
    6040    910.01552    -9957.698   -9856.1844   -422.08971    11272.007    10.801104 
    6050    891.42522   -9956.2513   -9856.8114    235.96572    11270.898    10.879396 
    6060    896.10648   -9957.3736   -9857.4116    685.33298    11269.884    10.957701 
    6070    898.84166   -9958.2368   -9857.9697    601.30593    11269.111    11.030164 
    6080    892.30724   -9958.0127   -9858.4745   -223.64035    11268.551    11.095885 
    6090    905.94636   -9959.9977    -9858.938   -3365.8641    11267.855    11.156657 
    6100     933.0231   -9963.5018   -9859.4217   -6699.6941    11265.975     11.21689 
    6110    892.72537   -9959.5204   -9859.9356   -6018.1548    11261.905    11.280627 
    6120    867.92449    -9957.209   -9860.3907   -3348.9515    11255.883    11.346163 
    6130    919.96487   -9963.4096   -9860.7862   -2312.9709    11248.764    11.408907 
    6140    917.60196   -9963.5494   -9861.1895   -1059.0286    11240.976    11.469036 
    6150    882.16204   -9959.9929   -9861.5864    741.53698    11232.992    11.529606 
    6160     887.2238   -9960.9097   -9861.9386    2484.8844    11225.428    11.590216 
    6170    857.19229   -9957.8313   -9862.2102    6745.9346     11218.99    11.645281 
    6180    865.61618   -9958.9491   -9862.3883    8655.2151    11214.943     11.68584 
    6190    929.15485   -9966.1959   -9862.5473    7384.5175    11213.876    11.708269 
    6200    917.85198   -9965.1461   -9862.7583     5684.875     11215.38    11.717493 
    6210    898.59778   -9963.2472   -9863.0072    2853.3586    11218.781    11.720055 
    6220    907.39242   -9964.4759   -9863.2549   -324.87614    11223.107    11.718516 
    6230    893.88544   -9963.2093    -9863.495   -2777.7999     11227.27     11.71279 
    6240    885.99625   -9962.5694   -9863.7352   -3982.0178     11230.44    11.700138 
    6250    892.80318   -9963.5474   -9863.9539   -5366.2118    11232.164    11.678068 
    6260    911.87351   -9965.8933   -9864.1724   -6334.8368    11231.994    11.653396 
    6270    895.28776   -9964.2735   -9864.4028   -4204.4411    11229.757     11.63734 
    6280     921.2077   -9967.4276   -9864.6655   -1887.4755    11226.092    11.630732 
    6290    910.13238    -9966.497   -9864.9704    1971.9371    11221.871    11.625795 
    6300    876.90366   -9963.1063   -9865.2864    4952.8025    11218.383    11.613517 
    6310    920.09678    -9968.251   -9865.6128    4614.9747    11216.588    11.590975 
    6320    941.42841   -9971.0459   -9866.0282    3180.1085    11216.397    11.565899 
    6330    871.84858   -9963.7602   -9866.5041    1952.5663     11217.34    11.547062 
    6340    886.31756   -9965.8554   -9866.9854   -2294.1521    11218.855    11.537352 
    6350    918.52751   -9969.9781   -9867.5149   -6134.0493     11219.57    11.539255 
    6360    892.19009   -9967.6505   -9868.1253    -5674.266    11218.287    11.554078 
    6370    900.42231   -9969.2482   -9868.8047   -4954.3341    11215.025    11.579858 
    6380    890.98142   -9968.9275   -9869.5372    -3487.691    11210.106     11.61359 
    6390    857.43394   -9965.9073   -9870.2593   -103.25721    11204.103    11.650938 
    6400    871.57781   -9968.1525   -9870.9267    2104.3012    11198.083    11.688661 
    6410    901.06984   -9972.0907    -9871.575     4558.618    11192.897     11.72785 
    6420    885.43797   -9970.9877   -9872.2157    7637.9928    11189.405    11.770157 
    6430    854.93636   -9968.1791   -9872.8097     8511.594    11188.546    11.811867 
    6440    861.16387    -9969.389   -9873.3249    5522.0781     11190.54    11.847712 
    6450    895.60345   -9973.6854   -9873.7795    449.25428     11194.38    11.876729 
    6460    884.73863   -9972.8941   -9874.2002   -3172.6234    11198.386     11.90039 
    6470    856.76095   -9970.1254   -9874.5524   -5003.7028    11201.289    11.919576 
    6480    873.00294   -9972.1896   -9874.8048   -7613.3865    11202.373    11.933082 
    6490    888.37239    -9974.109   -9875.0097   -7761.9963    11200.882    11.938715 
    6500    859.66416   -9971.0782   -9875.1814   -5249.5233    11196.782    11.937677 
    6510    867.31816    -9972.048   -9875.2974   -2294.1711    11190.934    11.933478 
    6520    857.12769     -9970.94   -9875.3261    1141.4056    11184.387    11.927857 
    6530    846.59313   -9969.6983   -9875.2596     5041.173    11178.343    11.918549 
    6540    870.30836    -9972.168   -9875.0838    6653.7814    11174.048    11.901397 
    6550    897.87789   -9975.0004   -9874.8407    7086.9377    11172.093    11.875891 
    6560    872.55743   -9971.8943   -9874.5592     6934.986     11172.61    11.843195 
    6570    859.15429   -9970.0585   -9874.2186    5051.8455    11175.477    11.805204 
    6580    870.25386   -9970.8451    -9873.767    2422.4553    11180.056    11.766349 
    6590    878.74486   -9971.2297   -9873.2044    -365.5313    11185.421    11.728949 
    6600    898.98751   -9972.8224   -9872.5389   -2949.9099    11190.612    11.692911 
    6610    905.59735    -9972.817   -9871.7963   -4999.1357    11194.743    11.660986 
    6620    877.80777    -9968.919   -9870.9982   -5514.9223    11197.144    11.638555 
    6630    870.70432   -9967.2557   -9870.1273   -5724.3391    11197.603    11.628061 
    6640    886.22539   -9968.0071   -9869.1473    -4989.839    11196.097    11.628154 
    6650    882.83552   -9966.5915   -9868.1099   -1837.7027    11192.973    11.637774 
    6660    908.85313    -9968.474   -9867.0901    1379.9387     11189.25    11.659104 
    6670     903.1747   -9966.9442   -9866.1937    3389.4942    11186.008    11.694987 
    6680     889.6456   -9964.7349   -9865.4936    4827.9625    11183.962    11.741111 
    6690     885.9451   -9963.7948   -9864.9663     6461.414    11183.635    11.786814 
    6700    904.96263   -9965.5277   -9864.5778    6412.5161    11185.511     11.82082 
    6710    925.50549   -9967.5496   -9864.3081    4373.3454    11189.534    11.836975 
    6720    896.58828   -9964.1514   -9864.1356    2236.4464    11195.037    11.836978 
    6730     895.6441   -9963.9157   -9864.0052   -1097.3201    11201.239    11.826169 
    6740    946.44054   -9969.4803   -9863.9034   -6601.7303    11206.912    11.808614 
    6750    943.32142   -9969.1415   -9863.9126    -8453.958    11210.323    11.786655 
    6760    906.58348    -9965.171   -9864.0403   -6018.5587    11210.891    11.759603 
    6770    931.56762   -9968.1534   -9864.2356   -3948.2683    11209.322    11.724038 
    6780    905.74728   -9965.5065    -9864.469   -1306.0266    11206.411    11.679976 
    6790    880.77049   -9962.9355   -9864.6842    1758.5702     11203.11    11.632886 
    6800    914.42556   -9966.8769   -9864.8714    2119.4562     11200.35    11.589969 
    6810    895.88617   -9964.9842   -9865.0467    3081.0265    11198.401     11.55272 
    6820    912.85952   -9967.0291   -9865.1983    1294.2772    11197.464    11.515919 
    6830    973.96553   -9974.0555   -9865.4081   -2844.2221    11196.902    11.478037 
    6840    921.47512   -9968.5409   -9865.7489   -1197.9421    11195.558    11.444702 
    6850    916.34418   -9968.3846    -9866.165    1011.4232    11193.825     11.41959 
    6860    957.70967   -9973.5013   -9866.6674    783.80025    11192.397    11.405165 
    6870    919.02485   -9969.7887   -9867.2701    1767.6845    11191.307    11.401077 
    6880    902.92058   -9968.6346   -9867.9125    2931.7156    11190.846    11.399711 
    6890    911.48601   -9970.2389   -9868.5613    4488.3137    11191.447    11.395097 
    6900    916.31233   -9971.4347   -9869.2187    4464.9638    11193.565    11.390586 
    6910    928.52503   -9973.4901   -9869.9117    1487.9528    11197.133    11.394572 
    6920    919.31595     -9973.18   -9870.6289    -2343.668     11201.15    11.412271 
    6930    901.04408   -9971.8478    -9871.335   -4095.7138    11204.376    11.441773 
    6940    890.22172   -9971.2825   -9871.9769   -4793.3099    11206.193    11.477581 
    6950    907.71012   -9973.8492   -9872.5928    -6131.968    11206.278    11.522205 
    6960    892.66752   -9972.7609   -9873.1825   -5327.9108     11204.29    11.583716 
    6970     921.1824   -9976.5027   -9873.7434   -4778.0248    11200.437    11.661836 
    6980    916.09308   -9976.4773   -9874.2857   -3808.3248    11194.975    11.746706 
    6990    874.69392   -9972.3459   -9874.7725   -1696.2712    11188.286    11.826499 
    7000    889.56869   -9974.4208   -9875.1881   -28.095082    11181.056    11.895135 
    7010    895.62538   -9975.4467   -9875.5384     2979.164    11173.967    11.952578 
    7020    914.83265   -9977.9309     -9875.88    5219.8709    11167.947    12.000309 
    7030    923.36688   -9979.2527   -9876.2498      6499.23    11163.772    12.042133 
    7040    921.61091   -9979.4803   -9876.6732    5890.4676    11161.838    12.080837 
    7050    903.24193   -9977.8804   -9877.1224    4841.5484    11161.981    12.113229 
    7060    903.90807    -9978.404   -9877.5717    2701.2521    11163.766    12.134308 
    7070    909.47199   -9979.4812   -9878.0282      1128.16    11166.489      12.1457 
    7080    888.37088   -9977.5793   -9878.4802   -35.768992    11169.581     12.15119 
    7090    887.87208   -9977.9393   -9878.8959   -1696.7422    11172.627    12.154944 
    7100    908.98456   -9980.6763   -9879.2777   -4674.9897     11175.01    12.160966 
    7110     916.7566   -9981.9375   -9879.6719   -5696.6403    11175.814    12.170882 
    7120    909.49274   -9981.5513    -9880.096   -4831.4869     11174.71    12.182919 
    7130    918.82831   -9983.0537   -9880.5571   -5162.7151    11171.882    12.194945 
    7140    910.40919   -9982.6016    -9881.044   -2820.1517    11167.377     12.20733 
    7150    882.96521   -9979.9908   -9881.4947   -101.07605    11161.939    12.220581 
    7160    893.87694   -9981.5983   -9881.8849    633.78959    11156.439    12.234022 
    7170    890.13562   -9981.5451   -9882.2491    2873.9304    11151.253    12.247207 
    7180    853.52989   -9977.7692   -9882.5567     5735.862    11147.116    12.258788 
    7190    895.61456   -9982.7276   -9882.8204     6694.522    11144.942    12.267747 
    7200    907.11074   -9984.2756   -9883.0861    5980.8148    11145.032    12.276332 
    7210    893.27792   -9983.0172   -9883.3707    4866.3747    11147.192    12.287402 
    7220    902.89885   -9984.3801   -9883.6603    1996.7353    11150.963    12.301369 
    7230    876.80767    -9981.703   -9883.8938   -496.15772    11155.429    12.316227 
    7240    895.34897   -9983.9316    -9884.054   -2369.9742    11159.707    12.330223 
    7250    911.92762   -9985.9096   -9884.1827   -1643.4919    11163.208    12.345919 
    7260    894.04774   -9984.0509   -9884.3185   -489.61753    11166.142    12.362458 
    7270    900.98198   -9984.9764   -9884.4705   -2011.6089    11168.795    12.375042 
    7280    896.15279   -9984.6113   -9884.6441   -3715.9173    11170.724    12.381804 
    7290    886.25653   -9983.7063   -9884.8431   -3694.1085     11171.42    12.383143 
    7300    890.07549   -9984.3566   -9885.0673   -3562.5742    11170.839    12.383987 
    7310    887.70096   -9984.3136   -9885.2892   -3151.8227    11169.031    12.392139 
    7320    922.90461   -9988.4547   -9885.5033    -2873.303    11166.123    12.409345 
    7330    943.94231   -9991.0794   -9885.7812   -2662.3963    11162.225    12.430677 
    7340    916.17344   -9988.3679   -9886.1674   -119.41509    11157.518    12.449768 
    7350    910.47958   -9988.2348   -9886.6695     1417.669     11152.75    12.460647 
    7360    885.83587   -9986.0715   -9887.2552    3301.7115    11148.541    12.457403 
    7370    919.92653   -9990.5792     -9887.96    3168.8785    11145.451    12.435063 
    7380    948.78779   -9994.6997    -9888.861    1688.5376    11143.441    12.393463 
    7390    925.55803   -9993.2153    -9889.968    962.74249    11142.056    12.334746 
    7400    878.64457   -9989.1613   -9891.1472    583.83447    11141.041    12.265091 
    7410    900.09902   -9992.6774     -9892.27   -1053.2815    11140.199    12.195353 
    7420    929.69372   -9997.0573   -9893.3485   -2060.7879    11139.016    12.134255 
    7430    893.11857   -9993.8929   -9894.2642   -432.96278    11137.247    12.082067 
    7440    908.06272   -9996.2789   -9894.9832   -678.28648    11135.293    12.034669 
    7450    902.58519   -9996.2402   -9895.5555   -716.32159    11133.139    11.996589 
    7460    843.84889   -9990.1116    -9895.979    2425.4132    11130.881    11.978427 
    7470    833.34512   -9989.1892   -9896.2283    3268.1031    11129.414    11.984744 
    7480    901.48219   -9996.9552   -9896.3935    922.25459    11128.978    12.014714 
    7490    895.34626   -9996.4205   -9896.5433    550.13706    11128.919    12.063965 
    7500    881.17165   -9994.9922   -9896.6961    1526.8762    11129.096    12.123965 
    7510    890.64603   -9996.1612   -9896.8083    1338.9042    11129.762    12.189038 
    7520    872.85029   -9994.2272   -9896.8594    308.08371    11130.848    12.258989 
    7530    857.49914   -9992.4534   -9896.7981   -699.91691     11132.05    12.333407 
    7540    900.80856   -9997.1197   -9896.6332    -3096.074    11132.941    12.409042 
    7550    924.63476   -9999.5737   -9896.4293    -3885.378    11132.812    12.482189 
    7560    905.85032   -9997.3089   -9896.2599   -2105.4715    11131.427    12.545432 
    7570    845.14856   -9990.3602   -9896.0826    74.430011    11129.338    12.590057 
    7580    870.06052   -9992.9237   -9895.8672    490.14003    11127.237    12.613469 
    7590     883.3737   -9994.1477    -9895.606    2230.5945    11125.373    12.619199 
    7600    860.61125   -9991.3259   -9895.3234    4343.0747    11124.318    12.608768 
    7610    894.65227   -9994.7919   -9894.9921    3443.2109    11124.663    12.582389 
    7620      918.818   -9997.1069   -9894.6114     2004.747    11126.182    12.543904 
    7630    923.93835   -9997.3196   -9894.2529    479.20246    11128.353    12.498684 
    7640    891.07642   -9993.3297   -9893.9288     336.1081    11130.704    12.450541 
    7650    857.13852   -9989.1974   -9893.5823    146.60078    11133.137    12.400231 
    7660    884.46199    -9991.786    -9893.123   -1308.0154    11135.537    12.348488 
    7670    941.71385   -9997.6335   -9892.5839    -2500.813    11137.454    12.298398 
    7680    938.93567   -9996.8343   -9892.0947   -1505.3046    11138.555    12.253628 
    7690    892.51664   -9991.2494   -9891.6878    -746.5579    11139.128    12.215374 
    7700    896.71444    -9991.341   -9891.3112   -3034.0154    11139.348    12.183513 
    7710    901.70219   -9991.5338   -9890.9476    -3808.168     11138.57    12.160815 
    7720    888.21826   -9989.6803   -9890.5983   -2000.7145    11136.578    12.151796 
    7730    932.73421   -9994.3021   -9890.2542    -2470.246    11133.833    12.159946 
    7740    966.01043   -9997.7403   -9889.9804    -1821.492    11130.291    12.189649 
    7750    939.91769   -9994.6927   -9889.8435    3051.3134    11126.324    12.239399 
    7760    935.31771   -9994.1289   -9889.7928    5788.1608    11123.383    12.297376 
    7770    934.25817   -9994.0017   -9889.7838    6200.6714    11122.394    12.354809 
    7780     922.9204   -9992.7713   -9889.8181    6086.0854    11123.532    12.409574 
    7790    923.11454     -9992.88   -9889.9052     4318.335    11126.696    12.460091 
    7800    938.32129   -9994.7237   -9890.0525    1314.0697    11131.269    12.503249 
    7810      975.706   -9999.1742   -9890.3327   -2016.8326    11136.208    12.533809 
    7820     945.7419   -9996.3051   -9890.8062   -2962.1824    11140.475    12.548134 
    7830    937.13387   -9996.0173   -9891.4786   -4153.1381    11143.654     12.54838 
    7840    957.19246   -9999.1289   -9892.3527   -5641.4722    11145.359    12.542071 
    7850    966.32687   -10001.264   -9893.4686     -7116.47    11145.092    12.535441 
    7860    935.01715   -9999.0462   -9894.7436   -6888.5881    11142.455    12.529529 
    7870    927.10782    -9999.447   -9896.0267   -6195.5976    11137.473    12.521743 
    7880    909.65321   -9998.6478   -9897.1746   -2868.1209    11130.514    12.511896 
    7890    911.12898   -9999.7407   -9898.1029    773.91293    11122.675     12.49975 
    7900    926.94694   -10002.232   -9898.8296    3457.4453    11115.182     12.48389 
    7910    902.08928   -10000.009   -9899.3799    7225.5871    11109.001    12.464193 
    7920    882.24477   -9998.1833   -9899.7676    9163.7001    11105.305    12.440114 
    7930    924.03622   -10003.162   -9900.0843     8704.542    11104.712    12.416343 
    7940    915.84659   -10002.556   -9900.3923    10173.742    11107.188    12.403103 
    7950    890.27478   -10000.006   -9900.6941    10683.279    11113.113    12.401239 
    7960    893.37945   -10000.618   -9900.9598    6974.4258    11122.493    12.402707 
    7970     891.8715   -10000.662   -9901.1729    1152.2998    11134.075    12.403148 
    7980    895.68723   -10001.253   -9901.3377   -5595.2562    11145.867    12.403799 
    7990    887.74446   -10000.474   -9901.4446   -11140.427    11155.601    12.410305 
    8000    918.50242   -10004.021   -9901.5608    -15503.48    11161.374    12.431482 
    8010    905.75874   -10002.785   -9901.7462   -15675.922    11161.852     12.47424 
    8020    874.42982   -9999.5097   -9901.9657   -12344.656    11157.029    12.534559 
    8030    905.51631   -10003.182   -9902.1702    -9074.361    11148.012    12.600277 
    8040      897.093     -10002.4   -9902.3276     -3048.28    11136.129    12.660511 
    8050    878.83449   -10000.468    -9902.433    3379.0578    11123.424    12.708523 
    8060     876.1167   -10000.217   -9902.4846       6971.9    11111.988    12.745099 
    8070    888.02202   -10001.555   -9902.4945    9270.7089    11103.092    12.769777 
    8080     934.8772   -10006.816   -9902.5294    10080.897    11097.446    12.777248 
    8090    918.49854   -10005.089   -9902.6294    11215.745    11095.335    12.765993 
    8100    895.13454    -10002.64   -9902.7869    10104.127    11097.011    12.737653 
    8110    889.83562   -10002.216   -9902.9535    7658.3312    11102.081    12.697919 
    8120    865.82838   -9999.6612   -9903.0768    5588.0355     11109.73    12.652022 
    8130    901.01997   -10003.656   -9903.1463    954.77714    11119.084    12.601192 
    8140    910.90442   -10004.801   -9903.1885   -2323.8797    11128.687    12.549811 
    8150     888.8787    -10002.39   -9903.2343   -5093.0336    11137.391    12.504202 
    8160    910.02136   -10004.798   -9903.2837   -9105.8952    11144.195    12.469041 
    8170    898.95851    -10003.64   -9903.3594   -11841.515     11147.81    12.447787 
    8180    878.77925   -10001.505   -9903.4761   -11568.302    11147.393    12.439995 
    8190    891.29185   -10003.025   -9903.6004   -9842.5229    11143.024    12.444743 
    8200    888.18067   -10002.778   -9903.6997   -6231.3988    11135.394    12.463829 
    8210    896.05349   -10003.701    -9903.745   -2130.5734    11125.765    12.496328 
    8220    918.27373   -10006.184   -9903.7492    1324.1455    11115.524    12.536338 
    8230    910.27498   -10005.308   -9903.7656    5167.7739    11105.897    12.575523 
    8240    863.15897   -10000.058   -9903.7712    9414.4969    11098.202    12.606743 
    8250    883.16943   -10002.265   -9903.7458    10580.615    11093.737    12.626657 
    8260    914.87187   -10005.774   -9903.7184    9376.5841    11092.866    12.637387 
    8270    902.27334   -10004.393   -9903.7427    8082.4226    11095.199    12.639101 
    8280    892.97582   -10003.413   -9903.8003    5099.1142    11100.214    12.627488 
    8290    889.81389   -10003.101   -9903.8411    2164.1329    11106.933    12.602025 
    8300    876.90458   -10001.639   -9903.8192    732.78808    11114.379    12.570043 
    8310    914.49032   -10005.758   -9903.7451    -2847.342    11121.919    12.541776 
    8320    925.55429   -10006.897   -9903.6503   -5762.9708    11128.429    12.523571 
    8330    909.51968   -10005.056   -9903.5977   -6042.5279    11132.956    12.511651 
    8340     884.1764   -10002.182   -9903.5503   -5139.1882    11135.396    12.496176 
    8350    905.39024   -10004.494   -9903.4963   -4828.5501    11136.027    12.474763 
    8360    897.87233     -10003.6   -9903.4413    -4750.474    11134.968    12.458831 
    8370     884.6259   -10002.093   -9903.4112   -3074.1594    11132.349    12.461209 
    8380    862.47722   -9999.5646    -9903.354   -1120.4321    11128.733    12.483574 
    8390    882.64466   -10001.687   -9903.2265   -675.56799    11124.727    12.515628 
    8400    905.27333   -10004.009   -9903.0247     142.5485    11120.546    12.546516 
    8410    897.92625   -10002.947   -9902.7815    2056.4268    11116.498    12.573212 
    8420    903.75877   -10003.321   -9902.5056    2084.9645    11113.134     12.59877 
    8430    919.57603    -10004.78   -9902.2003    724.19408    11110.481    12.627232 
    8440    920.12533   -10004.516    -9901.875    1042.9836    11108.173    12.655359 
    8450    936.17469   -10006.005   -9901.5736    3145.1029     11106.32    12.673378 
    8460    911.55289   -10003.009   -9901.3237    4905.0336     11105.55    12.676613 
    8470    905.17345    -10002.09   -9901.1161    4788.3814    11106.387    12.667367 
    8480    912.20387   -10002.688   -9900.9306    4531.0024    11108.852    12.650641 
    8490    864.86555   -9997.2262   -9900.7491    6263.6652    11112.918    12.628437 
    8500    879.23512   -9998.6076   -9900.5276    5203.4468    11118.998    12.595683 
    8510    923.59276   -10003.258   -9900.2302    1200.9042    11126.742    12.551701 
    8520    904.82553   -10000.833   -9899.8988   -2290.6501    11134.875    12.504338 
    8530    897.19856   -9999.6316   -9899.5478   -5270.4985    11142.175    12.459447 
    8540    915.98195   -10001.338   -9899.1587   -7534.2568    11147.613     12.41981 
    8550    921.88599    -10001.61   -9898.7724    -8247.503    11150.439    12.386331 
    8560    908.91059   -9999.8034   -9898.4131   -6682.8219    11150.472    12.357124 
    8570    914.10955   -10000.033   -9898.0626   -5635.2736    11148.169    12.332079 
[...]
   22890    945.67363   -10023.952   -9918.4605    10824.084    11049.955    12.523975 
   22900    882.80448   -10017.417   -9918.9389    10490.588    11051.887    12.491923 
   22910     910.3508   -10020.972   -9919.4208    6853.9605    11057.315    12.472849 
   22920    945.20405   -10025.354   -9919.9155    2866.0615    11065.083    12.471135 
   22930    939.33394   -10025.237   -9920.4526    212.57312    11073.901    12.485545 
   22940     929.5549   -10024.675   -9920.9819   -2179.2256    11082.831    12.508991 
   22950    914.50844   -10023.443   -9921.4284   -3604.6866     11091.08    12.535694 
   22960    910.15818   -10023.285   -9921.7554    -5583.497    11098.106    12.564544 
   22970    923.85873   -10025.075   -9922.0175   -9374.6689    11103.136    12.597469 
   22980    929.04253   -10025.921   -9922.2849   -12764.206    11104.946    12.637878 
   22990    910.91185   -10024.187   -9922.5737   -13069.935    11102.473      12.6864 
   23000    886.09119   -10021.699   -9922.8546   -9346.9583    11095.655     12.73885 
   23010    905.88517   -10024.167    -9923.114   -4481.0667    11085.677    12.789135 
   23020    935.13996   -10027.704   -9923.3874    479.62213    11074.206    12.833003 
   23030    922.13206   -10026.554   -9923.6887     4844.666    11062.917    12.868736 
   23040    903.75708   -10024.814   -9923.9983    9028.0615     11053.31    12.893252 
   23050    897.22234   -10024.387   -9924.3009    12513.379    11046.785    12.902865 
   23060    905.02372   -10025.547   -9924.5901    13095.597    11044.445    12.896405 
   23070    936.26216    -10029.35    -9924.909    9589.1374    11046.422    12.875142 
   23080    914.29092   -10027.264   -9925.2739    6927.9889    11051.698    12.843462 
   23090    882.22196   -10024.055   -9925.6417    4765.6524    11059.356    12.805767 
   23100    898.37408   -10026.183   -9925.9685    389.57524    11068.566    12.764906 
   23110    901.01534   -10026.754   -9926.2447   -2547.3235    11077.958    12.725166 
   23120     883.2123   -10024.984   -9926.4603   -4797.0339    11086.472    12.689826 
   23130    887.46751   -10025.623   -9926.6249   -7057.7481    11093.323    12.658266 
   23140    897.99653   -10026.959   -9926.7857    -7326.751     11097.81    12.630414 
   23150    903.50143   -10027.762   -9926.9751    -7145.631    11099.787    12.610519 
   23160    891.36819   -10026.611   -9927.1771   -6538.6747    11099.329    12.604443 
   23170    900.99718   -10027.888   -9927.3806   -5762.5871    11096.641    12.614755 
   23180      903.162   -10028.342   -9927.5933   -4490.6002        11092    12.640733 
   23190    891.61764   -10027.262   -9927.8007   -3109.3242    11085.835    12.675395 
   23200    927.87705    -10031.54   -9928.0334   -1012.6045    11078.635    12.707646 
   23210    882.79195   -10026.742   -9928.2656     2806.122    11071.161    12.730403 
   23220    847.41705   -10022.972   -9928.4418    5685.6478    11064.655    12.742118 
   23230    873.53535   -10025.975   -9928.5306    4556.0021    11059.974    12.747709 
   23240     913.9959   -10030.555   -9928.5969    3198.4671     11056.87    12.754661 
   23250    919.73724     -10031.3   -9928.7016    3130.4498     11054.89    12.765243 
   23260    903.24772   -10029.624   -9928.8649    4484.0883    11054.026    12.773284 
   23270    867.81249   -10025.847   -9929.0412    5597.5306    11054.687    12.770003 
   23280    876.71951   -10026.993   -9929.1937    4246.1996    11057.183    12.754522 
   23290    895.18672    -10029.18   -9929.3204    3045.2579     11061.15    12.734426 
   23300    877.45813   -10027.328   -9929.4465    2581.2262    11066.188    12.715051 
   23310    877.89147   -10027.481   -9929.5512    408.77044    11072.059    12.694564 
   23320    895.00773   -10029.469   -9929.6299   -1965.2484    11078.076    12.670458 
   23330    889.84742   -10028.966   -9929.7025   -3722.4226    11083.444    12.644847 
   23340    891.98167   -10029.271   -9929.7692   -6519.4956    11087.497    12.623583 
   23350    893.68651    -10029.51   -9929.8175   -8156.8636    11089.375    12.611854 
   23360    888.37137   -10028.963   -9929.8637   -6957.1015    11088.544    12.611332 
   23370    867.13338   -10026.615   -9929.8848   -5018.4025    11085.343    12.618969 
   23380    893.16444   -10029.512   -9929.8781   -4354.2928     11080.35    12.628712 
   23390    880.64549   -10028.068   -9929.8307   -1909.4647    11073.914    12.638681 
   23400    875.91558   -10027.449   -9929.7396    1487.4368    11066.844    12.649875 
   23410    881.45435   -10027.903   -9929.5751     5176.368    11060.291    12.662956 
   23420    872.06424   -10026.614    -9929.334    7118.2987    11055.456    12.675095 
   23430    895.18178   -10028.875   -9929.0157     6521.839     11052.96    12.681719 
   23440    915.32981   -10030.751   -9928.6446    6450.8239    11052.706    12.682264 
   23450    904.40484   -10029.158   -9928.2707    5958.8542     11054.67    12.679091 
   23460    903.43516   -10028.691   -9927.9111     4080.334    11058.627     12.67768 
   23470    891.14808   -10026.958    -9927.549    3633.7628    11064.053    12.685067 
   23480    888.26645   -10026.262   -9927.1742    2179.9471     11070.71    12.703491 
   23490    892.94959   -10026.369   -9926.7596   -668.67782    11078.111    12.728893 
   23500    877.77158   -10024.201   -9926.2847   -3922.8046    11085.308    12.753162 
   23510    925.63414   -10029.023    -9925.767   -7655.8842    11091.152    12.770056 
   23520    914.98563   -10027.322   -9925.2541   -8212.0632    11094.484    12.780923 
   23530    865.39967   -10021.328   -9924.7914   -7321.9311    11095.061    12.790452 
   23540    916.84947    -10026.59    -9924.314   -9223.0968    11093.005    12.801551 
   23550    919.35728   -10026.386   -9923.8302   -8694.1317    11087.843    12.816485 
   23560    903.71218    -10024.21   -9923.3992   -4276.5973    11079.793    12.832136 
   23570    915.39533   -10025.085   -9922.9716    2261.8679    11070.306    12.843527 
   23580    933.67189   -10026.717    -9922.565    7397.0949      11061.5    12.846893 
   23590    911.39017   -10023.889   -9922.2217    11002.452    11055.158    12.840352 
   23600    896.50453   -10021.939   -9921.9325    11205.419    11052.458    12.823498 
   23610    916.81847   -10023.937   -9921.6644    8686.5502    11053.506    12.797801 
   23620    943.72561   -10026.711   -9921.4367    6633.2095    11057.547    12.767491 
   23630    934.32669   -10025.522   -9921.2966      4786.88    11063.881    12.737314 
   23640    916.67647   -10023.479   -9921.2225    2358.8592    11071.896    12.709039 
   23650    908.08763   -10022.466   -9921.1675    -1035.131    11080.741    12.681649 
   23660    907.49529   -10022.329   -9921.0964    -4917.492    11089.283    12.656659 
   23670    962.74532   -10028.475   -9921.0796   -9124.3104    11096.182    12.639287 
   23680    920.33522   -10023.857   -9921.1924   -8269.7815    11100.175    12.635825 
   23690    880.92017   -10019.654    -9921.386    -6113.646    11101.368    12.644189 
   23700    941.63783   -10026.656   -9921.6149    -6998.654    11100.347    12.658669 
   23710    929.61326    -10025.63   -9921.9305   -6358.4536    11096.966    12.679711 
   23720    879.60468   -10020.418   -9922.2965   -4324.3328    11091.403    12.707877 
   23730    913.58937   -10024.589   -9922.6772   -4317.7219    11084.233    12.741766 
   23740    923.95817   -10026.192   -9923.1232   -2840.1188     11075.57    12.780512 
   23750    901.79304   -10024.246   -9923.6495    1523.0702    11065.964    12.815926 
   23760    901.83077   -10024.829   -9924.2281    5769.5323    11056.813    12.835087 
   23770    927.13735   -10028.329   -9924.9052    9431.6167    11049.554    12.830773 
   23780    909.34373   -10027.156    -9925.717    12219.723    11045.444     12.80484 
   23790    886.64048   -10025.508   -9926.6022    13484.075    11045.454    12.763264 
   23800    903.08582   -10028.267    -9927.526    11657.163    11049.994    12.710177 
   23810    895.98919   -10028.379   -9928.4299    6443.3591    11058.462    12.648909 
   23820     891.2172    -10028.65   -9929.2335    406.83786    11069.222    12.583933 
   23830    900.53299   -10030.359    -9929.903   -4935.9626    11080.271    12.519617 
   23840    879.56016   -10028.547   -9930.4309    -8123.411    11089.815    12.463115 
   23850    867.04436   -10027.531   -9930.8109   -10386.607    11096.679    12.421639 
   23860    875.87145   -10028.788   -9931.0828   -11905.094     11100.05    12.396739 
   23870    881.14876     -10029.6   -9931.3069    -12004.29    11099.383    12.387931 
   23880     877.0814   -10029.353   -9931.5134   -9824.1116    11094.639    12.398199 
   23890    859.22032   -10027.519   -9931.6712   -7498.9228    11086.442    12.431212 
   23900    857.96636    -10027.45   -9931.7421   -4109.2032    11075.614      12.4886 
   23910    876.37043   -10029.468    -9931.708    1028.4119    11063.297    12.564849 
   23920    880.86621   -10029.831   -9931.5693    7275.1209    11051.222    12.646283 
   23930     881.7569   -10029.733   -9931.3718    12144.526    11041.459    12.720697 
   23940    867.01704   -10027.855   -9931.1375    15065.856    11035.711    12.783024 
   23950    889.10214   -10030.086   -9930.9053    13720.799    11034.924    12.833232 
   23960    894.63251   -10030.466   -9930.6685    10313.279     11038.78    12.874807 
   23970    886.77591   -10029.358   -9930.4367    6074.9851      11046.2    12.908044 
   23980    865.89524   -10026.766   -9930.1742    3320.5411    11055.861    12.930493 
   23990    885.39814   -10028.638   -9929.8704    936.18089    11066.803    12.938292 
   24000    903.22381   -10030.306   -9929.5499    -2288.766    11078.187    12.928869 
   24010    884.65069   -10027.945   -9929.2607   -4784.8534    11088.992    12.905544 
   24020     875.2748   -10026.609   -9928.9707   -8527.7552     11098.24    12.873991 
   24030    880.80703   -10026.902   -9928.6467   -10995.486    11104.704    12.837268 
   24040    881.37578   -10026.604   -9928.2854   -12013.394    11107.481    12.794415 
   24050    905.96282   -10028.955   -9927.8937   -12266.178    11106.135    12.744354 
   24060    908.91704   -10028.878   -9927.4867   -10903.416    11100.583    12.690926 
   24070    891.07966   -10026.513   -9927.1114   -8020.7385    11091.245    12.643403 
   24080    878.56333   -10024.736   -9926.7308   -3021.8722    11079.118    12.610362 
   24090     884.6901   -10025.007   -9926.3189    3019.3234    11065.867    12.594456 
   24100     907.3022   -10027.097   -9925.8864    9353.9835    11053.544    12.592262 
   24110    912.16046   -10027.218   -9925.4648    14539.596    11044.279    12.596713 
   24120    921.41384    -10027.91   -9925.1246    16040.267    11039.778    12.602285 
   24130    929.02811   -10028.553   -9924.9184    13736.176    11040.614    12.609245 
   24140     898.7207   -10025.075   -9924.8214    10659.929    11046.146    12.621046 
   24150    881.34696   -10023.047   -9924.7317    7591.1522    11055.399    12.635581 
   24160    917.64875   -10026.958   -9924.5934    2606.6124    11067.294    12.648263 
   24170    923.28086    -10027.43   -9924.4366   -2030.8912     11080.22    12.660368 
   24180    895.26536   -10024.148   -9924.2802    -5378.563    11092.622    12.675377 
   24190    895.23505   -10023.966   -9924.1008   -8607.9773    11103.289    12.695347 
   24200    884.70657   -10022.584   -9923.8939   -11477.745    11111.079    12.720757 
   24210    888.05389   -10022.753   -9923.6892    -13511.79    11114.993    12.747672 
   24220    930.14792   -10027.309   -9923.5495   -13778.431    11114.338    12.771663 
   24230    928.76352   -10027.142   -9923.5369   -12911.942    11108.949    12.794067 
   24240    910.47143   -10025.208   -9923.6435   -9825.9052    11099.137     12.81788 
   24250    898.34736    -10023.99    -9923.778   -4246.9976     11085.95    12.841055 
   24260    896.41982   -10023.849   -9923.8518    1677.5679    11071.235    12.857646 
   24270    924.95613   -10027.072   -9923.8918     5865.139    11056.936    12.863731 
   24280    924.25148   -10027.039   -9923.9375    10193.192    11044.573    12.859931 
   24290    932.95628   -10028.091   -9924.0181    14423.327    11035.613    12.848939 
   24300    894.51851   -10023.891   -9924.1062     18061.25    11031.532    12.832083 
   24310    902.08534   -10024.843   -9924.2144     16782.37    11033.425    12.805859 
   24320    910.65048   -10025.927   -9924.3426    13215.244    11040.998    12.770338 
   24330    899.82268   -10024.858   -9924.4818    6824.5694    11053.031    12.730886 
   24340    911.74676   -10026.326   -9924.6192    -298.0535    11067.452    12.695508 
   24350    894.01492   -10024.494    -9924.765   -5942.9822    11081.887    12.671935 
   24360    901.75385   -10025.518   -9924.9256   -10837.892    11094.366    12.661962 
   24370    920.40293   -10027.786   -9925.1141   -12414.377    11103.281    12.664391 
   24380    879.54161   -10023.416   -9925.3018   -10803.522    11108.043    12.678407 
   24390    891.18726   -10024.844    -9925.431   -10225.589    11109.073    12.701082 
   24400    927.78493   -10029.014   -9925.5187   -11254.493    11106.534    12.731593 
   24410    884.74299   -10024.273   -9925.5783   -8476.5396    11100.262    12.771175 
   24420    876.12241   -10023.292   -9925.5592   -4700.5837    11091.112    12.812863 
   24430    918.37212   -10027.914   -9925.4682    -1882.277    11080.327    12.847977 
   24440    906.44947   -10026.486   -9925.3699    3334.7734    11069.003    12.872631 
   24450    884.54752   -10023.959   -9925.2859    8363.9285    11058.841    12.883184 
   24460    926.27052   -10028.586   -9925.2593    9889.4663    11051.424    12.876886 
   24470    917.79396   -10027.718    -9925.337    12902.189    11047.463    12.854136 
   24480    876.88313   -10023.302   -9925.4843    14312.891    11047.852    12.814961 
   24490    886.17154    -10024.49   -9925.6367    10543.422    11052.945    12.760838 
   24500    895.38544   -10025.633   -9925.7509    5760.9916    11061.612    12.697977 
   24510    924.21233   -10028.926   -9925.8288    1038.5715    11072.229     12.63273 
   24520    921.94728    -10028.72   -9925.8749   -1844.2465    11083.244     12.56866 
   24530    879.91075   -10024.041   -9925.8858   -3943.7166    11093.633    12.506935 
   24540    867.56116   -10022.561    -9925.783   -7910.6111    11102.589    12.451581 
   24550     903.8658   -10026.437   -9925.6097    -12111.55    11108.772    12.411513 
   24560     904.0583   -10026.333   -9925.4838   -13195.058    11110.852    12.393332 
   24570    916.14381    -10027.66   -9925.4628   -12188.536    11108.451     12.39874 
   24580    915.52292   -10027.666   -9925.5376   -9447.3576    11101.927    12.426464 
   24590    884.42916    -10024.32    -9925.661    -4908.186    11092.249     12.47049 
   24600    887.88962   -10024.823   -9925.7773   -577.33952    11080.957    12.522394 
   24610     890.6789   -10025.198   -9925.8411    2926.5078    11069.535    12.574588 
   24620    903.32098   -10026.609   -9925.8426    5745.4983    11059.164    12.620397 
   24630    912.25961   -10027.562   -9925.7985    8688.2609    11050.838    12.657315 
   24640      910.998   -10027.377   -9925.7543    10783.773    11045.499    12.685483 
   24650    903.43708   -10026.504   -9925.7238    11786.629    11043.849    12.705006 
   24660    919.08057   -10028.258   -9925.7334    9459.4568    11046.095    12.718327 
   24670    897.03975   -10025.859   -9925.7926    7230.9855    11051.538    12.730156 
   24680    867.24889   -10022.603   -9925.8602    4559.6886    11059.384     12.74043 
   24690    916.46692   -10028.139   -9925.9061    183.23782    11068.672    12.747127 
   24700    923.61531   -10029.015   -9925.9839   -2510.1011    11077.996    12.748536 
   24710    872.05852   -10023.386   -9926.1067   -3310.3338    11086.454    12.741614 
   24720    904.39237   -10027.118   -9926.2316   -7141.3417    11093.597    12.726185 
   24730    891.45264   -10025.785   -9926.3424   -8737.9278    11098.332    12.708018 
   24740    885.23867   -10025.214   -9926.4643   -8764.9778    11100.085    12.692496 
   24750    914.10323   -10028.551   -9926.5816   -8447.7008    11098.843    12.685289 
   24760    913.78437   -10028.673   -9926.7389   -7054.8273    11094.755    12.688775 
   24770    878.13929   -10024.898   -9926.9403   -4559.5919    11088.319    12.698556 
   24780    869.61934   -10024.112   -9927.1042   -1558.7645    11080.412    12.708854 
   24790     898.2113   -10027.413   -9927.2165    278.55362    11071.999    12.718854 
   24800    912.13312   -10029.068   -9927.3179    2908.6407    11063.788    12.732806 
   24810    925.40105   -10030.722   -9927.4919    4951.7688    11056.621    12.752605 
   24820    889.09117   -10026.921   -9927.7414    8024.3476    11051.253    12.775949 
   24830    869.66378   -10025.021   -9928.0088    10342.152    11048.646    12.797369 
   24840    897.24061   -10028.375   -9928.2869    9312.3234    11049.463    12.811783 
   24850    905.22049   -10029.575   -9928.5961    8012.9513    11053.459    12.818805 
   24860    901.36357   -10029.485   -9928.9362    5073.2525    11060.111    12.818692 
   24870    896.28001   -10029.263    -9929.282    1150.0489    11068.423    12.809113 
   24880    878.66548   -10027.612   -9929.5953   -2307.6096    11077.096    12.787121 
   24890    883.01311   -10028.374   -9929.8723   -5898.7235    11084.901    12.753186 
   24900    871.27506   -10027.317   -9930.1252    -8730.824    11090.625    12.712323 
   24910    852.04343   -10025.375   -9930.3284   -9609.5322    11093.381    12.670247 
   24920    876.81446   -10028.278   -9930.4677   -10081.411    11092.854    12.633844 
   24930    906.47953   -10031.717   -9930.5975   -11258.242    11088.851    12.612789 
   24940     887.9088   -10029.827    -9930.779   -9094.9939    11081.157    12.613585 
   24950    865.18305   -10027.463   -9930.9502   -2936.1608    11070.575    12.632334 
   24960    863.30475   -10027.322    -9931.019    4526.4007    11059.148    12.658941 
   24970    861.98871   -10027.108   -9930.9515    10123.096    11049.342    12.686866 
   24980    901.98777    -10031.44   -9930.8221    11966.901    11042.959    12.715144 
   24990    897.53906   -10030.791   -9930.6694    11963.125    11040.661    12.742826 
   25000    897.49021   -10030.641   -9930.5249    10140.976    11042.387    12.764979 
Loop time of 18815.1 on 16 procs for 20000 steps with 864 atoms

Performance: 0.092 ns/day, 261.320 hours/ns, 1.063 timesteps/s
96.8% CPU use with 16 MPI tasks x 1 OpenMP threads

MPI task timing breakdown:
Section |  min time  |  avg time  |  max time  |%varavg| %total
---------------------------------------------------------------
Pair    | 14350      | 17425      | 18765      | 868.0 | 92.61
Bond    | 0.0017412  | 0.006629   | 0.017878   |   5.3 |  0.00
Neigh   | 0.41023    | 0.42046    | 0.43695    |   1.2 |  0.00
Comm    | 40.289     | 1345.6     | 4460.2     |3166.4 |  7.15
Output  | 1.1061     | 1.1314     | 1.4938     |   8.8 |  0.01
Modify  | 3.2903     | 42.601     | 153.61     | 980.9 |  0.23
Other   |            | 0.08885    |            |       |  0.00

Nlocal:        54.0000 ave          56 max          52 min
Histogram: 1 0 5 0 0 4 0 5 0 1
Nghost:        712.000 ave         722 max         699 min
Histogram: 2 1 1 2 0 2 2 1 2 3
Neighs:         0.00000 ave           0 max           0 min
Histogram: 16 0 0 0 0 0 0 0 0 0
FullNghs:      3652.75 ave        3840 max        3486 min
Histogram: 1 1 2 3 2 1 3 2 0 1

Total # of neighbors = 58444
Ave neighs/atom = 67.643519
Ave special neighs/atom = 0.0000000
Neighbor list builds = 2000
Dangerous builds = 2000
Total wall time: 6:24:00
