LAMMPS data file via write_data, version 2 Aug 2023, timestep = 20000, units = metal

1536 atoms
2 atom types

-0.35922628825832525 20.696205000656253 xlo xhi
-0.4056164182915314 20.74259513068992 ylo yhi
-24.677099339572724 85.68803547668286 zlo zhi

Masses

1 35.45
2 6.94

Atoms # full

392 0 1 -1 4.612010404855009 2.1291013808851815 -24.491892114481217 0 0 0
772 0 2 1 12.642857435840533 2.178857611499808 -24.44372140659832 0 0 0
773 0 1 -1 12.62728015867884 -0.34533905506869406 -24.538568576966906 0 0 0
1153 0 2 1 15.451666643644542 -0.2643443684332476 -24.561482863829372 0 0 0
1 0 2 1 20.324289607812503 -0.373767386161891 -24.105974254785323 -1 0 0
8 0 1 -1 20.628711250168827 2.473233929462094 -24.564322880066765 -1 0 0
1156 0 2 1 17.657189449633982 2.1494732725225334 -24.42055470890625 0 0 0
1157 0 1 -1 18.043548916367293 -0.2614273793973102 -24.25911775349461 0 0 0
101 0 1 -1 2.3575386078085936 4.839272080819568 -24.523620482216916 0 0 0
481 0 2 1 4.9536349453846595 5.12091555605239 -24.414659161763304 0 0 0
865 0 2 1 10.30348003374039 5.082171431676681 -24.487227775776407 0 0 0
100 0 2 1 2.4826741711483487 8.043562511884048 -24.56251323139407 0 0 0
488 0 1 -1 4.797775672730556 7.585505297116512 -24.554473257146835 0 0 0
581 0 1 -1 7.511970972188106 9.914101697073106 -24.547915473240636 0 0 0
961 0 2 1 10.038405625357841 9.752888730594924 -24.354143123386404 0 0 0
868 0 2 1 12.786990965298536 7.783616938881831 -24.25864908235568 0 0 0
965 0 1 -1 12.611598963822887 10.0730089499228 -24.671988947813055 0 0 0
872 0 1 -1 10.213621005172547 7.489663178477306 -24.536663228996023 0 0 0
1256 0 1 -1 15.322941409238245 7.513025761926248 -24.39860174057778 0 0 0
584 0 1 -1 4.845149681834039 12.79683827991917 -24.576361657683737 0 0 0
968 0 1 -1 9.944188464457866 12.822610199641591 -24.59711487043501 0 0 0
1345 0 2 1 15.345392293580412 10.29692466280092 -24.67496700405101 0 0 0
1057 0 2 1 10.13923797554956 15.428628864185395 -24.62936036112663 0 0 0
677 0 1 -1 7.397927444704688 15.681380726974941 -24.644244406310158 0 0 0
385 0 2 1 4.74888027217272 20.382738881838357 -24.562487255045202 0 -1 0
680 0 1 -1 4.885620156830602 17.91098883529024 -24.202718060948538 0 0 0
389 0 1 -1 7.521140391883082 20.633131493740038 -24.453020569991963 0 -1 0
1064 0 1 -1 10.013449817505819 18.16830696789571 -24.674622249714165 0 0 0
1448 0 1 -1 15.399694394216553 18.179802621346546 -24.591648036816128 0 0 0
6 0 1 -1 2.3726235974274412 2.2413635586903013 -20.42274159625031 0 0 0
2 0 2 1 -0.3253210337338004 2.429226745871511 -20.12805406144374 0 0 0
3 0 2 1 2.4719015975031797 -0.17305261382214696 -19.946381805248905 0 0 0
386 0 2 1 4.885927490858799 2.350015852453254 -20.549346888380434 0 0 0
390 0 1 -1 7.4168182335996455 2.147239066634336 -20.345768950780425 0 0 0
770 0 2 1 10.160355986239786 2.070956773943012 -20.27249000416002 0 0 0
775 0 1 -1 10.194923430158118 -0.3657769440120744 -20.408866858999225 0 0 0
774 0 1 -1 12.573465868324055 2.0845617291527456 -19.915867410943704 0 0 0
1154 0 2 1 15.29873730667011 2.018928192464252 -20.266382891517164 0 0 0
7 0 1 -1 20.58038090468076 -0.035428713017408464 -20.025474633903663 -1 0 0
1158 0 1 -1 17.756528581197152 2.357483868804195 -20.17419127888512 0 0 0
99 0 2 1 2.217679590768052 4.87253415528416 -20.14596539874399 0 0 0
487 0 1 -1 4.930381470934968 5.149256576936597 -19.823889590355066 0 0 0
483 0 2 1 7.543166124054189 5.200595295608786 -20.341790260080995 0 0 0
871 0 1 -1 10.19901553036402 4.836597170122254 -19.98499780298406 0 0 0
867 0 2 1 12.628802610504152 4.8324198981904605 -20.135580550687024 0 0 0
1255 0 1 -1 15.039735972131897 4.442142411155057 -20.35427873465304 0 0 0
1251 0 2 1 18.011449871359012 4.90303111276761 -20.37015779058456 0 0 0
103 0 1 -1 20.49564376538862 5.063026905914945 -20.25004679221007 -1 0 0
102 0 1 -1 1.825956782350476 7.762413636004283 -20.353819631485486 0 0 0
195 0 2 1 2.074836209658888 10.150536849863423 -20.214902279253206 0 0 0
482 0 2 1 4.9256022359993725 7.551636191298666 -20.49543509091805 0 0 0
486 0 1 -1 7.472617223780797 7.615650172154396 -19.90678470946319 0 0 0
967 0 1 -1 10.240219436455146 9.783759140476494 -19.86625723025778 0 0 0
870 0 1 -1 12.775237847455829 7.448165724564438 -19.717307874227124 0 0 0
866 0 2 1 10.36248911057191 7.463217485476109 -19.54370780589992 0 0 0
1250 0 2 1 15.226437214060475 7.814425143872869 -20.014743027895346 0 0 0
1254 0 1 -1 17.882325180093417 7.593519790668557 -20.670428741905305 0 0 0
98 0 2 1 20.384227966047945 7.564216123457442 -20.196465012472963 -1 0 0
198 0 1 -1 2.052569549636031 12.758312357348206 -20.64257052502679 0 0 0
194 0 2 1 -0.3353449028550344 12.862030852763327 -20.487179652525242 0 0 0
578 0 2 1 4.636434015226245 12.994579300103553 -20.287836426631518 0 0 0
583 0 1 -1 4.7221940186356495 10.251826529322447 -20.167310920547635 0 0 0
579 0 2 1 7.347387280077678 10.168786404719288 -20.176626887305137 0 0 0
582 0 1 -1 7.43874190725708 12.749933343390436 -19.895398953218525 0 0 0
962 0 2 1 10.065471021617162 13.053559615297685 -20.13434013761198 0 0 0
963 0 2 1 12.46996255026359 10.328262498524632 -19.89262226637633 0 0 0
966 0 1 -1 12.561607944386443 12.82006337078334 -20.168926953645048 0 0 0
1346 0 2 1 15.302475948516365 12.833589408713847 -20.418932394667323 0 0 0
1351 0 1 -1 15.213375130970379 10.353291512190243 -19.85230221346448 0 0 0
1347 0 2 1 18.050636187079903 10.537494889955848 -20.28499477828728 0 0 0
199 0 1 -1 20.518437483956326 10.172518056064629 -20.418436127366263 -1 0 0
1350 0 1 -1 18.05428525858865 12.732258464954157 -20.1370903685755 0 0 0
295 0 1 -1 -0.3294302615626746 15.622925996890489 -20.368350543745244 0 0 0
291 0 2 1 2.1545953056184786 15.828044388288403 -20.108344463107464 0 0 0
679 0 1 -1 4.8373421864546575 15.484096241209523 -20.213130253027447 0 0 0
675 0 2 1 7.256046476668456 15.165018477173252 -20.303155574017154 0 0 0
1063 0 1 -1 10.213556138615129 15.366225921123831 -20.076859667780415 0 0 0
1059 0 2 1 12.609375410096339 15.161525816818285 -19.775148775337634 0 0 0
1447 0 1 -1 15.532469565226178 15.246436948708281 -20.379696719083775 0 0 0
1443 0 2 1 18.14009181776659 15.64754604809704 -20.270536719136754 0 0 0
294 0 1 -1 2.2943121875552324 18.34086892312326 -19.80817321514411 0 0 0
290 0 2 1 -0.22022744500137453 17.83807494028173 -20.13328133542945 0 0 0
391 0 1 -1 4.9720566028845905 20.54136014037774 -20.15104303518668 0 -1 0
674 0 2 1 5.06525000677598 18.273148473495162 -19.9086563371985 0 0 0
387 0 2 1 7.761073513461097 20.50383620427882 -19.88944588291269 0 -1 0
678 0 1 -1 7.716764193163014 18.033420847792684 -19.86263533458871 0 0 0
771 0 2 1 12.373584559832038 20.6464212038886 -20.374537605179057 0 -1 0
1062 0 1 -1 12.617794134984546 17.8223627307027 -20.633827050264895 0 0 0
1058 0 2 1 10.169503158344323 18.054861648114148 -19.870532052065997 0 0 0
1159 0 1 -1 15.416119885758953 20.63262760227989 -20.178420453292404 0 -1 0
1442 0 2 1 14.869492972007206 17.860712227752373 -20.207809214403888 0 0 0
1155 0 2 1 17.736002761171278 20.523414832820514 -19.685339462824924 0 -1 0
1446 0 1 -1 18.373550559743542 18.29156022491493 -20.211921093408005 0 0 0
12 0 2 1 2.21083820634601 2.3766671221866953 -15.4143982177369 0 0 0
16 0 1 -1 -0.34417837338579094 2.530313610798917 -15.577346688826474 0 0 0
400 0 1 -1 4.862806073757702 2.407947237658832 -15.6643501792918 0 0 0
396 0 2 1 7.432915327094186 2.4557746166319294 -15.878010428744044 0 0 0
784 0 1 -1 9.98090148818276 2.224880588229695 -15.552919930562167 0 0 0
780 0 2 1 12.74781325405203 2.228517337499063 -15.578697104678072 0 0 0
1168 0 1 -1 15.427875029300246 2.0470938238137295 -15.513700722271851 0 0 0
1164 0 2 1 18.125191142176973 2.372246138033155 -15.97974294868094 0 0 0
1165 0 1 -1 17.95140007501552 -0.3652787417719889 -15.635423426707378 0 0 0
105 0 2 1 -0.355725010535702 4.9040068551083955 -15.979230359371568 0 0 0
109 0 1 -1 2.3481300188919234 4.870814841451957 -15.72026323384536 0 0 0
489 0 2 1 4.923273442127628 4.967228311616147 -15.502618430128775 0 0 0
493 0 1 -1 7.630487954831451 4.982112180467953 -15.793302525549354 0 0 0
873 0 2 1 10.252386572354476 4.718050190985189 -15.297044129378087 0 0 0
877 0 1 -1 12.790977673480322 4.783506930590385 -15.750713338593947 0 0 0
1257 0 2 1 15.299597616378414 4.4484292548836875 -15.491241448451573 0 0 0
1261 0 1 -1 18.030460531663167 4.933567133897179 -15.56008710096531 0 0 0
108 0 2 1 1.9670146189446727 7.614657535110048 -15.428575857575323 0 0 0
496 0 1 -1 4.621627041784736 7.620332317564852 -15.740694302775957 0 0 0
585 0 2 1 4.7835639349216414 9.99202691875281 -15.648541539147114 0 0 0
492 0 2 1 7.650535220894984 7.755228603678869 -15.635968479609335 0 0 0
880 0 1 -1 10.160390889519432 7.650399491415898 -15.574079749281017 0 0 0
969 0 2 1 9.831597643060505 10.073567375073976 -15.482051793117957 0 0 0
589 0 1 -1 7.405507126803627 10.066041402391413 -15.83868752128262 0 0 0
876 0 2 1 12.89557849402394 7.381013141094191 -15.68386225283331 0 0 0
1264 0 1 -1 15.545102044093134 7.640385023541624 -15.934381399662405 0 0 0
1260 0 2 1 18.03270947087293 7.5471466786962385 -16.156828787870793 0 0 0
112 0 1 -1 20.68382718689159 7.8201138241294235 -15.475695020784604 -1 0 0
204 0 2 1 2.142488349148574 12.99372171114625 -16.62616576934873 0 0 0
205 0 1 -1 1.9361171409079927 10.387888545102106 -15.738426149604862 0 0 0
592 0 1 -1 4.81904360460867 12.76524666187917 -15.912493478513289 0 0 0
588 0 2 1 7.380536134848617 12.790198616895237 -15.335818591524088 0 0 0
976 0 1 -1 10.23214854901761 13.023221945356124 -15.678780431704645 0 0 0
973 0 1 -1 12.8277754006198 10.327610056531732 -15.428199340691268 0 0 0
972 0 2 1 12.53258306371921 12.716677759914466 -15.40318078884906 0 0 0
1353 0 2 1 15.49967349880706 10.283838283808059 -15.864947221509986 0 0 0
1360 0 1 -1 15.5686191273124 12.97878592266772 -15.70085659932784 0 0 0
201 0 2 1 20.29822908500543 10.632493874475548 -15.71891829408316 -1 0 0
1357 0 1 -1 18.00970083738804 10.190118641204368 -15.660022954711243 0 0 0
208 0 1 -1 20.57298658495634 13.009286895503994 -15.467340697236537 -1 0 0
1356 0 2 1 17.96421904976942 12.93332307983069 -15.580901504357238 0 0 0
301 0 1 -1 2.3183933762769535 15.507121384818426 -15.645776975463372 0 0 0
297 0 2 1 -0.03550513155830598 15.68495900428024 -15.475445771521283 0 0 0
681 0 2 1 5.075420474821979 15.05922862048058 -15.915013089899267 0 0 0
685 0 1 -1 7.3446808111351105 15.381507093614896 -15.507679103343667 0 0 0
1065 0 2 1 10.563872520524685 15.504674314648533 -15.727442686014125 0 0 0
1069 0 1 -1 12.909423331381419 15.378274067406926 -15.46435410595976 0 0 0
1453 0 1 -1 18.163954403620963 15.752782302352285 -16.018169579890586 0 0 0
300 0 2 1 2.3504652475099794 18.17597483260259 -15.566758025671843 0 0 0
304 0 1 -1 -0.24935569209638406 18.271389423614863 -15.307115094423713 0 0 0
688 0 1 -1 5.037739440785757 17.75865926173605 -15.520303946148788 0 0 0
397 0 1 -1 7.68630746145657 20.705070766143415 -15.929567385289054 0 -1 0
684 0 2 1 7.649652166403973 17.728331616200244 -15.319528062926473 0 0 0
777 0 2 1 10.180178850619756 20.656214899839597 -15.852631805365842 0 -1 0
781 0 1 -1 12.705939557632707 20.510251910039287 -16.168260304068816 0 -1 0
1072 0 1 -1 10.199301032675473 17.94717590744481 -15.421287667906611 0 0 0
1161 0 2 1 15.544824569692567 20.375188684346774 -15.604744870034555 0 -1 0
1456 0 1 -1 15.359289090916867 17.97044245743585 -15.391991457336985 0 0 0
9 0 2 1 20.694193124317913 20.657430309411772 -15.930579106077579 -1 -1 0
1452 0 2 1 18.12617224404292 18.04808798675829 -15.75948535542465 0 0 0
13 0 1 -1 1.930508008579913 -0.09830050039549626 -15.124508617067164 0 0 0
1449 0 2 1 15.393089536431669 15.350949951838977 -15.158320737295071 0 0 0
393 0 2 1 5.1303518185473544 20.682394933725796 -15.169298912348216 0 -1 0
1068 0 2 1 12.99291758882278 18.199890637950382 -15.206343816440217 0 0 0
14 0 1 -1 2.1773931606037364 2.323920116467358 -11.043911587570454 0 0 0
11 0 2 1 2.0433704290894408 -0.32918916223119205 -11.120287953663484 0 0 0
394 0 2 1 4.833324454094859 2.1314820111812494 -11.548896563489256 0 0 0
398 0 1 -1 7.283138927554045 2.411118381915905 -11.362195595522307 0 0 0
778 0 2 1 9.795233643454658 2.149969052547088 -11.01481622780185 0 0 0
782 0 1 -1 12.663511117150854 2.0452229657705407 -11.203815865092778 0 0 0
1162 0 2 1 15.293719508447152 2.261451365109863 -10.81187377241914 0 0 0
15 0 1 -1 20.513936803644576 -0.12115890620528985 -10.853098705801235 -1 0 0
10 0 2 1 20.648230639108213 2.271901313459164 -11.239823990832416 -1 0 0
1166 0 1 -1 17.96282397173846 2.2662945058405146 -10.868059153530016 0 0 0
111 0 1 -1 -0.3300380643155625 5.032531869455462 -11.503393219624982 0 0 0
107 0 2 1 2.12688287571519 4.728539336122867 -11.130250265177366 0 0 0
495 0 1 -1 4.94266115638015 5.199982386401946 -10.985146563822026 0 0 0
491 0 2 1 7.213636814844983 4.878935806450281 -10.99088007450554 0 0 0
879 0 1 -1 10.2916421008269 4.830633148869739 -11.226688880644913 0 0 0
875 0 2 1 12.712551411335308 4.7226933364068 -11.093222857066333 0 0 0
1263 0 1 -1 15.451451733029453 4.744362967881332 -10.759486071087593 0 0 0
1259 0 2 1 18.464938756604198 4.641834958582704 -11.325296261204612 0 0 0
110 0 1 -1 2.261415464550157 7.767237127177362 -11.268454628425756 0 0 0
490 0 2 1 4.396199069974182 7.467702569109432 -11.328090890796291 0 0 0
591 0 1 -1 4.664811203737309 10.060317150823135 -11.085677182534564 0 0 0
494 0 1 -1 7.588523522458213 7.7776465012316205 -10.71541546671543 0 0 0
874 0 2 1 9.932979152954577 7.518871392314071 -11.15402786463398 0 0 0
878 0 1 -1 13.044869234117465 7.390400477951116 -11.146529216915017 0 0 0
1258 0 2 1 15.856957429293109 7.698806125462202 -11.141851099637568 0 0 0
1355 0 2 1 18.113669910152083 10.057906141105295 -11.34354754874145 0 0 0
106 0 2 1 20.559836066627092 7.403474257373736 -10.705859444373026 -1 0 0
1262 0 1 -1 18.12520102562523 7.666246199112697 -11.074098368211938 0 0 0
203 0 2 1 1.9016270302027554 10.285404913628595 -11.340747579048955 0 0 0
206 0 1 -1 2.351317375463452 12.886514668636103 -11.272482997362111 0 0 0
202 0 2 1 -0.3081237024445612 12.68663652373965 -11.02464971079605 0 0 0
586 0 2 1 4.662230705467759 12.767844818702985 -11.667711752592004 0 0 0
587 0 2 1 7.388986399924409 10.426571624050954 -11.289065942498446 0 0 0
590 0 1 -1 7.526442088761328 12.81347636452587 -11.027749608215778 0 0 0
975 0 1 -1 9.9833255800457 10.452916521449653 -10.886724496549993 0 0 0
970 0 2 1 10.131980568374797 13.008653021069211 -10.619498808586844 0 0 0
971 0 2 1 13.360945968990144 10.296883518411574 -11.177567261820439 0 0 0
974 0 1 -1 12.90589045203196 12.783656726336266 -10.784677531638575 0 0 0
1359 0 1 -1 15.64638569993946 10.37033281870279 -11.962510142151057 0 0 0
1354 0 2 1 15.586982222816832 12.658067663659967 -11.104499038951412 0 0 0
207 0 1 -1 20.589206710978743 10.375745020618812 -11.036873225142124 -1 0 0
1358 0 1 -1 18.08820620668557 13.003469017422209 -11.0417367190038 0 0 0
299 0 2 1 2.076452204929329 15.527754393403347 -10.874436355409872 0 0 0
303 0 1 -1 -0.33604008920282036 15.531047587044 -11.076638054968775 0 0 0
687 0 1 -1 4.812820614339494 15.26541552684215 -11.068545501371021 0 0 0
683 0 2 1 7.3121147040659915 15.41539420198083 -10.57459400962847 0 0 0
1071 0 1 -1 9.995515607292619 15.557615658005167 -10.553084516057405 0 0 0
1067 0 2 1 12.649391242112147 15.297974793277742 -10.992954605979742 0 0 0
1455 0 1 -1 15.545316349718428 15.430865803701362 -10.830226463208001 0 0 0
1451 0 2 1 18.020866449641773 15.60578165589324 -11.00307762158285 0 0 0
302 0 1 -1 2.5159284659220393 18.21093773540464 -11.348240223644328 0 0 0
399 0 1 -1 5.270540831802958 20.628093971953945 -11.11452854432839 0 -1 0
682 0 2 1 4.95864776888179 17.888160573134947 -11.02807632554081 0 0 0
395 0 2 1 7.5933837033598675 20.590994260521384 -10.902776220074216 0 -1 0
686 0 1 -1 7.591642955225375 17.94321849354096 -11.130023670921616 0 0 0
1066 0 2 1 10.137716360706431 17.881597718363842 -10.395035405619506 0 0 0
783 0 1 -1 10.20483556835911 20.714996634379077 -11.084827741982544 0 -1 0
779 0 2 1 12.666976306480677 20.699652643483674 -11.219847358682939 0 -1 0
1070 0 1 -1 12.698251594860986 17.82541034585109 -11.089375684440409 0 0 0
1167 0 1 -1 15.176396152406358 20.561213716999 -11.23667847033104 0 -1 0
1450 0 2 1 15.356787451159692 18.153557410016028 -10.782527895334741 0 0 0
298 0 2 1 20.43804758215144 18.05181810904287 -11.354719784922441 -1 0 0
1163 0 2 1 17.934427334920912 20.698415642705825 -11.13786663486014 0 -1 0
1454 0 1 -1 17.987299455277665 18.026397106423616 -10.694957662777894 0 0 0
20 0 2 1 2.276054622072578 2.3944795339456033 -6.332807511668047 0 0 0
21 0 1 -1 2.4859068789451846 -0.11478164167752908 -6.729356097733209 0 0 0
24 0 1 -1 -0.22024677491703443 2.4691763947521297 -6.8565802290506355 0 0 0
408 0 1 -1 4.964787682617601 2.2330080075997656 -6.58803075725606 0 0 0
404 0 2 1 7.5653700469630225 2.304534115767082 -6.6566226352232185 0 0 0
792 0 1 -1 9.75879157426138 2.0924370274885766 -6.614410545226615 0 0 0
788 0 2 1 12.787373990091973 2.0767048038495735 -6.9015452683172 0 0 0
789 0 1 -1 12.729589432804927 -0.40479486470406556 -6.622068495076707 0 0 0
785 0 2 1 10.36757177912003 -0.3530743794191512 -6.742461161803238 0 0 0
1176 0 1 -1 15.356350852175837 1.839487863553245 -6.496768823008654 0 0 0
1172 0 2 1 18.572512209473217 1.834952881194838 -6.773323790693883 0 0 0
17 0 2 1 20.677226058265155 -0.2698432343673399 -6.496488481178165 -1 0 0
117 0 1 -1 2.236591821277551 4.987096000835807 -6.946391425258163 0 0 0
113 0 2 1 -0.34431266305963526 5.139654415751465 -6.427988403846573 0 0 0
497 0 2 1 4.703722192497974 4.909423748186073 -6.8914395890096785 0 0 0
501 0 1 -1 7.619542517876157 5.090532045834698 -7.114094273172782 0 0 0
881 0 2 1 10.209795547503544 4.975435129705595 -6.388814678665383 0 0 0
885 0 1 -1 12.818840376936464 4.909708355556032 -6.550615900964441 0 0 0
1265 0 2 1 15.42787480570947 5.059079211536097 -6.372980907473462 0 0 0
1269 0 1 -1 18.087938310951543 5.003504211093997 -6.721410866274908 0 0 0
116 0 2 1 2.3636864221659537 7.5540030338673905 -6.2100230298989665 0 0 0
504 0 1 -1 4.919140183407858 7.704633866413456 -6.596993602521124 0 0 0
500 0 2 1 7.91165507032809 7.645412376921998 -6.381784205607346 0 0 0
888 0 1 -1 10.28872286398616 7.302993953289587 -6.09577985992151 0 0 0
884 0 2 1 12.914236037577925 7.4789427076127595 -6.00999855205546 0 0 0
1272 0 1 -1 15.405869355721947 7.763074516660447 -6.72358169086916 0 0 0
120 0 1 -1 20.64596936242625 7.433233554049402 -6.396988610429705 -1 0 0
1268 0 2 1 17.8088499071063 7.573164785455471 -5.959606527717526 0 0 0
1365 0 1 -1 18.036860530425912 10.106019721443186 -6.5778548567902355 0 0 0
213 0 1 -1 2.1107755277491527 10.436056148834016 -6.608457139403352 0 0 0
212 0 2 1 2.196464248129116 12.821939174654728 -6.4633751792487075 0 0 0
209 0 2 1 -0.2666319078320044 10.396850199592963 -6.032442243706235 0 0 0
593 0 2 1 5.090099983710806 10.228188366975715 -6.8551313602578645 0 0 0
600 0 1 -1 4.898795412985601 12.933130212070648 -6.307841388731912 0 0 0
597 0 1 -1 7.621906413438438 10.231965811049198 -6.4496119738481426 0 0 0
596 0 2 1 7.334284339805642 12.700688051133039 -6.026671114370291 0 0 0
977 0 2 1 10.500832971064746 10.25643418168437 -6.550702962404998 0 0 0
984 0 1 -1 10.441283613554383 12.836596623641638 -6.201839019324652 0 0 0
981 0 1 -1 12.94147005587498 10.371894640096919 -6.460310743318555 0 0 0
980 0 2 1 12.933905391645439 12.916115209407767 -6.207913460110277 0 0 0
1361 0 2 1 15.531926157909094 10.306672351972104 -6.437443961015049 0 0 0
1368 0 1 -1 15.598992771564584 13.01818858526988 -6.152626148618893 0 0 0
216 0 1 -1 20.65642319017722 12.745869988736747 -6.309943336117534 -1 0 0
1364 0 2 1 18.177413890828042 12.94408970781356 -6.546161145276898 0 0 0
309 0 1 -1 2.254628666350449 15.55403439495609 -6.0410083176928815 0 0 0
305 0 2 1 -0.11174672620754006 15.416926999314907 -6.00675795967625 0 0 0
689 0 2 1 4.875292766970511 15.33951482488895 -6.630484057164946 0 0 0
693 0 1 -1 7.338327135718363 15.456155222078376 -6.072611047025049 0 0 0
1073 0 2 1 10.4598221848995 15.599858913298062 -6.283092505801999 0 0 0
1457 0 2 1 15.469708977660423 15.490641836775433 -6.275347217317705 0 0 0
1461 0 1 -1 18.140628183072728 15.620886373362078 -6.24344244078339 0 0 0
308 0 2 1 2.143553904340327 18.28986191881657 -6.207727936809992 0 0 0
312 0 1 -1 -0.24821230912661985 18.231156995778278 -6.295210178315223 0 0 0
696 0 1 -1 5.030654593906037 18.06211964268455 -6.189807322310418 0 0 0
405 0 1 -1 7.443555777288386 20.611017226335612 -6.51002008560592 0 -1 0
692 0 2 1 7.643909078901242 18.13952693836525 -6.238877228159307 0 0 0
1080 0 1 -1 10.221278793826409 18.109172655161082 -6.198988293323659 0 0 0
1076 0 2 1 12.75297630401259 17.97610502951445 -6.170630577600708 0 0 0
1169 0 2 1 15.285203305085542 20.45596434481086 -6.272769052532041 0 -1 0
1464 0 1 -1 15.4667464168438 18.08645142271675 -6.155696180363428 0 0 0
1173 0 1 -1 18.246967734338583 20.5422280602276 -6.043298307347424 0 -1 0
1460 0 2 1 17.976828273198507 18.0267399362452 -6.346791517117651 0 0 0
401 0 2 1 4.837108061236363 -0.3644182422855584 -5.674280414122929 0 0 0
599 0 1 -1 4.725397549755725 10.153624954862945 -2.617833835699116 0 0 0
1077 0 1 -1 12.740563332557201 15.575567776337408 -5.750656213683346 0 0 0
22 0 1 -1 2.393464130313072 2.116859491605615 -2.165173302008853 0 0 0
18 0 2 1 -0.35170979218364806 2.3935829162012006 -1.6930887789607851 0 0 0
23 0 1 -1 -0.17013327169652295 0.035611153962094966 -2.2710445841730085 0 0 0
19 0 2 1 2.2349880744580117 -0.3771420442843856 -2.20573152031384 0 0 0
402 0 2 1 5.0173692071083495 1.9566289087565765 -1.860493128041007 0 0 0
406 0 1 -1 7.44515974841214 2.3457258674712707 -1.6793198650372325 0 0 0
786 0 2 1 9.820050631399232 1.849522751572413 -2.173301657024041 0 0 0
790 0 1 -1 12.767915094349206 2.3155847147221316 -1.9151735470506779 0 0 0
787 0 2 1 12.613020473338242 -0.1532369752936822 -2.0091307408262615 0 0 0
1170 0 2 1 15.50042620134122 1.8534037110033283 -2.1546877626628245 0 0 0
1174 0 1 -1 17.853671125563395 2.046413292997338 -2.02164157458758 0 0 0
115 0 2 1 2.323070448283398 5.034389226129554 -2.1231470554268697 0 0 0
503 0 1 -1 4.805088544327493 5.279083194178708 -2.5144471407813036 0 0 0
499 0 2 1 7.620789048879465 4.930978622773339 -2.2976250435620216 0 0 0
887 0 1 -1 9.914921134668154 4.579538489220371 -1.8668865835998858 0 0 0
883 0 2 1 12.739280704450817 5.035680574614595 -2.165001980783348 0 0 0
1271 0 1 -1 15.383676779302805 4.7067980610635844 -2.2503877577664433 0 0 0
119 0 1 -1 20.42103708314655 4.693063787516525 -1.8845999712575257 -1 0 0
1267 0 2 1 17.896021122563297 4.783274278300045 -2.3753220150085923 0 0 0
118 0 1 -1 2.308928722931689 7.578208666279589 -2.2213809825449786 0 0 0
211 0 2 1 2.412481754237711 10.029212142212565 -2.310176824640095 0 0 0
498 0 2 1 4.830834053285147 7.707698059952088 -2.091491210439788 0 0 0
502 0 1 -1 7.764174469063187 7.472580704972469 -1.7622371623879864 0 0 0
882 0 2 1 10.223099900569764 7.110929833726565 -1.9948243812852517 0 0 0
886 0 1 -1 12.776699029978824 7.415686623422822 -1.7837825100285407 0 0 0
1266 0 2 1 15.649063143910249 7.442771464588335 -1.3679347205841665 0 0 0
114 0 2 1 20.345799510990012 7.707188384043521 -1.954455999413259 -1 0 0
1270 0 1 -1 18.03999854782856 7.73023328529896 -1.6825554198265138 0 0 0
214 0 1 -1 2.124319062694323 12.64194784449053 -1.5815172767294783 0 0 0
210 0 2 1 -0.23597544208519355 12.799079121838416 -1.6246030035741441 0 0 0
594 0 2 1 5.011007918851175 12.573411953886838 -1.9037179217553337 0 0 0
595 0 2 1 7.892654315619428 10.230610655122808 -2.4395030455410236 0 0 0
598 0 1 -1 7.318145769654982 12.475990874775594 -1.6686399139141237 0 0 0
983 0 1 -1 10.399573908754245 10.278124367481354 -1.7222116259979607 0 0 0
978 0 2 1 10.244840968989926 12.55886509048425 -1.8395034791420883 0 0 0
979 0 2 1 13.017476162385584 10.355578659061894 -1.9217661371085413 0 0 0
982 0 1 -1 12.81937244703309 12.781712175591638 -1.6245764371307665 0 0 0
1367 0 1 -1 15.510533861617906 10.184354326454795 -1.766718572129026 0 0 0
1362 0 2 1 15.844352329490293 12.971539992361445 -1.3212106726078048 0 0 0
215 0 1 -1 20.686091312642212 10.176161167934358 -1.5320930206140666 -1 0 0
1363 0 2 1 18.166000863392888 10.235314733791215 -1.374010664819199 0 0 0
1366 0 1 -1 18.1166249306309 12.807722802283601 -1.9118106866962314 0 0 0
307 0 2 1 2.4401808097613453 15.760556661230462 -1.7228815348193471 0 0 0
311 0 1 -1 -0.2960578711021218 15.506274667966943 -1.6146940437211406 0 0 0
695 0 1 -1 4.728091763520986 15.425387447038677 -1.1866258875390265 0 0 0
691 0 2 1 7.681594565839154 15.072074808160306 -1.9367491576103504 0 0 0
1079 0 1 -1 10.1709417632622 15.28121616640935 -2.2251228576049265 0 0 0
1075 0 2 1 13.149884079970727 15.36199468767266 -1.6474496357877086 0 0 0
1463 0 1 -1 15.596537389461947 15.616577339178024 -1.7309546995613623 0 0 0
1459 0 2 1 18.41805202698327 15.668577039780002 -1.8352778038216258 0 0 0
310 0 1 -1 2.4106571321107677 18.20508103514711 -2.063738747523601 0 0 0
306 0 2 1 -0.2561361924566211 18.434808329999626 -1.9721465125632562 0 0 0
407 0 1 -1 4.840105475130998 20.622240835145 -1.5698289748007177 0 -1 0
690 0 2 1 4.9828865400998055 17.880447107995032 -2.2914172109105166 0 0 0
791 0 1 -1 10.069550472103105 20.57200500077971 -2.023373654472227 0 -1 0
403 0 2 1 7.590117792699956 20.36913943144266 -1.6599750445143329 0 -1 0
694 0 1 -1 7.433191599184553 18.032342331113718 -1.6201825991695706 0 0 0
1074 0 2 1 9.89907646188628 17.887585102460378 -1.5606666626376082 0 0 0
1078 0 1 -1 12.801197629052123 18.269766876697318 -1.7971897512029997 0 0 0
1175 0 1 -1 15.501129887104993 20.63043042099403 -1.9515048126376762 0 -1 0
1458 0 2 1 15.530202429587003 18.029236903624074 -1.7862603186117738 0 0 0
1171 0 2 1 18.21007961336923 20.684606748808207 -1.7308732528751065 0 -1 0
1462 0 1 -1 18.001964768105566 17.881006417209 -1.6996751744732421 0 0 0
28 0 2 1 2.6140599586333826 2.4167243098781355 2.8678332826790225 0 0 0
29 0 1 -1 2.0155545139913214 -0.048424325346059116 2.956796856397766 0 0 0
416 0 1 -1 4.882283637125374 2.2492846136966307 2.568186820261076 0 0 0
413 0 1 -1 7.544338348787998 -0.2743693224299891 2.5844642009176297 0 0 0
412 0 2 1 7.731692702402858 2.130124237272949 2.9710027668194243 0 0 0
796 0 2 1 12.823055501364925 2.460690235518563 2.8343123341107272 0 0 0
800 0 1 -1 10.45021328594937 2.261384438014752 2.6951573113019656 0 0 0
793 0 2 1 10.177098484781773 -0.029446790914250565 3.0442899369399186 0 0 0
1177 0 2 1 15.468065671759746 -0.3590663831383125 2.2918733712103574 0 0 0
1184 0 1 -1 15.391157328420377 2.404271099243162 2.905337137364512 0 0 0
1180 0 2 1 18.18963389622253 2.453812431439788 2.771990069427005 0 0 0
32 0 1 -1 20.632646112700293 2.130800699594428 2.9446760983347993 -1 0 0
25 0 2 1 20.481908465023494 -0.16614871058929964 3.239316267227366 -1 0 0
125 0 1 -1 2.2490982379681776 4.9540589416266805 1.9976197003740914 0 0 0
505 0 2 1 4.874213499476341 5.018491127154865 1.922028717530285 0 0 0
509 0 1 -1 7.351195945855961 4.972064636228497 2.650313617408056 0 0 0
889 0 2 1 9.950060935702545 4.99802532268517 2.6428395864864385 0 0 0
893 0 1 -1 12.929103564492497 4.860198657534486 2.9522615136038546 0 0 0
1273 0 2 1 15.266125681267686 4.742846293626243 2.4360145989141166 0 0 0
121 0 2 1 20.584107243994865 5.131544272082552 2.6334527625276536 -1 0 0
1277 0 1 -1 18.180571247005794 4.748341893641373 2.827775201990544 0 0 0
124 0 2 1 2.1140516477486995 7.460049581370083 3.0677999519559265 0 0 0
221 0 1 -1 2.1012500708800927 9.993597761709008 3.0600300362803594 0 0 0
512 0 1 -1 4.65271414500657 7.647966514008875 2.654509781395589 0 0 0
601 0 2 1 4.614644956558387 10.165011036154114 2.190525258966442 0 0 0
605 0 1 -1 7.558272748099095 9.959345413483367 1.941593738196147 0 0 0
985 0 2 1 9.910239203319401 9.992996586262688 2.579288567266026 0 0 0
508 0 2 1 7.151439530061589 7.640583107967672 2.967432116237628 0 0 0
896 0 1 -1 10.27346194518987 7.520276444456744 2.847657032075176 0 0 0
892 0 2 1 12.585508118817136 7.053464141552847 2.2404520308079974 0 0 0
1280 0 1 -1 15.576603313067244 7.4500214532744975 3.0841356566896714 0 0 0
1369 0 2 1 15.45463625063207 10.12928272853323 2.9198106353287194 0 0 0
1276 0 2 1 18.072130898834736 7.762764474392506 3.138385887360762 0 0 0
128 0 1 -1 20.57288871589966 7.594120544800485 3.074897619484375 -1 0 0
217 0 2 1 -0.2847349267317545 10.550297245357775 2.592537542407566 0 0 0
220 0 2 1 2.33416154187592 12.681032236421373 2.583224271935702 0 0 0
224 0 1 -1 0.023151618648874828 12.87685599641209 2.9745564448489255 0 0 0
608 0 1 -1 5.0011037345174385 12.435607035222136 2.622800180647353 0 0 0
604 0 2 1 7.724787755332601 12.697419078415404 2.2011427667926284 0 0 0
992 0 1 -1 10.170681638297888 12.89724219562949 2.5325623548529776 0 0 0
988 0 2 1 12.805225457736077 13.028123210848973 2.500162580346533 0 0 0
989 0 1 -1 13.003949242453166 10.25425611288797 2.9727955282645375 0 0 0
1376 0 1 -1 15.590241622355867 13.081565419481896 2.832631280304593 0 0 0
1373 0 1 -1 17.838060921705832 10.236619935179078 3.219324513056428 0 0 0
1372 0 2 1 18.00988345178846 13.219797273084556 3.433338360467502 0 0 0
313 0 2 1 -0.15493309646965722 15.439472753680445 2.9273225198666317 0 0 0
317 0 1 -1 2.2977334861869934 15.239599640732804 2.936519743912328 0 0 0
697 0 2 1 4.791618474091982 15.725864421965474 2.8044371959692427 0 0 0
701 0 1 -1 7.7053012607113 15.394277229222281 2.8344745265930023 0 0 0
1081 0 2 1 10.13202481631571 15.438280991314857 2.7543929297971275 0 0 0
1085 0 1 -1 13.22320619122418 15.630219118162193 2.7360597989671795 0 0 0
1465 0 2 1 15.770930897737307 15.539896884117683 2.69039636547134 0 0 0
1469 0 1 -1 18.38306238866756 15.460828954538746 2.8015938847464703 0 0 0
316 0 2 1 2.2740107149449065 17.977571540024122 2.6082054078484695 0 0 0
320 0 1 -1 -0.2949813100476165 18.15252774280458 2.6409615832438185 0 0 0