LAMMPS (29 Sep 2021 - Update 3)
OMP_NUM_THREADS environment is not set. Defaulting to 1 thread. (src/comm.cpp:98)
  using 1 OpenMP thread(s) per MPI task
units	metal
atom_style	full

read_data	structureA.data
Reading data file ...
  orthogonal box = (0.057581895 0.10691832 0.16925191) to (15.914851 15.865514 31.775614)
  2 by 2 by 4 MPI processor grid
  reading atoms ...
  432 atoms
  reading velocities ...
  432 velocities
Finding 1-2 1-3 1-4 neighbors ...
  special bond factors lj:    0        0        0       
  special bond factors coul:  0        0        0       
     0 = max # of 1-2 neighbors
     0 = max # of 1-3 neighbors
     0 = max # of 1-4 neighbors
     1 = max # of special neighbors
  special bonds CPU = 0.001 seconds
  read_data CPU = 0.016 seconds

pair_style	quip
pair_coeff	* * /ocean/projects/cts180021p/wuziqi/clease/mint-PD/PhaseDiagram-Clease/Liquid/GAP_potential/gap_LiKCl.xml "Potential xml_label=GAP_2021_9_27_0_1_17_37_618" 17 19 3

neighbor	0.3 bin
neigh_modify	delay 10

timestep	0.001
compute	msd all msd
thermo_style	custom step temp pe etotal press vol c_msd[4]
thermo	10
dump	1 all custom 10 xyz-melt.dump type id x y z
dump	2 all custom 10 force-melt.dump type id fx fy fz

fix     1 all npt temp 300 2000 $(100.0*dt) z 1.01325 1.01325 $(1000.0*dt) couple none
fix     1 all npt temp 300 2000 0.10000000000000000555 z 1.01325 1.01325 $(1000.0*dt) couple none
fix     1 all npt temp 300 2000 0.10000000000000000555 z 1.01325 1.01325 1 couple none
run     5000
Neighbor list info ...
  update every 1 steps, delay 10 steps, check yes
  max neighbors/atom: 2000, page size: 100000
  master list distance cutoff = 6.22
  ghost atom cutoff = 6.22
  binsize = 3.11, bins = 6 6 11
  1 neighbor lists, perpetual/occasional/extra = 1 0 0
  (1) pair quip, perpetual
      attributes: full, newton on
      pair build: full/bin
      stencil: full/bin/3d
      bin: standard
Per MPI rank memory allocation (min/avg/max) = 8.895 | 8.898 | 8.902 Mbytes
Step Temp PotEng TotEng Press Volume c_msd[4] 
       0    293.74927   -3368.8618   -3352.4967    -760.3917    7898.0599            0 
      10    305.12051   -3369.4943   -3352.4957   -1499.5469    7897.5103 0.0052307996 
      20     315.4155   -3370.0707   -3352.4986   -2143.7942     7895.843  0.019756662 
      30    315.18763   -3370.0704    -3352.511   -2113.1269    7893.0745   0.03951255 
      40    314.58677    -3370.056     -3352.53   -1602.9297    7889.3312  0.058853678 
      50    317.07966   -3370.2146   -3352.5498   -677.09835    7884.8811   0.07390891 
      60    317.30476   -3370.2452   -3352.5678    242.17345    7880.0575  0.084008931 
      70    314.11545   -3370.0805   -3352.5808    886.99314    7875.0771  0.090793996 
      80    312.30657   -3369.9791   -3352.5801    1493.1849    7870.2754  0.096486141 
      90    309.30581   -3369.7908   -3352.5591    2323.4813    7866.2243   0.10261498 
     100    306.28711   -3369.5758   -3352.5122    3110.3579     7863.486   0.10914959 
     110    315.42917   -3370.0092   -3352.4363     2872.212    7862.3951   0.11523397 
     120    315.06493    -3369.878   -3352.3253     2172.451    7862.8783   0.12117005 
     130    304.19511   -3369.1212   -3352.1741    1966.4168    7864.7265   0.12668031 
     140    309.42082   -3369.2058   -3351.9676    1602.8031    7867.8242   0.13074028 
     150    326.02429   -3369.8552    -3351.692    495.95224    7871.9132   0.13400957 
     160    341.43465   -3370.3883   -3351.3666   -516.98379    7876.5089   0.13794386 
     170    354.44148   -3370.7831   -3351.0368   -879.80057    7881.3357   0.14302242 
     180      352.666   -3370.3922   -3350.7448   -191.20381    7886.3537   0.14917426 
     190    337.88146   -3369.3329   -3350.5091    913.82299    7891.6259   0.15558056 
     200    325.98224   -3368.4747   -3350.3139    1518.7944    7897.2912   0.16107993 
     210    323.41626   -3368.1514   -3350.1335     1556.271    7903.4074   0.16549737 
     220    328.75987   -3368.2663   -3349.9507    1029.7847    7909.8212   0.16953819 
     230    328.49108   -3368.0584   -3349.7578    8.5145242    7916.1157    0.1740751 
     240    319.25189   -3367.3416   -3349.5558    -287.1234    7921.8773   0.17893969 
     250    321.15382   -3367.2318   -3349.3399   -364.26927     7927.125   0.18309196 
     260    334.87356   -3367.7556   -3349.0994    -216.8473     7932.099    0.1869156 
     270    340.64435   -3367.8174   -3348.8397    480.12915    7936.9815   0.19170457 
     280    343.70899   -3367.7189   -3348.5705    1361.1534    7941.8993   0.19693048 
     290    349.73883   -3367.7746   -3348.2902    1240.4888    7946.7967   0.20131843 
     300    352.17423   -3367.6196   -3347.9996    691.03669     7951.316   0.20491065 
     310    344.33596   -3366.8897   -3347.7064    567.57808    7955.1716   0.20843579 
     320    343.48124   -3366.5449   -3347.4092    341.21943    7958.4775   0.21165825 
     330    358.72394   -3367.0795   -3347.0946   -407.78656    7961.2937   0.21449368 
     340    363.95983    -3367.044   -3346.7674    -770.8404    7963.3511   0.21808395 
     350    358.46188   -3366.4145   -3346.4442   -691.79013    7964.4799   0.22291576 
     360    352.52194   -3365.7621   -3346.1227    25.704624    7964.7271   0.22818928 
     370    349.67074   -3365.2739   -3345.7934    887.72087    7964.3788   0.23276999 
     380    357.39981   -3365.3598   -3345.4487    1411.1606    7963.8418   0.23604341 
     390    368.00619   -3365.5887   -3345.0867    1720.5647    7963.5288   0.23858637 
     400    368.71224   -3365.2615   -3344.7201    1776.2131    7963.7866    0.2409648 
     410     362.9121   -3364.5733    -3344.355    1658.4341    7964.6561   0.24259351 
     420    373.52266   -3364.7927   -3343.9834    764.76479    7965.8868   0.24245983 
     430    392.69533   -3365.4708   -3343.5933   -343.19612    7967.1434   0.24121087 
     440    392.25511   -3365.0546   -3343.2017   -542.17712    7968.1085   0.24045084 
     450    392.58396   -3364.6898   -3342.8185   -82.141356    7968.5731   0.23977094 
     460    391.40137   -3364.2393   -3342.4339    843.42055      7968.58   0.23931849 
     470    385.88654   -3363.5443   -3342.0461    1503.6919    7968.3984   0.23972547 
     480    401.07654   -3363.9896   -3341.6452    1214.2285    7968.2906   0.24051661 
     490     419.8206   -3364.6131   -3341.2245    1198.6308    7968.1721   0.24207409 
     500    417.78299   -3364.0811    -3340.806    1744.8709    7967.9118   0.24433492 
     510    412.03503   -3363.3543   -3340.3994    2177.4942    7967.5632   0.24543511 
     520    403.86952   -3362.4933   -3339.9933    2495.0077    7967.2616   0.24448049 
     530    408.99074   -3362.3636   -3339.5782    2265.7021    7966.9492   0.24173458 
     540    417.19107   -3362.3872    -3339.145    1972.9669    7966.2964   0.23886566 
     550    410.71357   -3361.5866   -3338.7053    2521.3444    7965.1858   0.23766106 
     560    419.71013   -3361.6434   -3338.2609    2580.9599    7964.0189   0.23806247 
     570    431.58562   -3361.8435   -3337.7994    2226.9652    7963.1756   0.24104056 
     580    434.84466   -3361.5628   -3337.3371    2627.1256    7962.8196   0.24674293 
     590    448.75929    -3361.875   -3336.8741    2731.6895    7963.0765   0.25262932 
     600    466.46843   -3362.3948   -3336.4073    2422.4907    7963.9013   0.25650842 
     610    468.20781   -3362.0336   -3335.9493    2197.4377    7965.1293   0.25797261 
     620    456.62325   -3360.9486   -3335.5096    1775.7604    7966.7428   0.25740647 
     630    458.64314   -3360.6247   -3335.0732    1425.3016    7968.7231   0.25538995 
     640    465.75271   -3360.5718   -3334.6242    2025.0805    7970.8692   0.25369656 
     650    465.20375   -3360.0861   -3334.1691    3719.8688    7973.2095   0.25359572 
     660    461.61227   -3359.4327   -3333.7158     5284.646    7976.2481   0.25499063 
     670    459.43478   -3358.8561   -3333.2605    5676.8293    7980.5237   0.25716778 
     680    467.74776   -3358.8532   -3332.7944    4866.5136    7986.1564   0.25977816 
     690     477.8584   -3358.9296   -3332.3076    3716.5967     7992.733   0.26354414 
     700    483.19094   -3358.7305   -3331.8114    3454.1588    7999.5928   0.26899216 
     710    492.80616   -3358.7709   -3331.3161     3612.499    8006.5579   0.27505136 
     720     503.6546   -3358.8812    -3330.822    3251.0012    8013.7952   0.27972557 
     730    504.84815   -3358.4584   -3330.3328    2997.0468    8021.2694   0.28228287 
     740    498.30734   -3357.6154   -3329.8541    3523.2608     8028.834   0.28395878 
     750    485.53206   -3356.4332   -3329.3836    4025.2117      8036.63     0.286172 
     760     490.4332   -3356.2247   -3328.9021    3610.4701    8044.7783   0.28886945 
     770    511.98798   -3356.9119   -3328.3885     2642.533    8052.9887   0.29224037 
     780    519.49503   -3356.7994   -3327.8578    1641.6943    8060.7696   0.29695142 
     790    529.98905   -3356.8557   -3327.3294    721.47686    8067.7212   0.30258972 
     800    527.88911   -3356.2161   -3326.8068    287.05281    8073.4187   0.30986047 
     810    522.35395   -3355.4008   -3326.2999    749.79784    8077.5898    0.3185009 
     820    538.23023   -3355.7787   -3325.7933    1199.4268    8080.4285   0.32785096 
     830     534.1265   -3355.0433   -3325.2865    2847.3453    8082.5198    0.3379264 
     840    535.66058   -3354.6312    -3324.789    4147.9905    8084.7531   0.34613971 
     850    529.43249   -3353.7836   -3324.2883     4970.993    8087.6456   0.35107892 
     860    531.22287    -3353.381    -3323.786     5180.619    8091.4344    0.3528326 
     870    532.93974   -3352.9607   -3323.2701    5109.0167    8096.1397    0.3536922 
     880    534.19742   -3352.5078   -3322.7471    4581.6315    8101.7569   0.35575203 
     890    560.34642   -3353.4277   -3322.2102    3684.5156    8108.3245   0.35909852 
     900    569.44484   -3353.3887   -3321.6643    4107.6902    8115.7425   0.36381889 
     910     555.7915   -3352.1058   -3321.1421    5615.1659    8123.9671   0.36838101 
     920    548.12301   -3351.1737   -3320.6371     6286.318    8133.2386   0.37150082 
     930    553.17385   -3350.9442   -3320.1262    6021.2739     8143.741    0.3742639 
     940    574.65337   -3351.6081   -3319.5935    5367.1321    8155.3821   0.37838594 
     950    579.64236   -3351.3479   -3319.0553    4927.9653    8168.0366   0.38510743 
     960    585.89338   -3351.1655   -3318.5248    3880.4147    8181.6884    0.3939112 
     970     609.0509   -3351.9097   -3317.9788    1541.1793    8195.9014    0.4042362 
     980    611.14807   -3351.4644   -3317.4167   -756.29711     8209.684   0.41704268 
     990    587.82871   -3349.6142   -3316.8656   -1943.5859    8221.8534   0.43082728 
    1000    584.71358   -3348.8999   -3316.3248   -2228.4492    8231.7065    0.4412425 
    1010    591.42038   -3348.7255   -3315.7768   -1350.2025    8239.1734   0.44749079 
    1020    600.45794   -3348.6743   -3315.2221   -234.87013    8244.5004   0.45066316 
    1030    616.76334   -3349.0232   -3314.6626    540.25753    8247.7292   0.45064069 
    1040    623.66896   -3348.8555   -3314.1102    1052.6604    8248.8569   0.44718917 
    1050     619.4563   -3348.0865   -3313.5758    2246.4217    8248.0284   0.44091924 
    1060    615.12671   -3347.3226   -3313.0532    3749.3195    8245.7948   0.43403331 
    1070    600.55276   -3345.9846   -3312.5271    5617.3983     8242.994   0.42847423 
    1080    613.03213   -3346.1409   -3311.9882    5814.8994    8240.2454   0.42261773 
    1090    651.40561    -3347.709   -3311.4185    4773.3211     8237.535   0.41639876 
    1100    689.89531   -3349.2813   -3310.8464    3740.1818    8234.5448   0.41269685 
    1110    692.92739   -3348.9194   -3310.3157    3718.3039    8230.8579   0.41352314 
    1120    677.29301    -3347.574   -3309.8412    4506.9965    8226.5703   0.41697028 
    1130     672.3475   -3346.8521   -3309.3948    5630.5381    8222.3723   0.42017529 
    1140    668.86948   -3346.2207   -3308.9572    7053.0596    8218.9471   0.42281043 
    1150    665.81225   -3345.6146   -3308.5214    8361.0125    8216.7434    0.4255574 
    1160    670.99077   -3345.4616   -3308.0799    9174.3885    8216.0465   0.42902306 
    1170    693.53688   -3346.2717    -3307.634    9045.1114    8217.0638   0.43409543 
    1180    689.76656   -3345.6199   -3307.1922    9736.4463    8219.7757   0.44276667 
    1190    674.93517   -3344.3736   -3306.7722     10623.17    8224.2132   0.45475509 
    1200    683.45186   -3344.4264   -3306.3505    9624.7425    8230.5256   0.46750103 
    1210    694.35411   -3344.5985   -3305.9152    7639.4557    8238.5568   0.48010522 
    1220    683.37045   -3343.5402   -3305.4688    6620.1107    8247.7372   0.49320469 
    1230    676.22821   -3342.6838   -3305.0104    6303.5734    8257.3053   0.50632157 
    1240     687.4906   -3342.8256   -3304.5248    6718.5934    8266.7074    0.5183697 
    1250    719.41138   -3344.0985   -3304.0192    6918.7475    8275.8345   0.53038119 
    1260    713.17681   -3343.2451   -3303.5132    8224.1789    8284.5305   0.54454033 
    1270     694.1405   -3341.7034   -3303.0321    9068.3618    8292.8042   0.55802963 
    1280    728.16671   -3343.1185   -3302.5515    7439.5022    8301.0896   0.56740082 
    1290    736.87417   -3343.1185   -3302.0665    6388.8906    8309.7351   0.57720973 
    1300    687.81482   -3339.9284   -3301.6094    7103.2753    8318.7379   0.59018047 
    1310    681.22697   -3339.1069    -3301.155    7263.7856    8328.1577   0.60287833 
    1320    705.19709   -3339.9379   -3300.6505    6934.3936    8337.9725   0.61456734 
    1330    710.98654    -3339.723   -3300.1131    6984.0481    8347.8788   0.62674625 
    1340    704.50651   -3338.8138    -3299.565    6574.2141     8357.634   0.63935034 
    1350    722.37406   -3339.2413    -3298.997    5275.7996    8366.8149   0.65109168 
    1360    740.80044   -3339.6804   -3298.4096    3833.5944    8374.7628   0.66218618 
    1370    756.94109   -3339.9991   -3297.8291    3272.1323    8380.7609   0.67350689 
    1380    762.96143   -3339.7842   -3297.2788    3745.4925    8384.4951   0.68464665 
    1390     761.6481   -3339.1975   -3296.7652    3975.8856    8386.1881   0.69337998 
    1400    748.88194   -3338.0004   -3296.2793    3900.1897    8386.2003   0.69880242 
    1410    742.00059    -3337.141   -3295.8033      4313.37    8385.0801   0.70001614 
    1420    746.43749   -3336.8991   -3295.3142    4894.4211    8383.6233   0.69627356 
    1430    753.02297   -3336.7644   -3294.8126    5802.0022    8382.0882   0.68806591 
    1440    733.00553   -3335.1403   -3294.3038    7570.7366    8380.1947   0.67849594 
    1450    739.40281   -3334.9732   -3293.7803    7774.2914    8378.0522   0.67064348 
    1460    774.19858   -3336.3538   -3293.2224    7337.9337    8376.0179   0.66884804 
    1470    753.97504   -3334.6653   -3292.6605    8127.6975    8374.4324   0.67458508 
    1480    746.13197   -3333.6802   -3292.1124    8449.0675    8373.7328   0.68117183 
    1490    762.07537   -3334.0031    -3291.547    8473.3888    8374.1512   0.68409069 
    1500    780.06303   -3334.4253   -3290.9671     8464.464    8375.3875    0.6827608 
    1510     810.4314    -3335.538    -3290.388    8118.7185    8376.9603    0.6771346 
    1520    836.63488   -3336.4392   -3289.8293    6931.4553    8378.6417   0.66859407 
    1530    821.18407   -3335.0701    -3289.321     6732.828    8380.2135   0.65948812 
    1540    793.36777   -3333.0587   -3288.8593    7279.5759    8381.8438   0.65053083 
    1550    801.51395    -3333.058   -3288.4047    6853.5601    8383.8482   0.64308977 
    1560    813.39319   -3333.2505   -3287.9354     7554.833     8385.864   0.63877656 
    1570    804.12691   -3332.2644   -3287.4656    8866.4308    8387.4609   0.63614684 
    1580    805.98667    -3331.893   -3286.9906    9803.7359    8388.8844   0.63300489 
    1590    830.16179    -3332.757   -3286.5078    9844.9747    8391.0019    0.6290096 
    1600    830.00594   -3332.2691   -3286.0285    9579.9259    8394.5772   0.62604574 
    1610    834.85697   -3332.0771   -3285.5662    8555.8563    8399.9377   0.62497113 
    1620    844.21978   -3332.1326   -3285.1002     7425.808    8406.5353   0.62617134 
    1630    866.11041   -3332.8816   -3284.6296    7246.8329    8413.0848   0.62988526 
    1640     893.5916   -3333.9595   -3284.1765    7633.2115    8418.7765    0.6362418 
    1650    880.63246   -3332.8405   -3283.7795    7757.9997    8423.8872   0.64636638 
    1660    854.86453   -3331.0619   -3283.4364    8308.5711    8429.2454   0.65951886 
    1670     817.7319   -3328.6605   -3283.1037    8803.0847    8435.4871   0.67306029 
    1680    824.38278   -3328.6721   -3282.7448    8301.0167    8442.6953   0.68350508 
    1690    832.51675   -3328.7124    -3282.332    7375.4911    8450.6334   0.69291232 
    1700    828.07651    -3328.012    -3281.879    7115.0284    8458.8546   0.70305959 
    1710    856.94123   -3329.1258   -3281.3847    6828.0161    8466.8026   0.71190037 
    1720     874.2301   -3329.5766   -3280.8723    7230.0973    8474.3984   0.72172724 
    1730    879.56953   -3329.3773   -3280.3755    7424.2624    8482.2789    0.7355345 
    1740    877.80638   -3328.7991   -3279.8956    7110.1169    8490.7866   0.75364854 
    1750    871.92507   -3327.9979    -3279.422    6460.6336    8499.7106   0.77589123 
    1760    865.65634   -3327.1743   -3278.9476     6530.031    8508.5842   0.80230697 
    1770    874.83783   -3327.2079   -3278.4697    7242.6735     8517.289   0.82926759 
    1780    884.56788   -3327.2795   -3277.9992    8257.2326     8526.617   0.85101368 
    1790    899.25166   -3327.6376   -3277.5392    8341.1979    8537.4417   0.86655184 
    1800    898.76327   -3327.1436   -3277.0724     8000.463    8549.4538    0.8829333 
    1810    907.22757   -3327.1557   -3276.6131    8116.3182    8561.7329   0.90423864 
    1820    891.05229   -3325.8111   -3276.1695    9143.9247    8574.3006   0.92930304 
    1830    904.49132   -3326.1347   -3275.7444      9434.53    8587.8089   0.95289221 
    1840     900.6897    -3325.482   -3275.3036    9309.5128    8602.1827   0.97601114 
    1850    873.30471   -3323.5112   -3274.8584    9586.0871    8616.9601   0.99892837 
    1860    875.80977   -3323.1862   -3274.3939    8833.5969     8631.996     1.020403 
    1870    871.46145   -3322.4421    -3273.892    7510.9135    8647.3519    1.0416416 
    1880    858.34043   -3321.1715   -3273.3524     6604.353    8662.7332    1.0626957 
    1890    862.23323   -3320.7959   -3272.7599    6097.8287    8677.5011    1.0837275 
    1900    896.36293   -3322.0634    -3272.126    5338.5419    8691.2112    1.1058226 
    1910    914.34189   -3322.4114   -3271.4724    4378.8336     8703.496    1.1292822 
    1920    902.51814    -3321.123   -3270.8427    3978.6948      8714.01    1.1508569 
    1930    911.24262   -3321.0054    -3270.239     4140.817    8722.6025    1.1671536 
    1940    934.86094   -3321.7312   -3269.6491    4274.8617    8729.4608    1.1803233 
    1950    949.12669   -3321.9637   -3269.0868     4206.937     8734.904    1.1936661 
    1960    933.47798   -3320.5667   -3268.5616    4912.8285    8739.0308    1.2099943 
    1970    932.35742   -3320.0046   -3268.0619    5704.5885    8742.2888     1.229936 
    1980    957.47679   -3320.9108   -3267.5687    6033.4495    8745.1859    1.2542417 
    1990    936.17101   -3319.2436   -3267.0884    7853.1245    8748.5206    1.2827711 
    2000    953.32995   -3319.7375   -3266.6264    7624.4581    8753.7124    1.3083873 
    2010    1001.8318   -3321.9661   -3266.1529    5969.5675    8760.8058    1.3300072 
    2020    975.55082   -3320.0468   -3265.6977    6343.6363    8768.5291    1.3512172 
    2030    937.49974   -3317.5026   -3265.2734    6724.0546    8776.2562    1.3688304 
    2040    941.02505   -3317.2546    -3264.829    5088.3918    8783.8679    1.3807675 
    2050    981.82115   -3319.0411   -3264.3427    3659.5274    8790.9679    1.3893014 
    2060    1015.6321   -3320.4308   -3263.8488    4162.0732    8797.3335    1.3974249 
    2070    1001.6987   -3319.1905   -3263.3847    5511.6857    8803.1723    1.4084199 
    2080     1016.672   -3319.5924   -3262.9525    5403.7512    8808.6097    1.4212256 
    2090    1019.3283   -3319.3251   -3262.5372    4716.0339    8812.9227    1.4344851 
    2100    980.11652   -3316.7565   -3262.1531    5749.0802    8815.3837    1.4477509 
    2110     974.2417   -3316.0483   -3261.7722    6658.2861    8816.2397    1.4581522 
    2120    980.73706   -3315.9965   -3261.3586    7540.0108    8816.1471       1.4663 
    2130    990.71339   -3316.1092   -3260.9155    8117.7502    8815.8252    1.4744262 
    2140    982.37406   -3315.1814   -3260.4523    8484.9072    8815.4281    1.4849171 
    2150    940.55742   -3312.3709   -3259.9714    9353.5138    8814.8076     1.498258 
    2160    929.91212   -3311.2505    -3259.444    9533.1013    8814.3413    1.5108959 
    2170    968.31331   -3312.7954   -3258.8495    9080.5768     8814.633    1.5220223 
    2180    1003.5799   -3314.1168   -3258.2062    8756.1311    8816.0001    1.5317482 
    2190    1014.2889   -3314.0798   -3257.5726    8826.0436    8818.1437     1.536368 
    2200    1047.0251   -3315.3008   -3256.9698    8378.0007    8820.5394    1.5349371 
    2210    1053.7445   -3315.1208   -3256.4155    8681.5412    8822.7659    1.5335983 
    2220    1042.2031   -3313.9947   -3255.9324    10328.487     8825.233     1.537207 
    2230    1042.8353   -3313.5998   -3255.5022    11827.978    8829.5338    1.5506244 
    2240    1078.4172   -3315.2044   -3255.1246    11508.942    8837.1767    1.5791021 
    2250    1055.3151   -3313.5944   -3254.8016    11824.416    8848.3427    1.6232638 
    2260    1051.9176   -3313.1192   -3254.5157    11540.996    8862.7975    1.6788785 
    2270     1054.991   -3312.9988   -3254.2241    11140.877    8879.7015     1.742424 
    2280     1001.452   -3309.7324   -3253.9404    12262.525    8898.5252    1.8084971 
    2290    971.24319    -3307.761   -3253.6519    12540.974    8919.8897    1.8680118 
    2300      1017.75   -3310.0023   -3253.3023    10061.073    8944.3499    1.9215082 
    2310    1066.7966    -3312.273   -3252.8405    7044.6782    8971.0085    1.9811099 
    2320    1067.1521   -3311.7707   -3252.3185    5301.4278    8998.1496    2.0527374 
    2330    1050.9074   -3310.3274   -3251.7802    4474.7938    9024.5255    2.1338359 
    2340    1011.9393   -3307.5969   -3251.2206    4053.0268    9049.2434    2.2196115 
    2350     999.8262   -3306.3286   -3250.6272    3807.1227    9071.5821    2.3025442 
    2360     1024.289   -3307.0734   -3250.0091    4158.3582    9091.6541    2.3782542 
    2370    1060.3416   -3308.4471   -3249.3743    4418.8781    9110.3571    2.4506815 
    2380    1092.6581   -3309.6088   -3248.7356    4152.6098     9127.806    2.5244414 
    2390    1074.4325   -3307.9768    -3248.119    4712.9701    9143.0961    2.5969546 
    2400    1050.2822   -3306.0579   -3247.5455    5447.2619    9155.4971    2.6602392 
    2410    1043.8549   -3305.1473    -3246.993    5003.5408    9164.9098    2.7098602 
    2420    1026.3984   -3303.6262   -3246.4444    4923.8354    9171.8943     2.751626 
    2430     1025.533   -3303.0177   -3245.8841    5009.4375    9177.5231    2.7893153 
    2440    1045.9894   -3303.5663    -3245.293    5062.2091    9182.5315    2.8217145 
    2450    1068.1581   -3304.1886   -3244.6803    5505.1045    9187.2077    2.8464393 
    2460    1075.1359   -3303.9701   -3244.0731    6856.1226    9191.8768    2.8622163 
    2470     1070.121   -3303.1066    -3243.489    7687.1134    9197.4748    2.8709229 
    2480    1072.1745   -3302.6455   -3242.9135    8196.5211    9204.8014    2.8849919 
    2490    1053.4511   -3301.0384   -3242.3494    7741.2215    9214.0573     2.916493 
    2500    1070.4228   -3301.4074   -3241.7729     6590.269    9224.9081    2.9591165 
    2510    1093.5886   -3302.0899   -3241.1649    6136.8406    9236.7375    3.0069699 
    2520    1095.4957   -3301.5858   -3240.5545    6330.2598    9249.0784    3.0591159 
    2530    1086.3244    -3300.462   -3239.9417    6471.9952      9261.23    3.1109174 
    2540    1103.3995   -3300.7987   -3239.3271    6045.4616    9272.8125    3.1626147 
    2550    1104.4982   -3300.2456   -3238.7128    5973.0769    9284.0516    3.2161824 
    2560    1098.8504   -3299.3233   -3238.1051    6311.8451    9295.2456    3.2685338 
    2570    1102.2137   -3298.9076    -3237.502    6074.1914     9306.682    3.3087301 
    2580    1092.3817   -3297.7475   -3236.8897    5778.6581    9318.6467    3.3397362 
    2590     1104.238   -3297.7724   -3236.2541    5062.3847    9331.1059    3.3731882 
    2600    1129.6521   -3298.5185   -3235.5843    4261.5701    9343.0955    3.4121689 
    2610    1130.9885   -3297.9256   -3234.9169    3916.3652    9354.1637    3.4558854 
    2620    1145.4119   -3298.0809   -3234.2687     3739.079    9364.7064    3.5023667 
    2630    1135.9988   -3296.9188    -3233.631    4765.5942    9374.8025    3.5498302 
    2640    1119.4355   -3295.3739   -3233.0089    6023.0665    9384.5834       3.5928 
    2650    1152.7902   -3296.6052   -3232.3819    5967.3334    9394.6331    3.6340779 
    2660    1195.1176   -3298.3316   -3231.7503     4830.006    9405.3284    3.6829217 
    2670    1149.0519   -3295.1687   -3231.1538    5318.3743    9416.7174    3.7458826 
    2680    1147.8358   -3294.5379   -3230.5907    4825.7601      9429.26     3.815243 
    2690    1190.1455   -3296.3185   -3230.0141    4026.8898    9443.3907    3.8824329 
    2700     1163.664   -3294.2793   -3229.4503    4786.5618    9459.0629    3.9482319 
    2710    1097.6587   -3290.0727   -3228.9209     5708.578    9476.5645    4.0089909 
    2720     1110.618   -3290.2256   -3228.3519    5253.4458    9496.2948    4.0735353 
    2730    1185.5096   -3293.7366   -3227.6905    4072.9601    9517.7672    4.1520273 
    2740    1216.9781   -3294.8021   -3227.0029    3801.9078    9540.2449    4.2472212 
    2750    1234.8494   -3295.1536   -3226.3587    3712.9998    9563.5175    4.3588932 
    2760    1221.4285   -3293.8026   -3225.7555    3749.1523    9587.2217    4.4847174 
    2770    1192.4604   -3291.6246   -3225.1913    3769.9513    9610.7808    4.6151063 
    2780    1201.7435   -3291.5587   -3224.6082    3357.0666    9633.4896    4.7331318 
    2790    1216.8059   -3291.7973   -3224.0077    2550.8243    9654.6029    4.8379777 
    2800    1210.2578   -3290.8511   -3223.4263    3292.1467    9673.9907    4.9397865 
    2810    1156.8133   -3287.3317   -3222.8844    4654.2793    9692.8827    5.0414106 
    2820    1166.2008   -3287.2946   -3222.3243    4487.1972    9712.5503    5.1422288 
    2830    1178.4437   -3287.3324     -3221.68    3023.0908    9732.6709    5.2399855 
    2840    1186.8359   -3287.0844   -3220.9645    1298.2713    9751.8674    5.3340844 
    2850    1203.4258   -3287.2603   -3220.2161    304.49426    9769.1396    5.4278936 
    2860    1184.5464   -3285.4531   -3219.4607    970.95854    9784.1061     5.524841 
    2870    1207.6865   -3285.9967   -3218.7152    1964.8997    9796.9063    5.6211009 
    2880     1225.466   -3286.2305   -3217.9585     2693.955    9807.9487    5.7070056 
    2890    1237.4337   -3286.1681   -3217.2293    2605.9707    9817.2308    5.7786224 
    2900    1248.6581   -3286.0987   -3216.5346    1984.3162    9824.8735    5.8432733 
    2910    1205.5774   -3283.0331    -3215.869     1692.141    9831.1165    5.9062977 
    2920     1239.815   -3284.2864   -3215.2149    1184.1328    9835.8797    5.9640201 
    2930    1230.6003   -3283.1096   -3214.5515    1678.4704     9839.082     6.023224 
    2940    1216.0549   -3281.6432   -3213.8954    1635.7391    9841.0285    6.0895022 
    2950    1220.6201   -3281.2334   -3213.2313    1781.7391    9842.1465    6.1569296 
    2960    1226.8356   -3280.8834    -3212.535    1750.0525    9842.7148    6.2262751 
    2970    1278.2696   -3283.0411   -3211.8273    2233.4413    9843.2271    6.3009336 
    2980    1260.1123   -3281.3304   -3211.1281    3803.3548    9844.6259    6.3854652 
    2990    1271.7006   -3281.3155   -3210.4676    4604.8391    9848.1465    6.4923675 
    3000    1321.5615   -3283.4365   -3209.8109    5202.2509    9853.9975      6.62538 
    3010    1303.9332   -3281.8529   -3209.2093    5947.6632    9862.1977    6.7802273 
    3020    1327.3721   -3282.6208   -3208.6714     5038.202    9873.3976    6.9419908 
    3030    1333.9026   -3282.4502    -3208.137    3849.8068    9886.8551    7.1059795 
    3040    1303.6065   -3280.2625   -3207.6371    3356.9789    9900.9237    7.2704588 
    3050    1284.1496   -3278.6941   -3207.1527    4142.8314    9915.1192    7.4192842 
    3060    1279.8979   -3277.9664   -3206.6619    5072.7392    9930.4508    7.5556675 
    3070     1269.192     -3276.87   -3206.1619    5546.2372    9948.0878    7.7055622 
    3080      1262.69   -3275.9522   -3205.6064    6164.5508    9967.8054     7.875357 
    3090    1329.7321    -3279.101   -3205.0202    5817.9663    9989.5627    8.0604663 
    3100    1328.8497   -3278.4645   -3204.4328    6078.2477     10013.67    8.2568526 
    3110    1316.3897   -3277.2448   -3203.9072    6375.2361    10040.755    8.4661211 
    3120    1339.2807   -3277.9605   -3203.3476    5416.1584    10070.472     8.701689 
    3130    1314.2124   -3275.9722    -3202.756    5233.4396    10100.873    8.9644731 
    3140    1231.5232   -3270.7998   -3202.1902    5739.8774    10131.596    9.2407516 
    3150    1298.2422   -3273.8922   -3201.5656    4196.7693    10163.017    9.5229578 
    3160    1308.1616   -3273.7236   -3200.8444    3740.0545    10193.933    9.8136167 
    3170    1245.1754   -3269.4878   -3200.1177    4536.6802    10223.554    10.104718 
    3180    1209.0962   -3266.7514   -3199.3913    5061.7426    10252.085     10.37822 
    3190    1273.8195   -3269.5523   -3198.5864    3479.8096    10279.937     10.62108 
    3200    1304.2996   -3270.3672   -3197.7032    2549.5287    10306.331    10.848198 
    3210    1259.5444   -3267.0286   -3196.8579    2016.7333    10330.754    11.072441 
    3220    1288.9955   -3267.8529   -3196.0415    252.75864     10353.63    11.276667 
    3230    1286.2732   -3266.8722   -3195.2125   -1008.9631    10374.993    11.451429 
    3240    1259.8501   -3264.5969   -3194.4092   -2177.0203    10394.692    11.599754 
    3250    1240.4008    -3262.691   -3193.5869   -3715.0919    10412.473    11.729322 
    3260    1290.6762   -3264.6121    -3192.707   -5291.9408    10427.038    11.842265 
    3270    1351.9999   -3267.1228   -3191.8014    -5148.665    10436.854    11.938428 
    3280    1357.2594   -3266.5656   -3190.9511   -2846.1051     10442.35    12.017454 
    3290    1380.0197   -3267.0478   -3190.1654   -2334.7786    10444.893    12.075878 
    3300    1374.8338   -3266.0149   -3189.4213   -2936.1227    10444.934    12.119725 
    3310    1396.5412   -3266.5357   -3188.7329   -3665.2388    10441.972    12.144887 
    3320    1357.3578   -3263.6905   -3188.0706    -3248.449    10435.984    12.147949 
    3330    1314.2673   -3260.6379   -3187.4186    -1702.286    10427.981    12.129122 
    3340      1298.23   -3259.0559     -3186.73   -249.93811    10418.213     12.10374 
    3350     1329.325   -3260.0278   -3185.9696    820.54016    10406.247    12.062812 
    3360    1366.7369   -3261.2754   -3185.1329    1578.9109     10392.55    12.007793 
    3370    1432.8342   -3264.0783   -3184.2535    2302.3368    10378.387    11.945716 
    3380    1502.9196    -3267.115   -3183.3857     3500.001     10364.97    11.884844 
    3390    1486.3139   -3265.4178   -3182.6136    5061.6894    10353.616    11.855726 
    3400    1437.9309    -3262.057   -3181.9482    6121.2811    10345.629    11.871421 
    3410    1427.1277   -3260.8555   -3181.3486    5927.5924    10342.073    11.932811 
    3420    1466.0692   -3262.4457   -3180.7694    4903.8715     10343.03    12.037678 
    3430    1439.9094   -3260.4338   -3180.2148    4291.0091    10347.413    12.165247 
    3440    1403.5034   -3257.8696   -3179.6789    4077.4301     10353.99    12.289526 
    3450    1401.9609   -3257.2105   -3179.1057    3443.9362    10361.818    12.405403 
    3460    1408.0431   -3256.9344   -3178.4908    3929.4141      10370.8    12.513578 
    3470    1403.5654   -3256.0343   -3177.8401    4980.0015    10381.843    12.631744 
    3480    1403.9673   -3255.3901   -3177.1735     4784.318    10396.162    12.782776 
    3490    1402.1764   -3254.5727   -3176.4559    4001.7524    10413.557    12.973707 
    3500    1403.5141    -3253.871   -3175.6797     3089.401    10432.754    13.195506 
    3510    1464.3005   -3256.4409    -3174.863     1908.354    10452.998    13.420372 
    3520    1490.6024   -3257.0891   -3174.0459    1428.3719    10473.892    13.627123 
    3530    1522.1644   -3258.0944   -3173.2929    569.59808    10495.531    13.803152 
    3540    1538.9816   -3258.3247   -3172.5863     709.2255    10517.353    13.954071 
    3550    1582.9185   -3260.1522   -3171.9661    249.67375    10538.329    14.099656 
    3560    1525.6309   -3256.4504   -3171.4558    940.90828    10558.089    14.260148 
    3570     1452.899    -3251.984   -3171.0413    1971.4897     10577.53    14.445406 
    3580    1447.2648   -3251.2313   -3170.6025     1162.861    10597.209    14.641375 
    3590    1474.7717   -3252.2617   -3170.1005    115.03325    10616.583    14.823437 
    3600    1475.3831   -3251.7568   -3169.5616    532.61023    10635.262    14.993079 
    3610    1459.5577   -3250.3188   -3169.0052    911.18392    10654.113    15.182881 
    3620    1460.7484   -3249.7807   -3168.4007    226.87328    10673.257    15.403648 
    3630    1493.2418   -3250.9216   -3167.7315   -1656.9932     10691.93    15.604445 
    3640    1514.2567   -3251.3775   -3167.0166   -2674.5672    10709.157    15.747236 
    3650    1535.9292   -3251.8691   -3166.3008   -3084.1597    10724.276    15.841659 
    3660     1571.854   -3253.1815   -3165.6117   -3230.0305    10736.999    15.918261 
    3670    1559.6227   -3251.8609   -3164.9726   -2659.8587    10746.911    16.004609 
    3680    1564.7663   -3251.5769    -3164.402   -3126.4097    10753.879    16.101843 
    3690    1602.3656    -3253.146   -3163.8764   -3622.4782    10757.592    16.191736 
    3700    1579.2826   -3251.4105   -3163.4269   -3090.7596    10757.666    16.262728 
    3710    1569.1916   -3250.4686   -3163.0472    -1932.813    10754.766    16.318447 
    3720    1592.2803   -3251.3953   -3162.6876   -884.37945    10750.618     16.37478 
    3730    1586.5974   -3250.7436   -3162.3525    1286.0258    10746.741    16.447254 
    3740    1563.7909   -3249.1745    -3162.054     2787.901    10744.791    16.537508 
    3750    1560.3339   -3248.6813   -3161.7533    2615.3412    10745.435    16.641815 
    3760    1592.6822   -3250.1823   -3161.4522    1878.0335    10747.583    16.742363 
    3770    1606.9391   -3250.6809   -3161.1565     1081.132    10749.748    16.833407 
    3780    1591.6024   -3249.5552   -3160.8852    376.65199    10750.556    16.904078 
    3790    1549.9931   -3246.9667   -3160.6148    -43.59565    10748.782    16.956956 
    3800    1634.6995   -3251.4188   -3160.3479   -1079.3743     10743.72    16.991059 
    3810    1597.6423   -3249.0842   -3160.0777    328.37195    10735.607    17.011729 
    3820    1590.7827   -3248.4442   -3159.8199    1343.2815    10725.996    17.014329 
    3830    1576.7379   -3247.3917   -3159.5498    1208.9106    10715.101    17.002008 
    3840    1517.3483   -3243.7905   -3159.2573    158.37254    10701.743    16.979916 
    3850    1541.3096   -3244.7683   -3158.9002   -1387.8069    10684.828    16.925702 
    3860    1546.5225   -3244.5921   -3158.4336    -1147.897    10664.252    16.848956 
    3870    1498.1803   -3241.3066   -3157.8413    1091.0591    10641.048    16.770983 
    3880    1466.4656   -3238.7691   -3157.0707     2960.996    10617.226    16.692505 
    3890    1504.8714   -3239.9225   -3156.0844    3457.4383    10594.612    16.624345 
    3900    1597.4819   -3243.9198   -3154.9223    2923.4762    10574.272    16.583358 
    3910    1682.5376   -3247.4402   -3153.7041    3055.6214    10556.493    16.551847 
    3920    1681.2886   -3246.2609   -3152.5945    4162.4716    10542.067    16.538796 
    3930    1681.7715   -3245.3803   -3151.6869    4363.3389    10531.857    16.555133 
    3940    1652.1381   -3243.0219   -3150.9794    4485.4168     10525.02    16.595382 
    3950    1667.3716   -3243.3188   -3150.4276       4676.6     10519.99    16.637687 
    3960    1698.5793   -3244.6241   -3149.9943    5561.6597    10516.392    16.670749 
    3970    1732.1171   -3246.1872    -3149.689    6159.2401    10515.397    16.725858 
    3980    1712.0507   -3244.8988   -3149.5185    6203.0369    10518.041    16.819831 
    3990     1622.906   -3239.8739     -3149.46     7444.572    10524.844    16.946232 
    4000    1622.3501   -3239.8215   -3149.4385    6431.8727    10536.643    17.122089 
    4010    1634.9489   -3240.4622   -3149.3773     3838.811    10552.817    17.348309 
    4020    1625.3779   -3239.8555   -3149.3038    2517.5736    10572.165    17.603248 
    4030    1653.4784   -3241.3453   -3149.2282    1464.9541    10594.717    17.893499 
    4040    1686.7718   -3243.0957   -3149.1237     524.3556    10619.974    18.210219 
    4050    1663.1351   -3241.6577   -3149.0026    440.64189    10646.513     18.51622 
    4060    1629.8896   -3239.6712   -3148.8682   -103.11255    10673.559    18.793598 
    4070    1647.9767   -3240.5046    -3148.694   -1217.5731    10700.744    19.066424 
    4080    1629.5285    -3239.241   -3148.4581   -1395.4906    10727.576    19.361639 
    4090    1579.9132    -3236.176   -3148.1572    -1446.876    10753.692    19.670668 
    4100    1618.7914   -3237.9235   -3147.7388   -2252.9728    10778.171    19.968547 
    4110    1693.7438   -3241.5747   -3147.2143     -2720.95    10799.755    20.238414 
    4120    1686.2709   -3240.6277   -3146.6837   -1378.7924    10818.457    20.467005 
    4130    1624.3864    -3236.638   -3146.1416   -295.10171    10835.137     20.65096 
    4140    1675.0043   -3238.8605   -3145.5441   -756.10672    10849.268    20.807148 
    4150    1700.3034   -3239.6231   -3144.8973   -393.99657    10860.243    20.971708 
    4160    1705.6485   -3239.2767   -3144.2531    -978.7762     10868.71    21.158599 
    4170    1705.2714   -3238.6259   -3143.6233   -693.27211    10875.604    21.345955 
    4180    1708.2565   -3238.1617   -3142.9928   -65.857295    10881.737    21.516728 
    4190    1742.4385   -3239.4464   -3142.3732    1010.5958    10887.699    21.675939 
    4200    1749.0818   -3239.2135   -3141.7702    2496.0086    10893.863    21.821441 
    4210    1824.4169   -3242.8666   -3141.2262    1696.0994     10900.89    21.993009 
    4220    1868.8553   -3244.8951   -3140.7791   -338.70065    10908.255    22.228729 
    4230    1845.2702   -3243.2953   -3140.4932    -1832.734    10914.537     22.50287 
    4240    1755.7617    -3238.137   -3140.3215   -1264.0852    10918.468    22.768844 
    4250    1711.3528   -3235.5443   -3140.2029   -832.96731     10919.78    22.987548 
    4260    1697.5304   -3234.6264   -3140.0551   -405.38382    10919.683    23.131376 
    4270    1737.9876   -3236.6902   -3139.8649   -976.35563    10919.408    23.213701 
    4280    1717.8585   -3235.3469   -3139.6431   -998.13349    10918.856    23.284394 
    4290    1673.0023   -3232.5963   -3139.3914   -971.65901    10917.277    23.386389 
    4300    1673.0498   -3232.2705   -3139.0631   -737.99911    10914.073    23.504351 
    4310    1646.2073   -3230.3353   -3138.6232     -103.378    10909.856    23.643988 
    4320    1697.2366   -3232.6153   -3138.0603   -768.33035     10905.94    23.796653 
    4330    1722.8354   -3233.3575   -3137.3764   -1482.6504    10901.903    23.930342 
    4340    1776.1351   -3235.5962   -3136.6457   -1683.4022    10897.158     24.02708 
    4350    1806.5665   -3236.5243   -3135.8784   -851.64836    10891.798    24.104215 
    4360    1828.0679    -3236.986   -3135.1423   -583.62887    10885.929     24.16896 
    4370    1845.7208   -3237.2895   -3134.4623   -163.43971    10879.705    24.224174 
    4380    1851.3112   -3236.9972   -3133.8586   -387.67261    10873.236    24.288281 
    4390    1806.0727    -3233.958   -3133.3397    511.76766    10866.114    24.370349 
    4400    1780.5445   -3232.0615   -3132.8653    367.47009    10858.837    24.426543 
    4410    1788.9277   -3232.0732   -3132.4101   -134.23912    10852.109    24.449954 
    4420    1769.3155   -3230.5168   -3131.9462   -227.30006    10846.027    24.456366 
    4430     1803.857   -3231.9822   -3131.4873   -283.48353    10839.984    24.452429 
    4440    1809.6178   -3231.8779   -3131.0621    -245.1957    10833.234    24.491399 
    4450    1813.3517   -3231.7081   -3130.6843   -5.0658303    10825.565    24.609335 
    4460    1795.4821   -3230.3676   -3130.3393    2061.0792    10817.874    24.793335 
    4470    1794.3733   -3229.9695   -3130.0029    4290.8625    10811.562    25.001642 
    4480    1872.6609   -3234.0507   -3129.7227    4252.2605    10807.864     25.18806 
    4490    1891.1674    -3234.904    -3129.545    3630.7205    10806.962    25.350436 
    4500    1867.0305   -3233.4949   -3129.4806     3604.579    10809.001      25.5149 
    4510    1795.6056   -3229.5082    -3129.473    4669.8748    10814.867    25.714401 
    4520    1777.5242   -3228.5004   -3129.4725    4202.8369    10825.594    25.937849 
    4530    1781.9542    -3228.722   -3129.4473    3087.7976    10840.771    26.152136 
    4540    1735.7806   -3226.0534   -3129.3511    1821.2342     10859.33     26.36996 
    4550    1740.9713   -3226.1611   -3129.1696    1341.0698    10879.756    26.633136 
    4560    1769.8012   -3227.4912   -3128.8936    1456.0834    10900.874    26.945299 
    4570    1803.6224   -3229.0238    -3128.542    356.45277    10922.029    27.277827 
    4580    1826.6542   -3229.9206   -3128.1556    -322.6816    10942.322    27.592124 
    4590    1820.9645   -3229.1977   -3127.7497   -1174.9711    10961.186    27.886714 
    4600    1851.9612   -3230.5067   -3127.3319   -2622.0545    10978.528    28.169268 
    4610    1814.5336   -3227.9782   -3126.8885   -2980.7967    10993.705    28.450216 
    4620    1840.9943   -3228.9819    -3126.418   -3895.0787    11006.002    28.721993 
    4630    1821.2394   -3227.3683    -3125.905   -3763.4616    11013.906    28.968018 
    4640    1785.0977   -3224.8297   -3125.3799   -2901.0638    11016.518    29.163983 
    4650    1785.1622    -3224.226   -3124.7726   -3043.2027    11014.952    29.306683 
    4660    1867.9687   -3228.1503   -3124.0837   -4928.9062    11010.468    29.411276 
    4670    1929.7155   -3230.8585   -3123.3519   -5920.4523    11003.206    29.498324 
    4680    1905.2228   -3228.8163   -3122.6742   -3272.7779    10993.597    29.578387 
    4690    1885.2298   -3227.0648   -3122.0366   -234.15077    10982.322     29.64515 
    4700    1856.1473   -3224.7871   -3121.3791    2176.4636    10970.285    29.714129 
    4710    1868.5544    -3224.793   -3120.6937     2004.309    10959.362    29.813011 
    4720    1900.3643   -3225.8421   -3119.9707    963.40353    10950.328     29.90905 
    4730    1916.5172   -3226.0353    -3119.264    398.74926     10942.75    29.969335 
    4740     1950.161   -3227.2408   -3118.5952    1111.0196    10935.569    29.996087 
    4750    1910.2263   -3224.3808   -3117.9599    2970.8115     10929.07    30.007461 
    4760     1959.675   -3226.5295   -3117.3538    2653.9427    10924.816     30.01322 
    4770    1995.5403   -3227.9689   -3116.7952    1773.3978    10923.446    30.044337 
    4780    2009.9061    -3228.305   -3116.3308    1822.8514    10924.417    30.132902 
    4790    1975.8103   -3226.0394   -3115.9648    2565.3786    10927.672    30.301855 
    4800    1937.6646   -3223.6415    -3115.692    2870.2534    10934.477    30.570389 
    4810    1986.3882   -3226.1105   -3115.4465    1523.7267     10944.97    30.924243 
    4820    2008.7871   -3227.1618     -3115.25    473.36594    10957.987    31.322589 
    4830    1953.3873   -3223.9402   -3115.1148     1537.379    10973.257    31.723256 
    4840    1971.2073   -3224.8266   -3115.0084    1657.4522    10990.387    32.089632 
    4850    1947.6981   -3223.3929   -3114.8845    2091.9657    11007.784     32.39218 
    4860    1998.0186   -3226.0809    -3114.769    1181.5735    11025.117    32.644363 
    4870    2060.5323   -3229.4623   -3114.6677   -693.50534    11041.668     32.90442 
    4880    2022.1577   -3227.3106    -3114.654   -998.06634    11055.307    33.188299 
    4890    1972.6668   -3224.6399   -3114.7404   -627.56989     11065.42     33.49396 
    4900    1895.6772   -3220.4567   -3114.8463    567.05321    11072.594    33.781889 
    4910    1866.8904   -3218.9111   -3114.9045    579.99771    11078.496    34.013185 
    4920    1879.8006    -3219.592   -3114.8662    89.843722    11084.051     34.19902 
    4930    1936.9176   -3222.6223   -3114.7145   -564.15466    11088.327    34.369566 
    4940    1968.1014   -3224.1102    -3114.465   -158.05509     11090.61    34.510489 
    4950    2040.9584   -3227.8738   -3114.1698    -785.4925    11091.336     34.60327 
    4960    2038.0187   -3227.4056   -3113.8653   -201.83386     11090.44    34.673572 
    4970    2002.2961   -3225.1078   -3113.5576     864.8064    11088.028    34.758604 
    4980    2018.2134   -3225.6467   -3113.2098    661.33607    11084.571    34.880857 
    4990    1969.6541   -3222.5402   -3112.8086    862.95802    11081.803    35.023943 
    5000    1906.0788   -3218.5063   -3112.3165    869.93641    11081.294    35.155329 
Loop time of 2070.63 on 16 procs for 5000 steps with 432 atoms

Performance: 0.209 ns/day, 115.035 hours/ns, 2.415 timesteps/s
95.7% CPU use with 16 MPI tasks x 1 OpenMP threads

MPI task timing breakdown:
Section |  min time  |  avg time  |  max time  |%varavg| %total
---------------------------------------------------------------
Pair    | 1437       | 1756.9     | 1991.2     | 376.1 | 84.85
Bond    | 0.00049877 | 0.0016545  | 0.0051293  |   2.7 |  0.00
Neigh   | 0.031159   | 0.039308   | 0.051098   |   2.6 |  0.00
Comm    | 77.074     | 293.05     | 623.09     | 880.4 | 14.15
Output  | 0.26733    | 0.27412    | 0.37292    |   4.9 |  0.01
Modify  | 1.9808     | 20.31      | 66.558     | 596.8 |  0.98
Other   |            | 0.02261    |            |       |  0.00

Nlocal:        27.0000 ave          30 max          22 min
Histogram: 2 0 2 0 0 1 3 2 3 3
Nghost:        346.062 ave         370 max         324 min
Histogram: 3 1 0 2 1 2 3 2 1 1
Neighs:         0.00000 ave           0 max           0 min
Histogram: 16 0 0 0 0 0 0 0 0 0
FullNghs:      1038.88 ave        1250 max         755 min
Histogram: 1 1 1 2 2 1 3 1 0 4

Total # of neighbors = 16622
Ave neighs/atom = 38.476852
Ave special neighs/atom = 0.0000000
Neighbor list builds = 500
Dangerous builds = 500
unfix   1

fix     2 all npt temp 2000 2000 $(100.0*dt) z 1.01325 1.01325 $(1000.0*dt) couple none
fix     2 all npt temp 2000 2000 0.10000000000000000555 z 1.01325 1.01325 $(1000.0*dt) couple none
fix     2 all npt temp 2000 2000 0.10000000000000000555 z 1.01325 1.01325 1 couple none
run     2000
Per MPI rank memory allocation (min/avg/max) = 8.895 | 8.899 | 8.902 Mbytes
Step Temp PotEng TotEng Press Volume c_msd[4] 
    5000    1906.0788   -3218.5063   -3112.3165    869.93641    11081.294    35.155329 
    5010    1950.7586   -3220.9483   -3112.2693    499.29047     11081.51    35.259577 
    5020    2004.2093   -3223.8198   -3112.1631     62.74625    11082.098    35.373364 
    5030     1984.225   -3222.5898   -3112.0464    1208.3025    11082.915    35.514105 
    5040    1975.0008   -3221.9529   -3111.9234    2940.4604    11084.044      35.6724 
    5050     1944.777   -3220.0964   -3111.7506    3923.9866    11085.604    35.838822 
    5060    1948.6559   -3220.0737   -3111.5119    4173.9358    11087.379    35.995377 
    5070    2000.7877   -3222.6763   -3111.2101    3777.8647    11089.221    36.137762 
    5080    2005.8241   -3222.6213   -3110.8746    2830.8209    11091.304    36.270288 
    5090    1997.7433   -3221.8069   -3110.5103    1325.2915    11093.693    36.384772 
    5100    1996.7865   -3221.3624   -3110.1192    473.17514    11096.282    36.508919 
    5110     1916.519   -3216.4274   -3109.6559    513.29443    11099.044    36.695296 
    5120    1948.2639   -3217.6315   -3109.0916   -140.83198    11102.114    36.951515 
    5130    1958.0159   -3217.4355   -3108.3522   -65.442335    11105.439    37.231998 
    5140    1990.8147   -3218.3628   -3107.4523   -590.00918    11108.926    37.477481 
    5150    2079.4721   -3222.2486   -3106.3989   -2261.2368    11112.347    37.687931 
    5160    2071.9505   -3220.6981   -3105.2674   -3036.3056    11115.519    37.914189 
    5170    2100.4245   -3221.1505   -3104.1335   -2906.3869    11118.351    38.173945 
    5180    2052.5064   -3217.3489   -3103.0014   -1569.1132    11120.827    38.443041 
    5190    2077.0822     -3217.62   -3101.9035   -982.67237    11123.064    38.675621 
    5200    2145.9107   -3220.3803   -3100.8292   -1106.9168    11125.056    38.881262 
    5210    2129.5801   -3218.5015   -3099.8603   -1022.2587    11126.651    39.054407 
    5220    2076.5322    -3214.715    -3099.029   -658.95222    11127.792     39.19697 
    5230    2137.7432   -3217.4005   -3098.3044    -698.3512    11128.649    39.352532 
    5240    2172.3341   -3218.7405   -3097.7173   -571.81211     11129.36    39.576031 
    5250    2153.6655   -3217.3043   -3097.3212   -1158.1678    11129.891    39.856652 
    5260    2097.3725   -3213.9445   -3097.0975   -2052.8747    11130.144    40.143027 
    5270    2125.5964   -3215.4255   -3097.0061   -3246.2809    11130.036    40.381136 
    5280    2157.1543   -3217.2395   -3097.0621   -2990.7087    11129.551    40.559573 
    5290    2082.0951   -3213.2812   -3097.2854   -238.83577     11128.87    40.709639 
    5300    2066.7365   -3212.7907   -3097.6505     1204.467      11128.3    40.866009 
    5310    1991.5604   -3209.0546   -3098.1025    3236.4413     11128.12    41.024107 
    5320    2004.4444   -3210.2929   -3098.6231    3287.9029    11128.518    41.191833 
    5330    2054.1012   -3213.6882   -3099.2519    1792.0107    11129.422    41.397188 
    5340    1997.7335   -3211.3245   -3100.0285    1464.1439    11130.673    41.630081 
    5350    1996.3583   -3212.1678   -3100.9484    1302.9642    11132.311    41.842826 
    5360    2076.4976   -3217.7732   -3102.0892   -582.06235    11134.413    41.973504 
    5370    2002.4022   -3215.0425   -3103.4864   -534.97225    11136.815    42.061198 
    5380    1956.4482   -3214.0294   -3105.0335   -1090.4204    11139.436    42.185534 
    5390    2008.2137   -3218.5531   -3106.6732   -2864.7055    11142.004    42.389952 
    5400    2053.5665   -3222.8276   -3108.4211   -3957.8255    11144.238    42.650975 
    5410     1965.929   -3219.6152   -3110.0911   -3766.9149    11146.143    42.903877 
    5420    1975.5268   -3221.6141   -3111.5553   -4143.5139    11147.748    43.116143 
    5430    1912.1329   -3219.2587   -3112.7316   -3780.6015    11149.097    43.287334 
    5440    1863.6853   -3217.4267   -3113.5987   -3161.9633    11150.155     43.38208 
    5450    1863.2412    -3217.965   -3114.1618   -2407.1192    11150.708    43.409054 
    5460      1850.54   -3217.5835   -3114.4878   -1836.4679    11150.601    43.426697 
    5470    1856.6926   -3218.0605   -3114.6221   -1851.9298    11149.854    43.442514 
    5480    1860.2032   -3218.2302   -3114.5962   -1687.0653    11148.623    43.454342 
    5490    1854.3016   -3217.7492    -3114.444   -888.57125    11147.063    43.485376 
    5500    1865.8092   -3218.1101   -3114.1638   -1148.9515    11145.222    43.566798 
    5510     1940.085   -3221.8651   -3113.7807   -3355.5186    11143.084    43.670678 
    5520    1918.1365   -3220.1941   -3113.3325   -3778.1914    11140.499    43.757896 
    5530    1873.0524   -3217.1982   -3112.8483   -3285.8079    11137.392    43.818614 
    5540    1893.9859   -3217.7962   -3112.2802   -3246.8211    11133.774    43.904222 
    5550    1885.1739   -3216.6393   -3111.6141   -2277.1543    11129.675    44.034411 
    5560    1925.4245   -3218.1382   -3110.8706   -1668.3126    11125.183     44.17684 
    5570    1956.9663   -3219.0951   -3110.0703   -2046.5504    11120.362    44.339837 
    5580     1927.525    -3216.629   -3109.2444    -1306.244    11115.256    44.515667 
    5590    2056.0622   -3222.9692   -3108.4237   -1582.4614    11109.967    44.638352 
    5600    2099.6331   -3224.6143   -3107.6414   -714.65919      11104.5    44.741135 
    5610    2097.5474   -3223.8711   -3107.0143    534.10605     11098.89    44.861195 
    5620     2111.683    -3224.185   -3106.5408    607.81155    11093.226    44.946878 
    5630    2056.6795   -3220.7808   -3106.2009      379.834    11087.601    45.010225 
    5640    2016.6952   -3218.3021   -3105.9498    32.896278    11082.145    45.090181 
    5650     1957.017    -3214.747   -3105.7194   -462.77873    11076.849    45.202373 
    5660     2020.902   -3218.0754   -3105.4886   -1094.9554    11071.612    45.355894 
    5670    2035.0206   -3218.6335   -3105.2602   -480.41856    11066.296     45.50733 
    5680     2040.537    -3218.744   -3105.0634    489.00418    11060.918    45.609704 
    5690    2077.6738   -3220.6565   -3104.9069    354.70395    11055.722    45.653701 
    5700    2079.0924   -3220.6479   -3104.8193    342.70544     11050.75    45.704323 
    5710     1992.892   -3215.8574   -3104.8311    785.01778    11046.068    45.824805 
    5720     1952.771   -3213.6369   -3104.8458    274.88489    11041.802    45.967652 
    5730    1980.2314   -3215.1326   -3104.8117    35.121965    11037.791    46.067394 
    5740    2052.1195   -3219.1004   -3104.7746    130.63139    11033.796    46.139474 
    5750     2044.827    -3218.683   -3104.7634    895.65896    11029.791    46.246601 
    5760    2064.0271   -3219.8114   -3104.8221    1824.1189     11025.93    46.342744 
    5770     2098.664   -3221.8895   -3104.9705    1803.9713    11022.259    46.358237 
    5780     2099.287   -3222.2217   -3105.2681    2105.6334    11018.804    46.348872 
    5790    2061.0741   -3220.5255   -3105.7008    2499.4412    11015.668    46.418331 
    5800    2065.4688   -3221.3666    -3106.297    2529.0574    11012.768    46.563127 
    5810    2048.4203   -3221.1797   -3107.0599    1884.4904    11009.949    46.702365 
    5820    2024.8636    -3220.812   -3108.0046     483.4098    11007.215    46.777767 
    5830    1986.7298   -3219.7812   -3109.0983   -48.627111    11004.644     46.79094 
    5840    1951.4479   -3219.0171   -3110.2997    748.82077    11002.246    46.770267 
    5850    1975.2232   -3221.6239    -3111.582    746.70767    11000.045    46.765461 
    5860    1951.6545    -3221.635   -3112.9061      1193.37    10998.133    46.803638 
    5870    1889.8844   -3219.4574   -3114.1698    2088.2222    10996.562    46.895973 
    5880    1906.3737   -3221.5138   -3115.3076    1544.5279    10995.377    46.992198 
    5890    1883.4839   -3221.2189   -3116.2879     581.1989    10994.488    47.069299 
    5900    1877.8811   -3221.7226   -3117.1037     -667.029    10993.654    47.147845 
    5910    1812.4459   -3218.6768   -3117.7034   -406.75866    10992.757    47.274269 
    5920    1813.6101   -3219.1234   -3118.0851   -484.96069    10991.918    47.457684 
    5930    1843.2685   -3220.9434   -3118.2528   -1483.2223     10991.05    47.655281 
    5940    1883.8411   -3223.2248   -3118.2739   -2631.0363    10989.901    47.835043 
    5950    1864.0829    -3222.007   -3118.1568   -1679.5966    10988.429    47.988566 
    5960    1875.9735    -3222.431   -3117.9184   -681.19189    10986.773    48.126826 
    5970    1892.4775   -3222.9831   -3117.5511   -558.15786     10985.11    48.274683 
    5980    1902.8609   -3223.1061   -3117.0956    114.09608    10983.396    48.411409 
    5990    1901.9027   -3222.5219   -3116.5648    1115.5096    10981.523    48.567621 
    6000    1928.2524   -3223.3942   -3115.9691    1596.8071    10979.662    48.781563 
    6010    1904.0549   -3221.3902   -3115.3132    2214.1276    10977.982    49.014812 
    6020    1940.5428   -3222.7224   -3114.6126    2440.2555    10976.501    49.213729 
    6030    2036.9794    -3227.389   -3113.9066    3020.2783    10975.214    49.343277 
    6040    2056.8553   -3227.8567    -3113.267    3840.2716    10974.218    49.393292 
    6050    2080.9599   -3228.6848   -3112.7522     2912.853    10973.643    49.387026 
    6060    2024.9753   -3225.1859   -3112.3722    2777.4472    10973.367    49.365975 
    6070    1986.1661   -3222.7363   -3112.0848    1359.8094    10973.327    49.394368 
    6080    1964.8295   -3221.2813   -3111.8185   -373.21207    10973.527    49.517182 
    6090    1991.1291   -3222.4836   -3111.5556   -465.17591    10973.908    49.702356 
    6100    2025.6661   -3224.1595   -3111.3073    1405.7562    10974.456    49.881466 
    6110    2000.4928   -3222.5639   -3111.1142    2858.8653    10975.282    50.029377 
    6120    2056.1426   -3225.5232   -3110.9732    2108.7195    10976.625    50.167705 
    6130    2056.3823   -3225.4539   -3110.8906    1715.0072     10978.49    50.290477 
    6140    2011.6424   -3222.9446   -3110.8737    2331.3932    10980.796     50.34682 
    6150    1998.4518   -3222.2204   -3110.8844    2498.5987    10983.481    50.361046 
    6160    2009.6981   -3222.8386   -3110.8761    2529.5886    10986.372     50.42253 
    6170    2040.4132   -3224.5758    -3110.902     1621.391    10989.335    50.558678 
    6180    1968.1526   -3220.5743   -3110.9263    2047.7472    10992.293    50.738677 
    6190    1993.9098   -3222.0319   -3110.9489    2504.3319    10995.182    50.957065 
    6200    1959.6779   -3220.1218    -3110.946    2261.4334     10997.91    51.211888 
    6210    1927.7461   -3218.2839    -3110.887    845.33848    11000.425     51.49473 
    6220    2001.8321   -3222.3202   -3110.7959   -1605.1254    11002.659    51.729974 
    6230    1951.9878    -3219.423   -3110.6756   -2069.9107    11004.392    51.932222 
    6240    1883.6708    -3215.456   -3110.5146   -795.36459    11005.582     52.18237 
    6250    1957.9618   -3219.3661   -3110.2858    -319.8459    11006.263    52.441462 
    6260    1986.8531   -3220.6634   -3109.9736    1691.7744    11006.471    52.630393 
    6270    2045.0033   -3223.5906   -3109.6611    2870.9439    11006.506    52.721217 
    6280    2118.0881   -3227.4189   -3109.4179     3421.505    11006.607    52.738307 
    6290    2130.1858   -3227.9814   -3109.3063     3980.332    11006.971    52.728868 
    6300    2077.4396   -3225.0673   -3109.3308    4014.8324    11007.763    52.764544 
    6310    2105.1078   -3226.7623   -3109.4844     3646.616    11008.971    52.850626 
    6320    2051.8826   -3224.0388   -3109.7261    5097.7632     11010.53    52.954544 
    6330    2007.3214   -3221.8657   -3110.0356    4890.5034    11012.508     53.06446 
    6340    1960.6451    -3219.591   -3110.3612    4021.3111    11014.994    53.163825 
    6350    1950.9462    -3219.333   -3110.6436    3179.7264    11017.953    53.238141 
    6360    1951.5976   -3219.5834   -3110.8577    2959.7368    11021.179    53.365389 
    6370    2009.5138   -3223.0164   -3111.0641     1983.437    11024.703    53.607428 
    6380    1993.3191   -3222.3278   -3111.2777    1103.5419    11028.597    53.943458 
    6390    1949.8873   -3220.1332   -3111.5028   -173.75514    11032.716    54.304562 
    6400    1930.7731   -3219.2295    -3111.664   -307.51954    11036.814     54.58304 
    6410    1989.9931   -3222.6688   -3111.8041    -152.0873    11040.673    54.748911 
    6420    1898.6111   -3217.6964   -3111.9226    1043.1734    11044.295    54.878619 
    6430    1862.9876   -3215.7462    -3111.957    670.27037    11047.863    55.009473 
    6440     1979.216   -3222.1383    -3111.874   -1684.9282    11051.429    55.155527 
    6450    2003.1494   -3223.2948   -3111.6971   -3107.5072    11054.854    55.301447 
    6460    1977.1042   -3221.6152   -3111.4685   -3407.7978    11058.017    55.393795 
    6470    2021.7748   -3223.8124    -3111.177   -3900.8981    11060.996    55.431715 
    6480    1970.1048    -3220.573   -3110.8163   -3287.3492     11063.89    55.471625 
    6490    1885.9347   -3215.4144   -3110.3469   -1624.3397     11066.78    55.542618 
    6500    1945.9564    -3218.101   -3109.6895   -1078.4613    11069.653    55.694632 
    6510    2008.8847   -3220.7663    -3108.849   -1195.1007    11072.358    55.894668 
    6520    1998.5212   -3219.2433   -3107.9034   -446.01974    11074.938    56.073953 
    6530    1957.0839   -3215.9297   -3106.8984    370.61946      11077.6    56.199946 
    6540    2014.4761   -3218.0713   -3105.8426    49.090696    11080.545    56.303222 
    6550    2048.8344   -3218.8815   -3104.7387    597.50107    11083.893    56.449259 
    6560    2048.4035   -3217.8095   -3103.6907    1045.7209    11087.549    56.670444 
    6570    2084.9239   -3218.8606   -3102.7071    203.43466    11091.391    56.967355 
    6580    2048.6044   -3215.9655   -3101.8354    273.68365    11095.339    57.286322 
    6590    2084.4318   -3217.1946   -3101.0686    1329.2365    11099.338     57.54187 
    6600    2107.0221   -3217.7804   -3100.3958    1717.0821    11103.467     57.70552 
    6610     2047.048   -3213.9011   -3099.8577    907.53149    11107.643    57.795517 
    6620    2030.1856   -3212.4971   -3099.3932    -770.6191    11111.534    57.872597 
    6630    2033.5441   -3212.2702   -3098.9792   -424.23982    11114.951    57.970887 
    6640    2060.3185   -3213.3999   -3098.6173    834.76078    11118.055    58.102281 
    6650    2080.5587   -3214.2307   -3098.3205    2174.1451    11121.126    58.282031 
    6660    2040.7031   -3211.7948   -3098.1049    3397.4614      11124.4    58.444149 
    6670    2057.2688    -3212.567   -3097.9543    4105.4912    11128.077    58.546268 
    6680    2113.5446   -3215.6197   -3097.8718    3735.1198    11132.121    58.607424 
    6690    2071.1284   -3213.2704   -3097.8855    3473.3055    11136.279    58.636017 
    6700    2095.1784   -3214.7285   -3098.0037    2783.5556    11140.527    58.651317 
    6710    2178.3473   -3219.6278   -3098.2696    2163.7651    11145.089    58.695451 
    6720    2129.8927   -3217.4085   -3098.7498    2625.5434    11150.111    58.757534 
    6730    2145.5605   -3218.9745    -3099.443    2333.9677    11155.777    58.794006 
    6740    2115.5323   -3218.1655   -3100.3068    2345.9992    11162.095    58.864865 
    6750    2101.3581   -3218.4113   -3101.3422    655.16189    11168.863    58.989107 
    6760    2077.5556   -3218.2474   -3102.5044   -694.65808    11175.864    59.137388 
    6770    1999.1924   -3215.0956   -3103.7184   -775.87037    11183.069    59.300093 
    6780    1972.0547   -3214.7493   -3104.8839   -1118.3557    11190.493    59.489034 
    6790    1948.8826   -3214.5062   -3105.9318   -1077.3197    11197.913    59.695913 
    6800    1945.6751   -3215.2443   -3106.8485   -133.42734    11205.145     59.87216 
    6810    1962.8746   -3216.9944   -3107.6404     -175.409    11212.234    59.986173 
    6820     1994.379   -3219.4509   -3108.3418   -2211.0161    11219.198    60.083099 
    6830     1954.732   -3217.8407   -3108.9404   -3183.8025    11225.941    60.244882 
    6840    1981.9958   -3219.8727   -3109.4535     -4322.98    11232.416    60.521866 
    6850     1954.863   -3218.7866    -3109.879   -4922.4362    11238.532    60.855695 
    6860    1931.0941   -3217.7898   -3110.2064   -4214.3551    11244.136    61.141521 
    6870     1984.901   -3221.0363   -3110.4552   -3669.0147    11249.129    61.306495 
    6880    1965.5171   -3220.1481   -3110.6469   -2859.8243    11253.622    61.366153 
    6890    1947.1922   -3219.3016   -3110.8213    -2622.783    11257.803    61.372862 
    6900    1895.1243   -3216.4884   -3110.9089   -2976.7011    11261.874    61.407775 
    6910     1872.676   -3215.2161   -3110.8872   -3010.0856    11265.984    61.510818 
    6920    1942.9117   -3219.0039   -3110.7621   -2933.9286    11270.172    61.694416 
    6930    1907.3503   -3216.8129   -3110.5523   -1647.2836    11274.332    61.971858 
    6940    1916.7016   -3217.0494   -3110.2678     -1734.81    11278.447    62.322201 
    6950    1987.6313   -3220.6392   -3109.9061    -3328.043    11282.419    62.703995 
    6960    1957.9221   -3218.5914   -3109.5133   -3548.1914    11286.035    63.050431 
    6970    1959.2198   -3218.2475   -3109.0972   -4279.6431    11289.229    63.272567 
    6980    1999.5129   -3220.0351     -3108.64   -5769.1795    11291.819    63.355665 
    6990    2059.0534   -3222.9145   -3108.2023    -5676.258    11293.599    63.401901 
    7000    2010.4169   -3219.8103   -3107.8077   -5527.0988    11294.685    63.514748 
Loop time of 799.346 on 16 procs for 2000 steps with 432 atoms

Performance: 0.216 ns/day, 111.020 hours/ns, 2.502 timesteps/s
96.1% CPU use with 16 MPI tasks x 1 OpenMP threads

MPI task timing breakdown:
Section |  min time  |  avg time  |  max time  |%varavg| %total
---------------------------------------------------------------
Pair    | 615.22     | 716.9      | 783.03     | 164.7 | 89.69
Bond    | 0.00021577 | 0.0007759  | 0.002008   |   0.0 |  0.00
Neigh   | 0.012642   | 0.01419    | 0.016208   |   0.9 |  0.00
Comm    | 15.153     | 79.937     | 180.8      | 484.7 | 10.00
Output  | 0.45095    | 0.45359    | 0.49252    |   1.5 |  0.06
Modify  | 0.26551    | 2.0297     | 4.3169     | 115.2 |  0.25
Other   |            | 0.008947   |            |       |  0.00

Nlocal:        27.0000 ave          33 max          22 min
Histogram: 1 4 1 3 0 2 1 0 3 1
Nghost:        353.438 ave         384 max         329 min
Histogram: 2 3 1 3 0 1 2 1 2 1
Neighs:         0.00000 ave           0 max           0 min
Histogram: 16 0 0 0 0 0 0 0 0 0
FullNghs:      1017.38 ave        1309 max         759 min
Histogram: 1 3 1 2 2 2 0 2 1 2

Total # of neighbors = 16278
Ave neighs/atom = 37.680556
Ave special neighs/atom = 0.0000000
Neighbor list builds = 200
Dangerous builds = 200
unfix   2

fix     3 all npt temp 2000 300 $(100.0*dt) z 1.01325 1.01325 $(1000.0*dt) couple none
fix     3 all npt temp 2000 300 0.10000000000000000555 z 1.01325 1.01325 $(1000.0*dt) couple none
fix     3 all npt temp 2000 300 0.10000000000000000555 z 1.01325 1.01325 1 couple none
run     10000
Per MPI rank memory allocation (min/avg/max) = 8.895 | 8.899 | 8.902 Mbytes
Step Temp PotEng TotEng Press Volume c_msd[4] 
    7000    2010.4169   -3219.8103   -3107.8077   -5527.0988    11294.685    63.514748 
    7010    2001.5672   -3219.3186    -3107.809   -5803.7551    11294.371    63.642449 
    7020    2048.0164   -3221.9227   -3107.8254    -6227.865    11293.383    63.755639 
    7030    1996.6748   -3219.1156   -3107.8786   -6063.4945    11291.672     63.90236 
    7040    1948.3239   -3216.5034   -3107.9601    -5317.865    11289.205    64.071463 
    7050    1921.0896   -3215.0024   -3107.9763   -4254.0441    11285.968    64.187561 
    7060    2017.0476   -3220.3164   -3107.9444   -3960.0788    11282.123    64.195044 
    7070    1994.4551   -3219.0057   -3107.8924   -4255.2241    11277.885    64.120601 
    7080    1989.5584   -3218.7062   -3107.8657   -5419.1322    11273.359    64.044273 
    7090    2040.2739   -3221.5213   -3107.8554   -5694.0029    11268.588    64.042387 
    7100    2005.1171   -3219.5811   -3107.8738   -4683.8675    11263.573    64.101003 
    7110    1997.7571   -3219.2435   -3107.9462   -3831.9955    11258.209    64.154016 
    7120     1994.982   -3219.1745   -3108.0318   -3714.1188    11252.547    64.179604 
    7130    2048.9003   -3222.3236   -3108.1771    -4761.498    11246.625    64.185962 
    7140    1994.2949   -3219.4963   -3108.3919   -4470.3512    11240.386     64.21354 
    7150    2040.6035   -3222.3982   -3108.7139   -4373.3628    11233.907    64.287256 
    7160    2027.3694    -3222.103    -3109.156   -2704.2153    11227.175    64.404585 
    7170    2028.6347   -3222.7786   -3109.7611   -1912.2952    11220.253    64.578301 
    7180     2050.127    -3224.783   -3110.5681   -2411.5166    11213.083    64.798501 
    7190    1997.7386   -3222.8979   -3111.6016   -3112.4364      11205.5    65.042765 
    7200    1921.8543   -3219.8158   -3112.7472   -3175.6206    11197.217    65.245724 
    7210    1983.5036   -3224.4923   -3113.9891   -3975.5261    11188.125     65.31574 
    7220    1976.9173   -3225.4542   -3115.3179   -4193.6222     11178.29    65.245788 
    7230    1871.8524   -3220.8881   -3116.6051   -3564.0312    11167.931    65.171591 
    7240    1844.4698   -3220.4862   -3117.7287   -3699.1204    11157.291    65.192333 
    7250      1907.43   -3224.9911    -3118.726   -4053.4137    11146.389     65.26784 
    7260    1879.2154   -3224.3008   -3119.6076   -3229.8004    11135.209    65.337941 
    7270    1829.2953   -3222.2249   -3120.3128    -2674.753    11123.814    65.362119 
    7280    1927.3606   -3228.2893   -3120.9139   -3725.0777    11112.233    65.363564 
    7290    1846.9609   -3224.2907   -3121.3945    -3860.281    11100.373    65.358941 
    7300    1852.9946   -3225.0115   -3121.7791    -5512.855    11088.227    65.354442 
    7310    1857.9335   -3225.5476     -3122.04   -5559.2577    11075.708    65.366167 
    7320    1844.7203   -3224.9485    -3122.177   -3786.6446    11062.912    65.384148 
    7330      1865.49   -3226.1276   -3122.1991   -2449.5096    11050.105    65.361727 
    7340    1889.3781    -3227.387   -3122.1276   -1528.4985    11037.433       65.297 
    7350    1882.4973   -3226.8581    -3121.982   -1805.8359    11025.064    65.262327 
    7360     1871.846   -3226.0735   -3121.7909   -2381.1488     11012.97    65.322538 
    7370    1853.1879   -3224.7674   -3121.5242   -1758.4904    11001.017    65.446796 
    7380    1890.3219   -3226.4927   -3121.1807   -1171.7859     10989.19     65.57335 
    7390    1898.6852   -3226.5443   -3120.7664   -287.45594    10977.471    65.692185 
    7400    1887.3697   -3225.4383   -3120.2908     1027.752     10965.89     65.79185 
    7410    1928.4747   -3227.1905   -3119.7531    1674.3595     10954.46    65.901718 
    7420    1973.0014   -3229.0867   -3119.1686    1949.8958    10943.257    66.094525 
    7430    1916.6585   -3225.3693   -3118.5901    2044.8861    10932.435    66.353023 
    7440    1821.7551   -3219.4908   -3117.9988    1766.8595    10922.068    66.588304 
    7450    1765.7698   -3215.6613   -3117.2883    2059.8475    10912.092    66.759507 
    7460    1872.8083   -3220.7428   -3116.4065     1188.966    10902.409    66.843007 
    7470    1923.7505   -3222.5234   -3115.3491    1605.7852    10892.929    66.872681 
    7480    1925.2067   -3221.5154     -3114.26    1962.8775     10883.72    66.888843 
    7490    1932.5846   -3220.8322   -3113.1657    1323.1721    10874.939    66.881245 
    7500    1943.8672   -3220.3949   -3112.0998   -172.14233    10866.523    66.848347 
    7510    1946.9359   -3219.5649   -3111.0989   -833.58425    10858.329    66.820801 
    7520    1948.0154   -3218.7476   -3110.2215    130.81536    10850.267    66.843833 
    7530    1878.9042   -3214.1104   -3109.4345    3287.9143    10842.457    66.897076 
    7540    1886.0459   -3213.7907   -3108.7169    4600.9946      10835.1    66.959829 
    7550     1998.686   -3219.4318   -3108.0828    2566.4299    10828.055    67.000262 
    7560    2044.2656   -3221.4882   -3107.5999     2611.076    10821.066    66.979232 
    7570    2045.5348   -3221.2923   -3107.3333    3362.2751    10814.165    66.935081 
    7580     2035.635    -3220.671   -3107.2635    3949.4768     10807.52    66.918842 
    7590     2021.599   -3219.9528   -3107.3272    4773.1212    10801.318     66.99884 
    7600    2107.3411   -3224.9427   -3107.5404    4708.6212    10795.669    67.174974 
    7610    2125.2798   -3226.3419   -3107.9401     5813.083    10790.467    67.391633 
    7620    2117.2066   -3226.4935   -3108.5416    6215.6082    10785.577    67.563954 
    7630    2094.5569   -3225.9753   -3109.2852    5865.2281    10780.939    67.638698 
    7640    2049.5124   -3224.2911   -3110.1105    6812.3319      10776.6    67.638412 
    7650    2005.5908   -3222.7041   -3110.9704    7638.3096    10772.779    67.609694 
    7660    1925.1288   -3219.0171    -3111.766     7273.087    10769.626    67.623363 
    7670    1983.8612   -3223.0454   -3112.5223    5102.0704    10767.166    67.752158 
    7680    1998.3791   -3224.6042   -3113.2722     3075.595    10765.187    67.986734 
    7690    1989.5415   -3224.9082   -3114.0686    2913.0208    10763.434    68.268319 
    7700    1910.7223   -3221.2731   -3114.8246    4866.0006    10761.905    68.509176 
    7710    1961.8224     -3224.88   -3115.5847    5001.1217    10760.748    68.662349 
    7720    1914.2508   -3222.9591    -3116.314    5543.1829    10759.991    68.775398 
    7730    1938.6482    -3225.029   -3117.0247    5972.7581    10759.739    68.877974 
    7740    1997.2442   -3229.0339   -3117.7652    4890.4026     10760.11    68.944244 
    7750     2010.391   -3230.6184   -3118.6172    3894.9246    10761.087    68.984447 
    7760     1973.006    -3229.447   -3119.5286    3486.6196    10762.589    69.084944 
    7770    1961.7334    -3229.786   -3120.4956     2817.214    10764.459    69.304922 
    7780    1893.0358   -3226.9137   -3121.4506    3156.7566    10766.562    69.635385 
    7790    1907.0597   -3228.5823   -3122.3379    2303.7005    10768.932     69.99762 
    7800    1988.8748   -3234.0531   -3123.2507     1766.012    10771.576    70.316637 
    7810    1956.6656   -3233.2132   -3124.2051    3870.6337     10774.38    70.574635 
    7820    1976.4593   -3235.3161   -3125.2053    4673.8576    10777.442    70.767119 
    7830    1949.9502   -3234.8613   -3126.2274    4545.0366    10780.862    70.977804 
    7840    1895.2011   -3232.8098    -3127.226    3943.8435    10784.658    71.234693 
    7850    1809.0369    -3228.893   -3128.1096    3225.4686    10788.727    71.498865 
    7860     1858.268   -3232.3947   -3128.8685     1998.988    10792.949    71.773033 
    7870    1911.6606    -3236.097   -3129.5962      1503.87     10797.26    72.060807 
    7880    1829.4501   -3232.2027    -3130.282    2587.2754    10801.623    72.327318 
    7890    1817.5214   -3232.1458   -3130.8897    3381.1094    10806.059    72.555942 
    7900    1849.8633   -3234.4795   -3131.4215    5088.2078    10810.537    72.782463 
    7910    1871.5128   -3236.1903   -3131.9262    5460.4112    10815.122    73.015065 
    7920    1849.3335    -3235.469   -3132.4405    4948.1997     10819.91     73.27025 
    7930    1789.4696   -3232.6014   -3132.9081    3321.8617    10824.844    73.544051 
    7940    1769.1761   -3231.8507   -3133.2879    634.93672      10829.8    73.796167 
    7950    1755.7075   -3231.3881   -3133.5757   -774.55644    10834.697    74.028433 
    7960    1761.5039   -3231.9053   -3133.7699   -580.19744    10839.409    74.273873 
    7970    1780.3345    -3233.063   -3133.8785    803.09908    10843.837     74.51441 
    7980    1780.8976    -3233.141   -3133.9252    1739.3607    10847.898    74.724835 
    7990    1829.3595   -3235.8344   -3133.9187    1771.7463    10851.542    74.867974 
    8000     1859.402   -3237.5059   -3133.9165    540.26092    10854.856    74.994273 
    8010    1866.3007   -3237.9272   -3133.9535   -121.54617    10858.094     75.16006 
    8020    1867.3564   -3238.0696   -3134.0371   -556.94718    10861.399    75.311973 
    8030    1858.0196   -3237.6801   -3134.1678   -735.12241    10864.738    75.432247 
    8040    1819.2768   -3235.6855   -3134.3315    -1207.378    10868.085    75.526276 
    8050     1756.553   -3232.3567   -3134.4972   -1650.0269    10871.351    75.603797 
    8060    1763.1742   -3232.8321   -3134.6037   -2000.1118    10874.423    75.743309 
    8070    1788.5658   -3234.3102   -3134.6672   -1828.2755    10877.221     75.90706 
    8080    1765.3461   -3233.0358   -3134.6863   -1226.8998    10879.789    76.065151 
    8090    1768.7872   -3233.1863   -3134.6452   -1316.8026    10882.109    76.245906 
    8100     1792.763   -3234.4411   -3134.5642   -888.46737    10884.076     76.48577 
    8110    1778.6385   -3233.5251   -3134.4351   -402.65919    10885.855    76.766231 
    8120    1802.8845   -3234.7045   -3134.2638    13.356997    10887.559    77.016645 
    8130    1792.2983   -3233.8931   -3134.0421    1018.1913     10889.05    77.191173 
    8140    1808.8948   -3234.5539   -3133.7783    631.05755    10890.317    77.302598 
    8150    1842.5096   -3236.1191   -3133.4708   -458.76484    10891.397    77.379433 
    8160    1812.0519   -3234.0913   -3133.1398   -608.88201    10892.151    77.436348 
    8170    1760.0748   -3230.8408    -3132.785    101.81701    10892.465    77.464186 
    8180    1751.7524   -3229.9228   -3132.3307    1604.2067    10892.519    77.482957 
    8190    1843.6073    -3234.469   -3131.7595    1600.7018    10892.599    77.531325 
    8200    1843.0812   -3233.8038   -3131.1237    1987.1866    10892.816    77.632288 
    8210    1805.3256   -3231.0547    -3130.478    3129.7299    10893.241    77.767559 
    8220    1873.2164   -3234.1621   -3129.8031    2929.3593    10894.019    77.909305 
    8230     1842.494   -3231.7674   -3129.1199    4095.5247    10895.291     78.02375 
    8240    1777.7555   -3227.5119   -3128.4712    4911.6815    10897.129    78.085291 
    8250    1778.4877   -3226.8714   -3127.7899    3862.0681    10899.411    78.104633 
    8260    1799.7212   -3227.3104   -3127.0459    2276.0697    10901.921    78.096074 
    8270    1803.4583   -3226.7433   -3126.2706    1332.3811    10904.411    78.088201 
    8280    1837.9897   -3227.8884   -3125.4919   -428.25021    10906.674    78.086164 
    8290    1861.5554   -3228.4553   -3124.7459   -1294.4533    10908.637    78.133528 
    8300    1855.9147   -3227.4834   -3124.0883   -657.16128    10910.288    78.233481 
    8310    1840.4578   -3226.0479   -3123.5139   -393.77498    10911.716    78.348717 
    8320    1881.2476   -3227.8252   -3123.0188   -634.32063    10912.973    78.456782 
    8330    1881.4137   -3227.4409   -3122.6253    275.57346    10914.065    78.516923 
    8340    1867.5144   -3226.3846   -3122.3433    889.30491    10914.979    78.497341 
    8350    1886.3951   -3227.2815   -3122.1883    554.54365    10915.648    78.476185 
    8360    1863.7334   -3225.9889   -3122.1582    60.729443    10916.063    78.521691 
    8370    1923.0342   -3229.3955   -3122.2611   -1009.3625     10916.16    78.616236 
    8380    1910.6002   -3228.9849   -3122.5432   -1509.1817    10915.676    78.709165 
    8390    1877.0679   -3227.5899   -3123.0163   -1632.9906    10914.573     78.76382 
    8400    1894.5004   -3229.2247   -3123.6799   -1435.8655     10913.11     78.79484 
    8410    1915.9864   -3231.3045   -3124.5628   -469.80514    10911.476     78.82023 
    8420    1933.9559   -3233.4606   -3125.7178     47.78725    10909.828     78.85901 
    8430     1803.321   -3227.5182   -3127.0532    2037.8648    10908.191    78.913267 
    8440    1772.1938   -3227.1112   -3128.3803    3009.6509    10906.745    79.022725 
[...]
   24900    313.01539   -3348.5457   -3331.1072    289.79148    9350.5526    105.97243 
   24910    299.06355   -3347.8054   -3331.1442    547.18548    9360.5377       106.01 
   24920    288.55967   -3347.2495   -3331.1735    259.80987    9370.7182    106.07769 
   24930    291.52645   -3347.4243    -3331.183   -952.71779    9380.4621    106.18175 
   24940     294.1071   -3347.5645   -3331.1795    -2346.951    9389.1225    106.31911 
   24950    287.36383   -3347.1771   -3331.1677   -3074.3052    9396.3835    106.47226 
   24960    293.02072   -3347.4723   -3331.1478   -3255.7848     9402.163    106.61664 
   24970    301.34176   -3347.9095   -3331.1214   -3082.7313    9406.3595    106.73903 
   24980    306.57368   -3348.1795      -3331.1   -2859.3648     9408.953    106.84975 
   24990    292.64535   -3347.3888   -3331.0852   -2825.4223    9410.1647     106.9726 
   25000    276.70522   -3346.4797   -3331.0641   -2774.7883     9410.099    107.09952 
   25010    284.67522   -3346.8848   -3331.0252   -2815.9662    9408.6816    107.18336 
   25020    285.00729   -3346.8433   -3330.9653   -2720.8671     9405.979    107.18899 
   25030    276.72719   -3346.3023   -3330.8855   -2510.2573    9402.3657    107.12767 
   25040    281.47787   -3346.4611   -3330.7796   -2387.3738    9398.2406    107.04239 
   25050    300.27821    -3347.375   -3330.6461   -2572.0142    9393.8302    106.96933 
   25060    318.99211   -3348.2736   -3330.5022   -2928.7036    9389.1825    106.92264 
   25070    316.15271   -3347.9868   -3330.3736   -2678.1408    9384.1119    106.89219 
   25080    305.01655   -3347.2612   -3330.2684   -2028.4689    9378.4265    106.85579 
   25090     312.4526   -3347.5838   -3330.1767   -1868.5947    9371.9506    106.79831 
   25100    317.44459   -3347.7831   -3330.0979   -1839.0302    9364.5764    106.71055 
   25110    304.37627    -3346.991   -3330.0338   -1216.1779    9356.4872    106.59604 
   25120    302.54327   -3346.8299   -3329.9749   -656.71971    9348.1467     106.4703 
   25130    309.44444   -3347.1538   -3329.9143   -248.50999    9340.0019     106.3523 
   25140    315.47417   -3347.4336   -3329.8582    69.362552    9332.4958    106.25974 
   25150    315.96278   -3347.4203   -3329.8177    57.556616    9326.0194    106.18661 
   25160    306.46719    -3346.869   -3329.7954    27.932207    9320.6295    106.11209 
   25170    302.64544   -3346.6441   -3329.7834    22.234274    9316.2732    106.02824 
   25180    306.72442   -3346.8656   -3329.7776   -61.033705    9312.8398    105.94074 
   25190    306.24056   -3346.8416   -3329.7806    22.422401    9309.9781    105.87407 
   25200    300.27711   -3346.5202   -3329.7915    75.839295    9307.3545    105.84364 
   25210    293.69924   -3346.1653    -3329.803    -55.12569    9304.8585    105.83504 
   25220    296.05582   -3346.3043   -3329.8107    -480.7071    9302.5144    105.82337 
   25230    298.76819   -3346.4592   -3329.8145   -784.72294    9300.1959    105.79035 
   25240    305.76505   -3346.8528   -3329.8183   -930.02396    9297.7481    105.73695 
   25250    315.82621   -3347.4258   -3329.8307   -766.23185    9295.1933    105.67956 
   25260    309.78258   -3347.1194    -3329.861    7.0525138    9292.8198    105.65033 
   25270    297.31127   -3346.4691   -3329.9055    670.32195    9291.0951     105.6726 
   25280    302.37189   -3346.8058   -3329.9604    462.89658    9290.3323    105.72365 
   25290    311.86095   -3347.4047   -3330.0306   -100.07022    9290.5604    105.75614 
   25300    317.99923     -3347.85   -3330.1339   -820.27538    9291.7343    105.74845 
   25310    300.73565   -3347.0242   -3330.2698   -1104.9677    9293.7282    105.71503 
   25320    289.93373    -3346.572   -3330.4195   -1162.7707    9296.4391    105.67945 
   25330    302.06036    -3347.408   -3330.5799   -1365.0095    9299.7718    105.65305 
   25340    306.62249   -3347.8413   -3330.7591   -1508.8046    9303.4882    105.63803 
   25350    294.58892   -3347.3601   -3330.9482   -1093.7852    9307.4545    105.64281 
   25360    290.74747   -3347.3288    -3331.131    -721.8978    9311.8086    105.66804 
   25370    301.61826   -3348.1099   -3331.3064   -902.89289    9316.5881    105.70092 
   25380    303.69289   -3348.3972   -3331.4782   -1392.3383    9321.6326     105.7328 
   25390    296.91274   -3348.1799   -3331.6385   -1630.2401    9326.6198    105.75557 
   25400     293.6945    -3348.143    -3331.781   -1676.6779    9331.2264     105.7711 
   25410    289.86651   -3348.0517    -3331.903   -1495.9698    9335.2563    105.78721 
   25420    285.36265    -3347.901   -3332.0032   -1146.7758    9338.8037    105.81177 
   25430    285.80418   -3348.0043   -3332.0818   -1218.5799     9342.284      105.854 
   25440    286.94837   -3348.1254   -3332.1392   -1771.8336    9345.8327     105.9117 
   25450    279.58508   -3347.7521   -3332.1761   -2088.3331    9349.1181    105.96759 
   25460    269.43876    -3347.198   -3332.1873   -2000.5119    9351.9088    106.00414 
   25470    278.21873   -3347.6722   -3332.1723   -1984.2985    9354.2011    106.01887 
   25480    279.80369   -3347.7213   -3332.1332   -1719.4418    9355.9108    106.01246 
   25490    273.12554   -3347.2912    -3332.075   -1450.9622     9357.014    105.99338 
   25500       271.62   -3347.1263    -3331.994   -1520.4791    9357.5692    105.99378 
   25510    278.49009   -3347.4023   -3331.8873   -1867.4121    9357.6129     106.0405 
   25520    289.50251   -3347.8884   -3331.7599   -2485.3121    9357.1688    106.12268 
   25530    292.60608   -3347.9244   -3331.6229   -2879.7702    9356.1303    106.19979 
   25540    290.59922   -3347.6773   -3331.4877   -2701.4593      9354.23    106.23369 
   25550    297.12401   -3347.9098   -3331.3566   -2500.9275    9351.1657    106.21826 
   25560    302.41326    -3348.084   -3331.2363   -2262.3422    9346.5851    106.16821 
   25570    295.79552    -3347.614   -3331.1349    -1860.758    9340.2142    106.10386 
   25580    288.52096   -3347.1236   -3331.0498    -1732.586    9331.9764    106.04354 
   25590    290.05067   -3347.1295   -3330.9704   -1526.3612    9321.9106    105.99775 
   25600    291.12359   -3347.1046   -3330.8858    -677.8786    9310.3992    105.96429 
   25610    296.74199   -3347.3221   -3330.7902    398.60992     9298.318    105.92708 
   25620    300.81302   -3347.4477   -3330.6891    1407.4971    9286.6626    105.86444 
   25630     299.9984   -3347.3069   -3330.5936     2374.035    9276.0963    105.76777 
   25640    302.45519   -3347.3567   -3330.5066    3370.9706    9267.0242     105.6466 
   25650    307.25043   -3347.5488   -3330.4315    4182.5058    9259.8095    105.52431 
   25660    306.94907   -3347.4734   -3330.3729    4671.5733    9254.6657    105.44127 
   25670    315.17081   -3347.8918   -3330.3333    4907.5854    9251.7502     105.4337 
   25680    328.58006   -3348.6272   -3330.3216    4925.4561    9251.2255    105.49192 
   25690     325.4118   -3348.4778   -3330.3488    5030.7408    9253.2127    105.57748 
   25700    318.93522   -3348.1805   -3330.4123    4720.4429     9257.825    105.66811 
   25710    320.04362   -3348.3311   -3330.5011     3836.318    9264.9128    105.76384 
   25720    320.52699   -3348.4663   -3330.6094    2891.9261    9274.0328    105.86534 
   25730    317.41891   -3348.4167   -3330.7329    2211.9597    9284.6868    105.97249 
   25740    305.89901   -3347.9087   -3330.8667    2125.8799    9296.5225    106.08483 
   25750     292.9367   -3347.3161   -3330.9962    2016.5704    9309.5315    106.20258 
   25760    299.14146   -3347.7783   -3331.1128    1534.9939    9323.6614    106.33385 
   25770    295.64818    -3347.682   -3331.2111    713.21742    9338.5154    106.49348 
   25780    281.79877   -3346.9833   -3331.2839    197.27855    9353.4996    106.68171 
   25790    277.49446   -3346.7862   -3331.3267   -271.55316    9368.1658    106.88398 
   25800    274.26313    -3346.612   -3331.3325   -943.01202    9382.0241    107.10161 
   25810    280.21219     -3346.92    -3331.309   -1858.2247    9394.5612    107.33008 
   25820    280.96447    -3346.917   -3331.2641   -2575.4922    9405.4915    107.53337 
   25830    285.15441   -3347.0913    -3331.205   -3066.3349     9414.782     107.6847 
   25840     295.4021   -3347.5905   -3331.1333   -3657.9362    9422.4051    107.78422 
   25850     305.3975   -3348.0721    -3331.058   -4111.6434    9428.0837    107.83775 
   25860    308.58116   -3348.1836   -3330.9922   -4154.5815    9431.4247     107.8509 
   25870    311.52452   -3348.3017   -3330.9464    -3721.996    9432.1327    107.83529 
   25880     304.1118   -3347.8641   -3330.9217   -3066.6696    9430.1294    107.80335 
   25890    293.82311   -3347.2799   -3330.9107   -2555.7008    9425.5319    107.76252 
   25900    293.66213   -3347.2629   -3330.9027   -2262.4211    9418.4606    107.71103 
   25910    298.56081   -3347.5231   -3330.8899   -1879.8237    9409.1713    107.64358 
   25920     302.5386   -3347.7233   -3330.8685   -1493.9556    9398.2546    107.54871 
   25930    311.36777   -3348.1912   -3330.8446   -1384.4896    9386.3581    107.42375 
   25940    305.04258   -3347.8192   -3330.8249   -1133.4164    9373.8766     107.2849 
   25950     305.6959   -3347.8406   -3330.8099   -776.82445    9361.0094    107.14848 
   25960    310.69484   -3348.1032    -3330.794   -193.82376    9348.0317    107.01138 
   25970    313.88833   -3348.2678   -3330.7807    476.16979    9335.3931      106.866 
   25980    313.31148   -3348.2333   -3330.7784    1304.9312    9323.5448    106.71793 
   25990     302.9036   -3347.6624   -3330.7873    2322.1539     9312.861    106.57254 
   26000    295.52774   -3347.2673   -3330.8031     2945.369    9303.7884    106.43778 
   26010    288.94403   -3346.9202   -3330.8228    3096.1426    9296.7134    106.33494 
   26020    287.44727   -3346.8586   -3330.8446    2998.6389    9291.7958    106.27566 
   26030    302.95732   -3347.7509   -3330.8728    2736.1247    9288.9109    106.25348 
   26040    313.05206   -3348.3611   -3330.9206    2701.8891    9287.7872    106.26228 
   26050    307.01747    -3348.105   -3331.0007    2815.7539    9288.2822    106.30006 
   26060      299.451   -3347.7918   -3331.1091    2711.2061    9290.3145    106.35563 
   26070    303.07636   -3348.1263   -3331.2415    2009.8986    9293.7602    106.40082 
   26080    303.31474   -3348.2944   -3331.3964    1171.4484    9298.3641    106.41133 
   26090    304.55272   -3348.5342   -3331.5673    507.34851    9303.7769    106.40015 
   26100     318.4555    -3349.501   -3331.7595   -237.82658    9309.6051    106.39349 
   26110    312.09802   -3349.3613    -3331.974   -655.65742    9315.3707    106.40177 
   26120    288.47869     -3348.25   -3332.1785   -769.82672    9320.5755    106.43908 
   26130    289.85702   -3348.5049   -3332.3566   -985.67569     9324.801    106.51572 
   26140    295.87498        -3349   -3332.5165   -1267.0348    9327.7657    106.60999 
   26150    287.39702   -3348.6696   -3332.6584    -1669.153    9329.4976    106.68428 
   26160    279.66294   -3348.3538   -3332.7735   -2012.6779    9330.3012    106.71657 
   26170    284.99388     -3348.74   -3332.8627   -2191.2694    9330.5408    106.70821 
   26180    284.48943   -3348.7805   -3332.9313   -2085.6884    9330.3546    106.68187 
   26190    275.39527   -3348.3207   -3332.9781   -1900.4899    9329.6512    106.66167 
   26200    273.15946   -3348.2181        -3333   -1794.7742    9328.2869    106.65811 
   26210    273.07491   -3348.2084   -3332.9951   -1546.9977    9326.1448     106.6667 
   26220    277.89826   -3348.4466   -3332.9646   -1335.2414    9323.1828    106.67188 
   26230    281.16123   -3348.5742   -3332.9104   -1012.1315    9319.4928    106.66249 
   26240    275.78369   -3348.1969   -3332.8326   -637.67981    9315.3877    106.62747 
   26250    279.72013    -3348.314   -3332.7305   -526.74541    9311.3171    106.56073 
   26260    279.28073   -3348.1624   -3332.6034   -582.12503    9307.6115    106.48394 
   26270    272.53557   -3347.6398   -3332.4565   -649.45362    9304.4883    106.42915 
   26280    285.16683   -3348.1759    -3332.289   -898.94446    9302.0499    106.40022 
   26290    302.56563   -3348.9618   -3332.1055   -995.58286    9300.1456    106.37367 
   26300    303.49457   -3348.8381   -3331.9301   -461.27761    9298.6486    106.33155 
   26310    293.93874   -3348.1514   -3331.7758    380.54765    9297.8333    106.27954 
   26320    289.39414   -3347.7582   -3331.6357    1012.5998    9298.1627     106.2426 
   26330    312.99522   -3348.9414   -3331.5041    873.77912    9299.9028    106.24508 
   26340    325.68859   -3349.5361   -3331.3916    662.70824    9302.8578    106.29285 
   26350    305.33427   -3348.3264   -3331.3159    1120.5732    9306.7057    106.37162 
   26360    292.65208   -3347.5646   -3331.2606    1427.7885    9311.3256    106.46872 
   26370     293.3241   -3347.5461   -3331.2046    1262.5614    9316.5201    106.58045 
   26380    287.68221     -3347.17   -3331.1429    555.39359    9322.0529    106.69877 
   26390    288.07254   -3347.1227   -3331.0739   -346.58115     9327.756    106.80639 
   26400    292.31076   -3347.2798   -3330.9949   -734.08069     9333.473     106.9023 
   26410    297.46034   -3347.4831   -3330.9113   -708.63267    9339.1748    107.00097 
   26420     301.0961   -3347.6014    -3330.827   -587.52334    9344.8753    107.10329 
   26430    305.18934   -3347.7479   -3330.7455   -720.18054    9350.4361      107.185 
   26440    305.68807   -3347.7002     -3330.67   -1121.2192    9355.5566    107.21265 
   26450    302.68518   -3347.4673   -3330.6044   -1271.1089    9360.1127    107.17865 
   26460    295.14021   -3346.9872   -3330.5446   -1093.8022    9364.2595    107.12007 
   26470    291.98482   -3346.7502   -3330.4834   -872.70468    9368.0877    107.08187 
   26480     292.5153   -3346.7121   -3330.4157   -971.09276     9371.586    107.07882 
   26490    286.69579   -3346.3126   -3330.3405   -1197.0139    9374.7993    107.10299 
   26500    284.29068   -3346.0917   -3330.2535   -1657.5456    9377.7646    107.14344 
   26510    296.70967   -3346.6807   -3330.1507   -2405.6199    9380.2164    107.18311 
   26520    307.77471   -3347.1874    -3330.041   -2560.7039    9381.7356    107.20861 
   26530    306.99312   -3347.0427   -3329.9398   -2128.2945    9382.2797    107.22985 
   26540    302.89089   -3346.7239   -3329.8495   -1625.2957    9382.2338    107.26809 
   26550    309.36782   -3347.0018   -3329.7666   -1641.9033    9382.0505      107.328 
   26560    314.33914   -3347.2053   -3329.6931   -2050.5464    9381.7948    107.38475 
   26570    319.62556   -3347.4446   -3329.6379   -2661.5991     9381.238    107.40267 
   26580    319.01911   -3347.3784   -3329.6055   -3259.3333    9380.0031    107.35379 
   26590    323.38935   -3347.6174    -3329.601   -3321.2686    9377.5108    107.24674 
   26600    325.70649   -3347.7744    -3329.629   -2818.5877    9373.3344    107.12759 
   26610    316.08952   -3347.2972   -3329.6874   -2113.3103    9367.4807    107.02933 
   26620    309.11331   -3346.9869   -3329.7658    -1732.949    9360.2655     106.9514 
   26630    302.85989   -3346.7254   -3329.8527   -1435.4075    9352.0447    106.88087 
   26640      300.567    -3346.683   -3329.9381   -1167.9538    9343.3507    106.80411 
   26650    312.88003   -3347.4601   -3330.0292   -933.19525     9334.762    106.71446 
   26660    311.18482   -3347.4763   -3330.1398   -410.97094    9326.5807    106.61812 
   26670    299.35776   -3346.9443   -3330.2667    43.404515    9318.8451    106.52771 
   26680    302.37323   -3347.2506    -3330.405    144.87368    9311.5396    106.44392 
   26690    301.75487   -3347.3673   -3330.5562    102.47275    9304.8037    106.36252 
   26700    294.26798   -3347.1116   -3330.7176    97.623999    9298.7487    106.28797 
   26710    296.06724    -3347.378   -3330.8838    252.12028    9293.3364    106.22577 
   26720    306.39396   -3348.1307   -3331.0611    654.47127    9288.5745    106.17371 
   26730    307.72335   -3348.3966   -3331.2529    1166.2092    9284.5986    106.12979 
   26740    306.01702   -3348.5025    -3331.454     1552.988    9281.6452    106.09646 
   26750    306.70826   -3348.7438   -3331.6567    1516.6875    9279.9072    106.07443 
   26760    305.45317   -3348.8689   -3331.8518    1374.7587     9279.464    106.06423 
   26770    300.43236   -3348.7634    -3332.026    1379.3464    9280.3652    106.07098 
   26780    299.13287   -3348.8354   -3332.1703     1361.816    9282.6879    106.10663 
   26790    299.77016   -3348.9842   -3332.2837    1330.7451    9286.4046    106.17593 
   26800    298.93058    -3349.024   -3332.3703    1239.6626     9291.371    106.26056 
   26810    289.77524   -3348.5755   -3332.4318    851.97213     9297.418    106.33338 
   26820    285.34024   -3348.3634   -3332.4668    42.322364    9304.2496    106.37442 
   26830     286.6419    -3348.444   -3332.4749   -925.10889    9311.2514    106.38412 
   26840    287.74719   -3348.4941   -3332.4634   -1876.3096     9317.711    106.38191 
   26850    284.37756   -3348.2827   -3332.4397   -2010.9684    9323.2256    106.38208 
   26860    278.86159   -3347.9411   -3332.4054   -1414.5216    9327.9441    106.38717 
   26870    282.24786   -3348.0814   -3332.3571   -1031.5743    9332.3321    106.39117 
   26880    287.73507   -3348.3225   -3332.2925   -1190.3235    9336.6593    106.38991 
   26890    297.36532   -3348.7826   -3332.2161    -1933.217     9340.841    106.39118 
   26900    301.17281   -3348.9131   -3332.1344   -2629.2675    9344.5371    106.41319 
   26910    301.06809   -3348.8275   -3332.0547   -3132.4158    9347.3002    106.47287 
   26920    299.37631   -3348.6575   -3331.9789   -3082.1927      9348.66    106.57278 
   26930    298.82802   -3348.5547   -3331.9067   -2750.9496    9348.4229    106.69711 
   26940    299.43676   -3348.5187   -3331.8367   -2298.0839     9346.785    106.82207 
   26950      288.343   -3347.8276   -3331.7637   -1720.4179    9344.1913    106.91039 
   26960     290.0157   -3347.8391    -3331.682   -1548.5366    9341.1328    106.93502 
   26970    297.04874   -3348.1356   -3331.5866    -1497.897     9337.909    106.89919 
   26980    296.01892    -3347.977   -3331.4855   -1335.5793    9334.6681    106.82333 
   26990    291.93458   -3347.6444   -3331.3804   -986.89081    9331.3878    106.73676 
   27000    298.92587    -3347.923   -3331.2695   -731.42408    9328.0152    106.65669 
Loop time of 3776.53 on 16 procs for 10000 steps with 432 atoms

Performance: 0.229 ns/day, 104.904 hours/ns, 2.648 timesteps/s
94.9% CPU use with 16 MPI tasks x 1 OpenMP threads

MPI task timing breakdown:
Section |  min time  |  avg time  |  max time  |%varavg| %total
---------------------------------------------------------------
Pair    | 2524       | 3245.2     | 3748.1     | 532.6 | 85.93
Bond    | 0.00076199 | 0.0029786  | 0.0070555  |   3.1 |  0.00
Neigh   | 0.068094   | 0.07839    | 0.10085    |   2.8 |  0.00
Comm    | 22.562     | 485.78     | 1247.3     |1416.9 | 12.86
Output  | 2.1135     | 2.126      | 2.309      |   3.2 |  0.06
Modify  | 0.7524     | 43.319     | 165.97     |1076.0 |  1.15
Other   |            | 0.04189    |            |       |  0.00

Nlocal:        27.0000 ave          34 max          21 min
Histogram: 1 0 2 5 0 4 2 1 0 1
Nghost:        392.562 ave         411 max         374 min
Histogram: 2 0 3 1 3 0 3 1 1 2
Neighs:         0.00000 ave           0 max           0 min
Histogram: 16 0 0 0 0 0 0 0 0 0
FullNghs:      1246.62 ave        1693 max         856 min
Histogram: 1 0 3 2 3 4 1 1 0 1

Total # of neighbors = 19946
Ave neighs/atom = 46.171296
Ave special neighs/atom = 0.0000000
Neighbor list builds = 1000
Dangerous builds = 1000
unfix   4

write_data  structureB.data
System init for write_data ...
            
Total wall time: 2:57:11
