LAMMPS (29 Sep 2021 - Update 3)
OMP_NUM_THREADS environment is not set. Defaulting to 1 thread. (src/comm.cpp:98)
  using 1 OpenMP thread(s) per MPI task
units	metal
atom_style	full

read_data	mixed.data
Reading data file ...
  orthogonal box = (0.0000000 0.0000000 0.0000000) to (15.613400 15.650667 60.676648)
  2 by 2 by 4 MPI processor grid
  reading atoms ...
  864 atoms
Finding 1-2 1-3 1-4 neighbors ...
  special bond factors lj:    0        0        0       
  special bond factors coul:  0        0        0       
     0 = max # of 1-2 neighbors
     0 = max # of 1-3 neighbors
     0 = max # of 1-4 neighbors
     1 = max # of special neighbors
  special bonds CPU = 0.003 seconds
  read_data CPU = 0.023 seconds

pair_style	quip
pair_coeff	* * /ocean/projects/cts180021p/wuziqi/clease/mint-PD/PhaseDiagram-Clease/Liquid/GAP_potential/gap_LiKCl.xml "Potential xml_label=GAP_2021_9_27_0_1_17_37_618" 17 19

neighbor	0.3 bin
neigh_modify	delay 10

timestep	0.001
compute	msd all msd
thermo_style	custom step temp pe etotal press vol c_msd[4]
thermo	10
dump	1 all custom 10 xyz-mix.dump type id x y z
dump	2 all custom 10 force-mix.dump type id fx fy fz

fix     1 all nve
run     2000
Neighbor list info ...
  update every 1 steps, delay 10 steps, check yes
  max neighbors/atom: 2000, page size: 100000
  master list distance cutoff = 6.22
  ghost atom cutoff = 6.22
  binsize = 3.11, bins = 6 6 20
  1 neighbor lists, perpetual/occasional/extra = 1 0 0
  (1) pair quip, perpetual
      attributes: full, newton on
      pair build: full/bin
      stencil: full/bin/3d
      bin: standard
Per MPI rank memory allocation (min/avg/max) = 8.889 | 8.898 | 8.908 Mbytes
Step Temp PotEng TotEng Press Volume c_msd[4] 
       0            0    -9417.799    -9417.799   -30975.102    14826.953            0 
      10    165.55627   -9436.2929   -9417.8248   -35808.397    14826.953 0.00030948002 
      20    378.45436   -9460.0599   -9417.8428   -42850.796    14826.953 0.0037274276 
      30    405.69294   -9463.0843   -9417.8287   -44302.105    14826.953  0.012463481 
      40    392.02077   -9461.5541   -9417.8236   -44279.401    14826.953  0.024415468 
      50    417.08826   -9464.3564   -9417.8296    -45973.39    14826.953  0.036982033 
      60    420.75535   -9464.7647   -9417.8288    -47753.74    14826.953  0.049634467 
      70     407.9112   -9463.3278   -9417.8247   -49652.187    14826.953  0.062755472 
      80    419.12468   -9464.5812   -9417.8272   -52906.106    14826.953   0.07687559 
      90    432.06858   -9466.0257   -9417.8278   -56644.554    14826.953  0.092516529 
     100    437.07358   -9466.5845   -9417.8283    -59457.96    14826.953   0.10938904 
     110    434.54866   -9466.3021   -9417.8275   -61104.413    14826.953   0.12652542 
     120    434.14482   -9466.2568   -9417.8273   -62154.885    14826.953    0.1431545 
     130      439.361   -9466.8391   -9417.8277   -63630.197    14826.953   0.15919619 
     140    446.51909   -9467.6387   -9417.8289   -65558.428    14826.953   0.17463459 
     150    447.02916   -9467.6951   -9417.8283   -67360.122    14826.953   0.18924565 
     160    445.88924   -9467.5675   -9417.8279   -69292.957    14826.953   0.20295995 
     170    449.26197   -9467.9437   -9417.8279   -71767.875    14826.953   0.21606234 
     180    456.11765   -9468.7096    -9417.829   -74290.183    14826.953   0.22912636 
     190    454.43711   -9468.5223   -9417.8292    -76612.29    14826.953   0.24280842 
     200    446.62774    -9467.649    -9417.827   -78739.398    14826.953   0.25734039 
     210    454.33781   -9468.5105   -9417.8284   -80806.826    14826.953    0.2725174 
     220    466.39184   -9469.8552   -9417.8285   -82316.213    14826.953   0.28796461 
     230    478.52262   -9471.2093   -9417.8294   -82954.729    14826.953   0.30306018 
     240    481.66435   -9471.5594    -9417.829   -83195.523    14826.953   0.31749982 
     250    481.45071   -9471.5331   -9417.8266    -83193.07    14826.953   0.33144361 
     260    501.18304   -9473.7372   -9417.8295   -82982.381    14826.953   0.34536204 
     270    513.25195   -9475.0851   -9417.8311   -82417.815    14826.953   0.35987885 
     280    501.57666   -9473.7806    -9417.829   -81721.808    14826.953   0.37471171 
     290    492.47305   -9472.7646   -9417.8285   -81146.258    14826.953   0.38855622 
     300    495.01951   -9473.0493   -9417.8292   -80485.485    14826.953   0.40074053 
     310    503.02213   -9473.9419    -9417.829   -79975.837    14826.953   0.41197537 
     320    517.02716   -9475.5049   -9417.8298    -80100.53    14826.953   0.42312641 
     330    528.24549   -9476.7573   -9417.8307   -80345.683    14826.953   0.43452756 
     340    527.46021   -9476.6689   -9417.8299   -79908.329    14826.953   0.44600697 
     350    525.40472   -9476.4395   -9417.8298   -79635.847    14826.953   0.45751829 
     360    526.17025   -9476.5255   -9417.8304   -79296.551    14826.953    0.4690149 
     370    526.91272   -9476.6086   -9417.8307   -78934.771    14826.953   0.47994193 
     380    523.77443   -9476.2591   -9417.8312    -78349.26    14826.953    0.4899244 
     390    515.97368   -9475.3874   -9417.8298   -77628.832    14826.953   0.49901453 
     400    520.05492    -9475.843   -9417.8301   -77188.099    14826.953   0.50752529 
     410    532.56265   -9477.2391    -9417.831   -76589.953    14826.953   0.51614865 
     420    540.25226   -9478.0982   -9417.8322   -75877.581    14826.953   0.52551418 
     430    530.99756   -9477.0645   -9417.8309   -74960.344    14826.953   0.53577624 
     440    520.22454   -9475.8617   -9417.8299   -74047.729    14826.953   0.54643624 
     450    524.10068   -9476.2951   -9417.8308    -73298.66    14826.953   0.55673143 
     460    534.09515   -9477.4108   -9417.8316   -72760.738    14826.953   0.56614172 
     470    540.77118   -9478.1556   -9417.8317   -72524.651    14826.953   0.57446846 
     480    541.24645   -9478.2098    -9417.833   -72632.257    14826.953   0.58202651 
     490    525.98312   -9476.5055   -9417.8313   -72557.778    14826.953   0.58956581 
     500    519.29389   -9475.7579   -9417.8299   -72672.134    14826.953   0.59738896 
     510    536.84993   -9477.7197   -9417.8332   -73590.734    14826.953   0.60540983 
     520    541.07469   -9478.1913   -9417.8336   -74459.431    14826.953   0.61314596 
     530    525.46621    -9476.448   -9417.8314     -75250.3    14826.953   0.61964842 
     540    517.81909   -9475.5943   -9417.8308   -76615.008    14826.953   0.62442657 
     550    530.74801   -9477.0373   -9417.8316   -78518.677    14826.953   0.62810042 
     560    549.85385   -9479.1718   -9417.8347   -80253.367    14826.953   0.63196072 
     570    545.69369   -9478.7044   -9417.8314    -81117.21    14826.953   0.63700617 
     580    550.79507   -9479.2735   -9417.8315   -82215.551    14826.953   0.64324602 
     590    565.64388   -9480.9333   -9417.8349   -83714.176    14826.953   0.65037812 
     600    553.97462   -9479.6301   -9417.8334   -84197.142    14826.953   0.65818616 
     610    534.68082   -9477.4754   -9417.8309    -84240.65    14826.953   0.66624572 
     620    539.88467    -9478.057    -9417.832   -85068.031    14826.953   0.67443063 
     630    557.34145   -9480.0068   -9417.8345   -86385.256    14826.953   0.68307389 
     640    561.99273   -9480.5241    -9417.833   -87221.521    14826.953   0.69206136 
     650    566.38107   -9481.0145   -9417.8338   -87655.782    14826.953   0.70036908 
     660    568.86956   -9481.2918   -9417.8335    -87740.11    14826.953   0.70722977 
     670    575.19383   -9481.9963   -9417.8326   -87866.365    14826.953   0.71303183 
     680    595.54742   -9484.2684   -9417.8342   -88404.913    14826.953   0.71947662 
     690    609.98222   -9485.8807   -9417.8363   -88729.686    14826.953    0.7286457 
     700    596.15452   -9484.3367   -9417.8348   -87868.063    14826.953   0.74132924 
     710     573.7335   -9481.8333   -9417.8324   -86258.222    14826.953   0.75645284 
     720    573.70821   -9481.8317   -9417.8337   -84983.366    14826.953   0.77238493 
     730     586.6623   -9483.2786   -9417.8355   -84422.122    14826.953   0.78843572 
     740    590.84846   -9483.7457   -9417.8357   -83666.343    14826.953   0.80463072 
     750    583.49524   -9482.9245   -9417.8347    -82343.99    14826.953   0.82074782 
     760    583.95649   -9482.9744   -9417.8332   -81187.395    14826.953   0.83649385 
     770    604.11555   -9485.2273   -9417.8373   -80598.713    14826.953   0.85208187 
     780    602.14592   -9485.0071   -9417.8368   -79807.857    14826.953   0.86786713 
     790    583.15212   -9482.8843   -9417.8328   -79182.757    14826.953   0.88337328 
     800    591.98235   -9483.8727   -9417.8362    -79217.67    14826.953   0.89779065 
     810     593.6376   -9484.0604   -9417.8392   -78586.479    14826.953   0.91096518 
     820    564.19404    -9480.769   -9417.8323   -76887.536    14826.953   0.92230305 
     830    578.29071   -9482.3435   -9417.8343    -76070.66    14826.953   0.93079609 
     840    620.21177   -9487.0247   -9417.8391   -76615.231    14826.953   0.93735222 
     850    635.72143   -9488.7531   -9417.8374   -76706.283    14826.953   0.94395854 
     860    638.46305   -9489.0584   -9417.8369   -76335.754    14826.953    0.9515297 
     870    639.16227   -9489.1369   -9417.8374   -76423.443    14826.953   0.96015894 
     880    632.78052   -9488.4255   -9417.8379    -76496.29    14826.953   0.96986761 
     890    619.52962   -9486.9443   -9417.8348   -76440.217    14826.953   0.98065907 
     900    631.58349   -9488.2902   -9417.8361   -77290.162    14826.953   0.99283193 
     910    659.71446   -9491.4297   -9417.8375   -78626.622    14826.953    1.0074175 
     920    682.68232   -9493.9925   -9417.8382   -79649.341    14826.953     1.025539 
     930    692.81423   -9495.1224   -9417.8379   -80089.571    14826.953    1.0472636 
     940    693.68664   -9495.2193   -9417.8375   -80244.074    14826.953    1.0718362 
     950     697.6853   -9495.6642   -9417.8364   -80549.347    14826.953    1.0985217 
     960    720.55047   -9498.2165    -9417.838   -81100.976    14826.953    1.1269795 
     970    736.50661   -9500.0011   -9417.8427   -81178.831    14826.953    1.1574498 
     980    709.64481   -9496.9987   -9417.8368   -80198.822    14826.953    1.1900413 
     990    699.67715   -9495.8872   -9417.8372   -80141.397    14826.953    1.2238706 
    1000    721.55559   -9498.3287    -9417.838   -81850.645    14826.953    1.2577136 
    1010    753.07988   -9501.8503   -9417.8431   -83180.243    14826.953    1.2911781 
    1020      745.493   -9501.0009   -9417.8401   -82863.976    14826.953    1.3253393 
    1030    733.65366   -9499.6762    -9417.836   -82639.661    14826.953    1.3609259 
    1040    758.67379   -9502.4737   -9417.8425   -83602.278    14826.953     1.397925 
    1050    756.83368   -9502.2682   -9417.8422   -83730.377    14826.953    1.4364633 
    1060    728.60541   -9499.1145   -9417.8375   -82787.476    14826.953    1.4761865 
    1070    732.87934   -9499.5908    -9417.837   -82732.658    14826.953    1.5166131 
    1080    772.96075   -9504.0683   -9417.8434   -84026.785    14826.953     1.557623 
    1090    781.69039   -9505.0406   -9417.8419   -84442.056    14826.953    1.5996324 
    1100    771.56221   -9503.9052   -9417.8363   -84299.214    14826.953    1.6430538 
    1110    801.54413   -9507.2546   -9417.8412   -84972.703    14826.953    1.6886146 
    1120    823.54281   -9509.7109   -9417.8435   -85496.656    14826.953    1.7387343 
    1130     822.5412   -9509.5935   -9417.8378   -84712.521    14826.953    1.7953724 
    1140    852.09877   -9512.8966   -9417.8437   -84635.582    14826.953    1.8578542 
    1150    856.32238   -9513.3687   -9417.8447   -83808.928    14826.953    1.9247272 
    1160    829.16843   -9510.3332   -9417.8382   -82252.194    14826.953    1.9939774 
    1170    841.50467   -9511.7132   -9417.8421   -82218.858    14826.953    2.0635991 
    1180    862.29463   -9514.0344   -9417.8441    -82731.26    14826.953    2.1335867 
    1190    866.74056   -9514.5296   -9417.8434   -81686.997    14826.953    2.2053203 
    1200       872.69    -9515.192   -9417.8421   -80417.058    14826.953    2.2796571 
    1210    894.17681   -9517.5923   -9417.8456   -80254.886    14826.953    2.3566684 
    1220    898.69177    -9518.094   -9417.8436   -80269.089    14826.953    2.4365388 
    1230    902.65555   -9518.5356   -9417.8431   -79919.279    14826.953     2.518764 
    1240    911.76859   -9519.5544   -9417.8452   -78985.613    14826.953    2.6023137 
    1250    918.59896   -9520.3146   -9417.8435   -76973.171    14826.953    2.6875029 
    1260    941.81665   -9522.9069   -9417.8458   -75160.665    14826.953    2.7758222 
    1270     961.5063   -9525.1039   -9417.8464   -73045.867    14826.953    2.8682405 
    1280    975.25968   -9526.6366   -9417.8449   -70472.054    14826.953    2.9648404 
    1290    1001.7621   -9529.5952   -9417.8471   -69578.057    14826.953    3.0655448 
    1300    1017.6288   -9531.3669   -9417.8489   -68777.285    14826.953    3.1701834 
    1310     1014.471   -9531.0095   -9417.8438   -66497.248    14826.953    3.2777376 
    1320    1037.6476   -9533.6011     -9417.85   -64366.582    14826.953    3.3877913 
    1330    1036.1698   -9533.4336   -9417.8473   -62062.663    14826.953    3.5023518 
    1340    1033.7099   -9533.1571   -9417.8452   -59413.385    14826.953    3.6220509 
    1350    1054.8214   -9535.5189   -9417.8519   -57213.004    14826.953    3.7454243 
    1360    1037.5641   -9533.5912   -9417.8494   -54687.928    14826.953    3.8711956 
    1370    1024.3347   -9532.1105   -9417.8444   -51863.642    14826.953    3.9979351 
    1380    1062.9789   -9536.4316   -9417.8547   -49837.894    14826.953    4.1246204 
    1390    1057.5859    -9535.828   -9417.8527   -47126.721    14826.953    4.2515344 
    1400    1031.7037   -9532.9346   -9417.8465   -44628.045    14826.953    4.3784738 
    1410    1045.5289   -9534.4845   -9417.8542   -43213.649    14826.953    4.5048283 
    1420    1036.1371   -9533.4348   -9417.8521   -40686.938    14826.953    4.6299533 
    1430    1013.3873   -9530.8963   -9417.8514   -37037.959    14826.953    4.7524242 
    1440    1009.9024   -9530.5043   -9417.8482   -34353.771    14826.953    4.8714929 
    1450      1045.07    -9534.436   -9417.8569   -32718.717    14826.953     4.987903 
    1460     1044.846   -9534.4069   -9417.8527   -30915.035    14826.953    5.1042348 
    1470    1040.0569   -9533.8734   -9417.8535   -30330.474    14826.953    5.2222883 
    1480    1033.2322   -9533.1134   -9417.8548   -30604.537    14826.953    5.3412471 
    1490    1017.9278   -9531.4016   -9417.8502   -29807.511    14826.953    5.4578543 
    1500    1040.2213   -9533.8955   -9417.8572   -28131.475    14826.953    5.5684253 
    1510    1039.3849   -9533.8003   -9417.8554   -25914.416    14826.953    5.6718067 
    1520    1029.0609   -9532.6473    -9417.854   -24594.464    14826.953    5.7682644 
    1530    1031.5004   -9532.9233   -9417.8579   -24254.573    14826.953    5.8578573 
    1540    1019.0107   -9531.5253   -9417.8532   -23531.216    14826.953    5.9413335 
    1550    1035.4455    -9533.363   -9417.8575   -23504.541    14826.953    6.0203438 
    1560    1050.1303   -9535.0005   -9417.8569    -23102.24    14826.953    6.0964063 
    1570     1053.806   -9535.4108   -9417.8571   -22678.296    14826.953    6.1693718 
    1580     1061.119   -9536.2243   -9417.8549   -21883.077    14826.953     6.236789 
    1590    1088.5999   -9539.2973   -9417.8624   -21917.761    14826.953    6.2959336 
    1600      1067.89   -9536.9845   -9417.8598   -22163.429    14826.953    6.3467449 
    1610    1035.4961   -9533.3641    -9417.853   -23136.244    14826.953    6.3901828 
    1620    1056.7784   -9535.7458   -9417.8606   -24690.284    14826.953    6.4275988 
    1630    1066.5554   -9536.8339   -9417.8581   -25692.824    14826.953    6.4607565 
    1640    1082.2069   -9538.5786   -9417.8568   -26490.679    14826.953    6.4897954 
    1650    1116.1576   -9542.3698   -9417.8608   -28025.498    14826.953    6.5134721 
    1660    1130.4022   -9543.9576   -9417.8596   -28776.295    14826.953    6.5310838 
    1670    1144.7697   -9545.5608     -9417.86   -30173.707    14826.953    6.5431878 
    1680    1161.8103    -9547.465   -9417.8633   -32505.604    14826.953    6.5523479 
    1690    1144.3333   -9545.5114   -9417.8593    -33279.31    14826.953    6.5616337 
    1700    1136.3544   -9544.6191    -9417.857   -33690.837    14826.953    6.5724324 
    1710    1176.6035   -9549.1142   -9417.8623   -37361.619    14826.953    6.5842075 
    1720    1198.4999   -9551.5635   -9417.8691   -40786.714    14826.953    6.5951801 
    1730    1154.0225   -9546.5909    -9417.858    -41380.84    14826.953    6.6025599 
    1740    1162.4697   -9547.5365   -9417.8612   -42122.661    14826.953    6.6035206 
    1750    1217.5958   -9553.6894   -9417.8648   -44095.184    14826.953    6.5987402 
    1760    1258.0248   -9558.2033   -9417.8687   -46540.118    14826.953     6.591658 
    1770    1236.8678   -9555.8357   -9417.8612   -48451.256    14826.953    6.5846594 
    1780    1229.6407   -9555.0271   -9417.8588   -50743.073    14826.953    6.5769021 
    1790    1262.7885   -9558.7348   -9417.8689   -53292.589    14826.953    6.5687005 
    1800    1252.0625   -9557.5318   -9417.8623   -54893.743    14826.953    6.5624205 
    1810    1246.8613   -9556.9532   -9417.8639   -56632.643    14826.953    6.5581611 
    1820    1242.3945   -9556.4566   -9417.8657   -58535.832    14826.953    6.5543941 
    1830    1221.3702    -9554.109   -9417.8634   -60009.412    14826.953    6.5499057 
    1840    1212.9357   -9553.1643   -9417.8595   -61556.573    14826.953    6.5428348 
    1850    1263.9969   -9558.8674   -9417.8667   -65435.852    14826.953    6.5324408 
    1860    1285.5884   -9561.2846   -9417.8753    -68660.14    14826.953    6.5212296 
    1870    1214.4221   -9553.3281   -9417.8575   -67913.202    14826.953    6.5108613 
    1880    1240.7292   -9556.2712    -9417.866   -69208.737    14826.953    6.4995978 
    1890    1270.4483   -9559.6022   -9417.8818   -71282.098    14826.953    6.4880409 
    1900    1157.8079   -9547.0093   -9417.8541   -70763.972    14826.953    6.4774151 
    1910     1166.235     -9547.96   -9417.8648   -72850.327    14826.953    6.4654768 
    1920    1214.5736   -9553.3625    -9417.875   -76494.653    14826.953    6.4516584 
    1930    1182.0419   -9549.7195   -9417.8609   -76455.664    14826.953    6.4355978 
    1940    1204.4023   -9552.2203   -9417.8674   -75958.225    14826.953    6.4157942 
    1950    1226.3694   -9554.6747   -9417.8713   -74838.153    14826.953    6.3937969 
    1960    1204.4092   -9552.2146   -9417.8609   -73367.437    14826.953    6.3721901 
    1970    1239.3277   -9556.1157   -9417.8668   -73666.391    14826.953    6.3514773 
    1980    1264.3958   -9558.9153     -9417.87   -74700.467    14826.953    6.3312291 
    1990     1229.627   -9555.0308    -9417.864   -74940.507    14826.953    6.3107868 
    2000    1194.8681   -9551.1533   -9417.8639   -75555.459    14826.953    6.2895403 
Loop time of 1663.3 on 16 procs for 2000 steps with 864 atoms

Performance: 0.104 ns/day, 231.014 hours/ns, 1.202 timesteps/s
95.3% CPU use with 16 MPI tasks x 1 OpenMP threads

MPI task timing breakdown:
Section |  min time  |  avg time  |  max time  |%varavg| %total
---------------------------------------------------------------
Pair    | 1253.7     | 1402.6     | 1609.9     | 304.9 | 84.33
Bond    | 0.00016785 | 0.00046082 | 0.0011075  |   0.0 |  0.00
Neigh   | 0.025668   | 0.032745   | 0.04305    |   3.3 |  0.00
Comm    | 53.137     | 257.45     | 407.78     | 701.8 | 15.48
Output  | 0.12042    | 1.6832     | 5.2843     | 162.3 |  0.10
Modify  | 0.0095475  | 0.010643   | 0.011506   |   0.5 |  0.00
Other   |            | 1.48       |            |       |  0.09

Nlocal:        54.0000 ave          65 max          37 min
Histogram: 1 0 3 1 3 0 0 0 4 4
Nghost:        616.312 ave         727 max         487 min
Histogram: 4 3 1 0 0 0 0 0 0 8
Neighs:         0.00000 ave           0 max           0 min
Histogram: 16 0 0 0 0 0 0 0 0 0
FullNghs:      3255.38 ave        4280 max        2032 min
Histogram: 1 3 4 0 0 0 0 0 3 5

Total # of neighbors = 52086
Ave neighs/atom = 60.284722
Ave special neighs/atom = 0.0000000
Neighbor list builds = 199
Dangerous builds = 198
unfix   1

velocity    all create 1050.0 1312343 dist gaussian
fix     2 all npt temp 1050.0 1050.0 $(100.0*dt) aniso 0.0 1.01325 $(1000.0*dt)
fix     2 all npt temp 1050.0 1050.0 0.10000000000000000555 aniso 0.0 1.01325 $(1000.0*dt)
fix     2 all npt temp 1050.0 1050.0 0.10000000000000000555 aniso 0.0 1.01325 1
run     3000
Per MPI rank memory allocation (min/avg/max) = 8.898 | 8.906 | 8.912 Mbytes
Step Temp PotEng TotEng Press Volume c_msd[4] 
    2000         1050   -9551.1533   -9434.0242   -76719.626    14826.953    6.2895403 
    2010    1064.5968   -9553.9927   -9435.2353   -74981.945    14806.909    6.2734718 
    2020    1100.4296   -9561.4494   -9438.6948   -68888.601    14747.937    6.2356883 
    2030    1089.6457   -9565.2044   -9443.6528   -57369.506    14654.403    6.1838283 
    2040    1147.7365   -9577.1405   -9449.1088   -45436.308    14534.651    6.1265683 
    2050    1209.8381   -9589.3302    -9454.371   -33005.884    14399.222    6.0715617 
    2060    1209.8485   -9593.8131   -9458.8526   -18079.152    14259.924    6.0244518 
    2070    1224.6372   -9598.8786   -9462.2684   -3333.4666    14128.734    5.9906734 
    2080    1250.2867   -9604.3397   -9464.8683    9415.2548    14014.849    5.9763641 
    2090    1238.4442   -9604.9865   -9466.8362    20155.472    13923.232    5.9850206 
    2100    1244.8766   -9607.2038    -9468.336    26585.635    13855.232    6.0155476 
    2110    1264.4966   -9610.7566   -9469.7001     29286.12    13809.336    6.0640455 
    2120    1247.2571   -9610.2113   -9471.0779    30551.894    13782.683    6.1254802 
    2130    1229.8284   -9609.6829   -9472.4937    28483.251    13772.474    6.1946314 
    2140    1251.9557   -9613.7541   -9474.0965    22833.021    13775.494    6.2695257 
    2150    1234.8868   -9613.6536   -9475.9001    17392.561    13788.043    6.3495309 
    2160    1165.2413   -9607.7077   -9477.7233    13856.879    13807.122    6.4294265 
    2170    1158.2006   -9608.6287   -9479.4297    8681.3976    13830.675    6.5024301 
    2180    1218.4922   -9617.0553   -9481.1306     1412.463    13856.282    6.5643844 
    2190    1215.0813   -9618.4585   -9482.9144   -4583.9039    13880.894    6.6131588 
    2200     1173.983   -9615.6618   -9484.7022   -8395.6522    13902.063    6.6476329 
    2210    1174.1059   -9617.4346   -9486.4613   -11911.747    13918.286    6.6674656 
    2220    1198.6106   -9621.9953   -9488.2885    -16780.51    13928.205    6.6727521 
    2230    1183.7784   -9622.2913    -9490.239     -20516.3    13930.083    6.6619873 
    2240    1182.0243   -9624.1685   -9492.3119   -22658.581    13922.648    6.6331106 
    2250    1203.4183   -9628.8197   -9494.5765   -24417.535    13905.299    6.5858936 
    2260    1210.6527   -9632.1255   -9497.0754   -24843.867    13877.751    6.5213466 
    2270    1229.4712   -9636.9761   -9499.8268   -23362.839    13840.343    6.4415448 
    2280    1195.4985   -9635.9946    -9502.635   -17585.235    13794.458    6.3507913 
    2290    1199.1683   -9639.0196   -9505.2505   -12858.748    13743.028    6.2556453 
    2300    1246.0761   -9646.8536   -9507.8519   -10681.262    13688.577    6.1626068 
    2310    1235.5525   -9648.2846   -9510.4569   -6459.2892    13632.671    6.0761465 
    2320    1242.7104   -9651.5894   -9512.9632   -1401.7345    13577.395    5.9985897 
    2330     1259.103    -9655.882   -9515.4271    2578.5189    13525.004    5.9321812 
    2340    1267.8314   -9659.3187   -9517.8902    4880.4922    13477.143      5.87738 
    2350    1325.9591   -9668.4087   -9520.4959    4605.3527    13434.529    5.8319776 
    2360    1380.9756   -9677.5291   -9523.4792    4552.5163    13396.828    5.7953468 
    2370    1336.1237    -9675.683   -9526.6364    6640.5285    13363.744    5.7692781 
    2380    1331.7099   -9678.2239   -9529.6696    7765.4047    13335.705    5.7537553 
    2390     1408.056   -9689.9471   -9532.8764    6982.6819    13312.734    5.7471597 
    2400    1415.5731   -9694.2567   -9536.3474    9550.1066    13294.368     5.747878 
    2410    1482.0694    -9705.438   -9540.1109    10432.246    13281.089     5.755747 
    2420    1490.5443   -9710.5581   -9544.2856     10158.44    13272.919    5.7744371 
    2430    1390.7812   -9703.5658   -9548.4221    9609.6218    13269.415    5.8059953 
    2440    1367.9825   -9704.8617   -9552.2612    4758.9746    13269.898    5.8474354 
    2450     1411.593    -9713.582   -9556.1167   -2139.0653    13272.194    5.8945753 
    2460    1373.5376   -9713.2844   -9560.0642   -4488.2114    13273.632    5.9435964 
    2470    1340.0769   -9713.3729   -9563.8853   -6745.4237    13273.136    5.9902343 
    2480    1355.0733   -9718.8641   -9567.7037   -9945.7089    13269.866    6.0307865 
    2490    1343.0637   -9721.3561   -9571.5353     -10805.4    13262.805    6.0624422 
    2500    1367.1744   -9727.9737   -9575.4633   -11574.402    13251.699    6.0847051 
    2510    1370.2406   -9732.3598   -9579.5074   -11055.298     13236.55    6.0994812 
    2520    1354.4058   -9734.6446   -9583.5586    -8493.947     13217.84    6.1076302 
    2530    1367.5671   -9740.1355   -9587.5813   -4238.7432    13196.808    6.1098531 
    2540    1395.1381   -9747.3137    -9591.684   -1577.3395    13175.166     6.107637 
    2550    1421.0495   -9754.4879   -9595.9677   -1638.9572     13153.99    6.1013231 
    2560    1423.8953   -9759.2963   -9600.4586    -2584.015    13133.311      6.08977 
    2570    1391.8336   -9760.2302   -9604.9691    -2718.614    13112.783    6.0722602 
    2580    1342.8872   -9759.1355   -9609.3344   -653.96247    13092.397    6.0490065 
    2590    1305.9179   -9759.1191    -9613.442    3479.5049    13072.955    6.0201063 
    2600    1291.4693    -9761.438   -9617.3727    8493.7712    13056.027    5.9866429 
    2610    1235.9006   -9758.8989   -9621.0324    13145.469    13043.423    5.9512468 
    2620    1266.0105   -9765.7205   -9624.4952    12918.509    13036.555    5.9148692 
    2630    1337.4181   -9777.3498   -9628.1588    8432.3539    13035.012    5.8781118 
    2640    1351.2888   -9782.8784   -9632.1402    4934.5359     13036.91    5.8420242 
    2650    1316.7762   -9783.1205   -9636.2321    4820.4696    13040.777    5.8081432 
    2660    1332.0962   -9788.8801   -9640.2827    5084.9189    13046.341    5.7786388 
    2670    1361.2913   -9796.3163   -9644.4622    5084.7131    13053.613    5.7559917 
    2680     1334.764   -9797.5339    -9648.639    3769.6076    13062.464    5.7431326 
    2690    1348.6349   -9803.2159   -9652.7737    -753.4348    13072.186    5.7422766 
    2700    1339.0611   -9806.2794   -9656.9051   -5122.8095    13081.068    5.7527546 
    2710    1310.5411   -9807.1404   -9660.9475   -7751.2888     13087.48    5.7696233 
    2720    1276.8321   -9807.2801   -9664.8476   -8929.6329     13090.48    5.7872043 
    2730    1212.6701   -9803.7787   -9668.5036   -8852.5438    13089.799    5.8015783 
    2740    1197.3784   -9805.4449   -9671.8756   -9229.5627     13085.62    5.8112681 
    2750    1200.6609   -9809.0799   -9675.1443   -8931.5549    13078.019    5.8184296 
    2760    1183.7696    -9810.344   -9678.2927   -7153.6496    13067.333    5.8258917 
    2770    1214.2738   -9816.8764   -9681.4223    -5410.205    13054.382    5.8354438 
    2780    1209.3106   -9819.5313   -9684.6309   -1848.7771    13040.053    5.8493619 
    2790    1155.2221   -9816.5792   -9687.7125    3862.7283    13025.866    5.8681497 
    2800     1139.943   -9817.7267   -9690.5644    6946.1009    13013.884    5.8898778 
    2810    1171.6728   -9824.0373   -9693.3354    5994.5328    13005.129    5.9117023 
    2820    1170.0636   -9826.6807   -9696.1583    5533.7884    12999.216    5.9319089 
    2830    1132.7752   -9825.2566   -9698.8938    5772.6717    12995.799    5.9505932 
    2840    1131.5691   -9827.7598   -9701.5316    4331.3402    12994.752    5.9690561 
    2850    1090.5123   -9825.6821   -9704.0338    3163.7294      12995.5     5.989093 
    2860    1040.8018   -9822.3883   -9706.2853    1918.2998    12997.454    6.0109908 
    2870    1035.0937   -9823.7584   -9708.2921   -40.609755    13000.049    6.0330988 
    2880    1045.6546   -9826.7695   -9710.1251   -1851.1255    13002.537    6.0529968 
    2890    1065.2519   -9830.7147   -9711.8843   -3468.2143     13004.18     6.069179 
    2900    1045.9341   -9830.2449   -9713.5694   -2839.5669    13004.487    6.0828552 
    2910    1058.5109   -9833.2644   -9715.1859   -2665.9732    13003.656    6.0953847 
    2920    1049.9539   -9833.8872   -9716.7633   -2691.0098      13001.8    6.1061292 
    2930    1006.3056   -9830.4887   -9718.2338   -1479.1731    12999.015     6.111898 
    2940    1020.3422   -9833.3758   -9719.5551   -1552.4877    12995.734    6.1104304 
    2950    1045.3787   -9837.4232   -9720.8096   -672.05214     12992.04    6.1031887 
    2960    1033.3009   -9837.2666   -9722.0004    873.84808    12988.278     6.094178 
    2970    1040.9727   -9839.2658   -9723.1437    998.48976    12984.973    6.0871791 
    2980    1010.2636   -9836.9093   -9724.2128    2257.6779    12982.259    6.0834053 
    2990     997.6916   -9836.4477   -9725.1537    2905.8334     12980.54    6.0801478 
    3000    1039.1662   -9841.9308   -9726.0102    692.49169    12979.915    6.0753628 
    3010    1031.2146   -9841.8674   -9726.8338    858.41497    12979.676    6.0701575 
    3020    974.49544   -9836.2569   -9727.5505    4212.6008    12979.928    6.0661047 
    3030     1016.066   -9841.4856   -9728.1419    4421.2439    12981.723    6.0635815 
    3040    1055.2163   -9846.3985   -9728.6876    2340.0027    12985.111    6.0625822 
    3050    1033.1546   -9844.4692   -9729.2192    1276.9738    12989.343     6.062593 
    3060    1026.9413   -9844.2847   -9729.7278   -887.30411    12993.877     6.063508 
    3070    1016.8242    -9843.602   -9730.1737   -2508.8165    12997.932     6.065371 
    3080    1026.5913   -9845.0919   -9730.5741   -3475.6842    13000.837    6.0678286 
    3090    1000.9279   -9842.5627   -9730.9077   -942.42221    13002.409    6.0708519 
    3100    981.35993   -9840.5935   -9731.1213    839.11124    13003.502    6.0735229 
    3110    1008.5204   -9843.6945   -9731.1925    1196.4655    13004.839    6.0747916 
    3120    1024.9574   -9845.4988   -9731.1632    903.95386    13006.586    6.0756959 
    3130    1005.6579   -9843.2386    -9731.056    820.82208    13008.653    6.0777538 
    3140    1031.3424   -9845.9217   -9730.8739   -1248.1902    13010.894    6.0825214 
    3150    1030.9415   -9845.6313   -9730.6282   -2750.7313    13012.582    6.0922958 
    3160    1037.4631   -9846.0862   -9730.3556   -2450.5264    13013.182    6.1070253 
    3170     1080.277   -9850.5845    -9730.078   -2318.8153    13012.768    6.1253068 
    3180    1056.2327   -9847.6592   -9729.8349   -2538.7219    13011.436    6.1462484 
    3190    1019.7226   -9843.3678   -9729.6163   -2133.6632    13009.164    6.1674233 
    3200    1013.6192   -9842.4096   -9729.3389   -677.65831    13006.148    6.1864832 
    3210    1050.9894   -9846.2404   -9729.0009   -508.17869     13002.91     6.202821 
    3220    1022.3392   -9842.6709   -9728.6274    328.79877    12999.631    6.2173996 
    3230    1017.2166   -9841.6976   -9728.2255   -452.89154    12996.507    6.2316885 
    3240    1042.0694   -9843.9964    -9727.752   -870.59464     12993.32    6.2471206 
    3250    1038.9918   -9843.1324   -9727.2313   -32.543877    12989.936    6.2635201 
    3260    1077.7832   -9846.9311   -9726.7027    96.745138    12986.611    6.2800474 
    3270    1104.0779   -9849.3865   -9726.2249    849.93869     12983.43    6.2964272 
    3280    1063.9432   -9844.5295    -9725.845    2995.4695    12980.743    6.3115258 
    3290    1076.1172   -9845.5738   -9725.5314    3689.4036    12979.279    6.3241215 
    3300    1111.2272   -9849.2352   -9725.2761    4067.0714    12979.317    6.3346639 
    3310    1089.3296   -9846.6502   -9725.1338    5245.5038     12981.01    6.3442184 
    3320    1059.9053   -9843.3137   -9725.0796    4505.3571    12984.673    6.3534039 
    3330    1067.1284   -9844.0913   -9725.0515    561.78626    12989.908    6.3626202 
    3340    1084.9463    -9846.061   -9725.0336   -4937.5768    12995.165    6.3706427 
    3350    1128.1537   -9850.9641   -9725.1169   -9504.1633    12998.332     6.374213 
    3360    1109.1787   -9849.1276    -9725.397   -10050.672     12997.77     6.371293 
    3370    1082.7208   -9846.6222   -9725.8431   -8074.7256    12993.318    6.3615874 
    3380    1098.0839   -9848.9195   -9726.4266   -6134.7271     12985.75    6.3460142 
    3390    1057.1573   -9844.9918   -9727.0643   -3356.2327    12975.968    6.3263078 
    3400    1115.4566   -9852.1979    -9727.767   -3475.5791    12964.998    6.3033276 
    3410    1140.2517   -9855.8168     -9728.62   -2747.2937    12952.995    6.2801534 
    3420    1091.0044   -9851.2889   -9729.5857    1368.2234    12940.367    6.2600043 
    3430    1104.8566   -9853.8818   -9730.6334    5563.0992    12928.627    6.2433274 
    3440    1072.3764   -9851.3489   -9731.7237    9971.7514    12919.444    6.2305573 
    3450    1078.0375   -9853.0866   -9732.8299    10961.893    12914.327    6.2227023 
    3460    1109.3446   -9857.7828   -9734.0338    9209.1759    12913.592    6.2215041 
    3470    1097.9454   -9857.8346   -9735.3571    7738.6104    12916.533    6.2274765 
    3480    1083.0623   -9857.5714   -9736.7541    6369.0832    12922.451    6.2387602 
    3490    1043.7347   -9854.5838   -9738.1536    4644.9524    12930.701    6.2535026 
    3500    1009.0785   -9851.9823   -9739.4181     1467.241    12940.527    6.2703553 
    3510     1071.748    -9860.152   -9740.5969   -2939.2738    12950.657    6.2883976 
    3520    1082.5489   -9862.5515   -9741.7915   -5696.2589    12959.416    6.3078617 
    3530    1048.8908   -9859.9966   -9742.9912   -6628.0671    12965.748     6.326951 
    3540    1015.6362    -9857.432   -9744.1363    -6867.328    12969.312    6.3419446 
    3550     999.3706   -9856.6295   -9745.1482   -7034.1303    12970.063    6.3503951 
    3560      1042.32   -9862.3637   -9746.0913   -8198.4781     12967.96    6.3523248 
    3570    1039.2684    -9862.955   -9747.0231   -8180.1293    12962.711    6.3503354 
    3580    998.24559   -9859.2493   -9747.8935   -6105.6307    12954.438    6.3468201 
    3590    1006.4173   -9860.9138   -9748.6464   -4350.4121    12943.921    6.3422191 
    3600    1021.6876   -9863.2767   -9749.3059   -1344.6024    12931.982    6.3369765 
    3610    996.17107   -9860.9659   -9749.8415    3260.8207     12919.87    6.3316625 
    3620     1005.038   -9862.3642   -9750.2507    5564.7308     12909.26    6.3275909 
    3630    994.32997   -9861.4735   -9750.5545    7018.8793      12901.1    6.3278185 
    3640    986.12502   -9860.7432   -9750.7395    7044.6717    12895.848    6.3334621 
    3650    1016.7265   -9864.2539   -9750.8365    7196.9409     12893.48    6.3430627 
    3660    982.89479   -9860.4709   -9750.8275     8519.445     12894.05    6.3548513 
    3670    1019.0942   -9864.4168   -9750.7353    6030.8355    12897.813    6.3663462 
    3680    1006.6723   -9862.8385   -9750.5427     4228.755    12903.913    6.3773788 
    3690    967.24456   -9858.1456   -9750.2481    3086.0127    12911.576    6.3889855 
    3700    1018.5691   -9863.4405   -9749.8176   -2.0881953    12920.211    6.4014392 
    3710      980.602   -9858.6309   -9749.2433   -1944.5308    12928.714    6.4145985 
    3720    968.01542   -9856.5503   -9748.5667   -4712.4204    12936.239    6.4260058 
    3730    1025.2462   -9862.0932   -9747.7255     -8336.98    12941.691    6.4332801 
    3740    1010.2397   -9859.4926   -9746.7989   -8732.2138    12943.856     6.434727 
    3750    1026.8389   -9860.3982   -9745.8528   -8653.0954    12942.528    6.4289635 
    3760     1031.878   -9859.9779   -9744.8703   -6755.2977    12937.863    6.4186446 
    3770    999.69752   -9855.3876   -9743.8699   -2998.5485    12930.696     6.407578 
    3780    1055.3793   -9860.5559   -9742.8267   -2232.3056    12922.376    6.3971478 
    3790    1058.4955    -9859.815   -9741.7382    213.02118    12913.443    6.3873942 
    3800    1066.3292   -9859.6403   -9740.6896    3551.4053    12904.812    6.3766369 
    3810    1076.5573   -9859.7652   -9739.6736    6541.1809    12897.752    6.3633715 
    3820     1011.655   -9851.5673   -9738.7157    9015.9565    12893.422    6.3486103 
    3830    1036.7598   -9853.4308   -9737.7787    7930.6218    12892.616    6.3352466 
    3840    1081.6232   -9857.4489   -9736.7922    5581.7071    12894.901    6.3277152 
    3850     1071.157   -9855.3401   -9735.8509     4475.504    12899.392    6.3277943 
    3860    1102.7685   -9858.0181   -9735.0026    2859.4295    12905.526    6.3331463 
    3870     1095.726   -9856.4798   -9734.2499    1897.0263    12912.698    6.3411911 
    3880    1076.0699    -9853.656   -9733.6187    1126.0236    12920.521    6.3505502 
    3890    1106.6639   -9856.5252   -9733.0752   -1680.8725     12928.57    6.3609777 
    3900    1066.0494    -9851.536   -9732.6166   -2882.8851     12935.87    6.3728624 
    3910    1044.8154   -9848.7709   -9732.2202   -3300.1384    12941.933    6.3855639 
    3920    1132.6748    -9858.206   -9731.8544   -5418.4296    12946.513    6.3992925 
    3930    1116.1149   -9856.1289   -9731.6246   -5397.5319    12948.947    6.4152402 
    3940    1064.4663   -9850.2929   -9731.5501   -5024.8323    12949.206    6.4309499 
    3950    1106.0623   -9854.9465   -9731.5636   -7080.4825    12947.358    6.4419657 
    3960    1109.0432   -9855.4003   -9731.6849    -8500.744    12942.733    6.4458623 
    3970    1111.7889   -9855.9842   -9731.9625      -6840.8    12934.941    6.4419324 
    3980    1127.0392   -9858.1241   -9732.4012   -3566.2589    12924.618    6.4311204 
    3990    1095.9115   -9855.2267   -9732.9761    1831.7692    12913.145    6.4158375 
    4000    1056.4034   -9851.4362   -9733.5928    5486.8989    12902.557    6.3992909 
    4010    1072.7932   -9853.9106   -9734.2389    4916.4317    12894.175    6.3853829 
    4020     1084.412   -9855.9211   -9734.9533    4442.1883    12887.876    6.3774002 
    4030    1059.9094   -9853.9577   -9735.7232    5430.2198    12883.485    6.3750785 
    4040    1080.7859   -9857.0915   -9736.5282    4286.5137    12881.242    6.3755295 
    4050    1122.8363   -9862.7066   -9737.4525    2379.2672      12880.7    6.3763048 
    4060    1065.5082   -9857.3386   -9738.4796     2871.809      12881.2    6.3761251 
    4070    1027.2956   -9854.0766   -9739.4802    2954.7437    12882.832    6.3738387 
    4080    1069.0985   -9859.7094   -9740.4498    641.00087    12885.522    6.3694393 
    4090    1058.1113   -9859.4447   -9741.4108    212.04114    12888.508    6.3646205 
    4100    1038.4546   -9858.1687   -9742.3276    115.13692     12891.54    6.3608234 
    4110    1076.7609   -9863.3555   -9743.2412   -1884.2742      12894.5    6.3584386 
    4120    1054.5755   -9861.8216   -9744.1821   -2091.2968    12896.767    6.3572427 
    4130    1027.0823   -9859.6571   -9745.0845   -1609.6914    12898.221     6.355955 
    4140     1055.335   -9863.6898   -9745.9656   -2600.9672    12898.964    6.3541454 
    4150    1033.5545   -9862.1155   -9746.8209   -2541.0304    12898.729    6.3521215 
    4160    1032.2448   -9862.7815    -9747.633   -1843.4027    12897.521    6.3497656 
    4170    1045.3498    -9865.021   -9748.4106   -2197.8362    12895.544    6.3487767 
    4180    1032.9001   -9864.3693   -9749.1478   -1724.1979    12892.766    6.3506204 
    4190    1015.4148   -9863.0944   -9749.8234   -1093.1266     12889.34    6.3548354 
    4200    988.31589   -9860.6299   -9750.3818   -30.739806    12885.552    6.3591343 
    4210    1028.6442    -9865.581   -9750.8342    -573.5629    12881.734    6.3595721 
    4220    1065.1234   -9870.0827   -9751.2666    -843.4512    12877.746    6.3543929 
    4230     1015.414   -9864.9582   -9751.6873    791.70074    12873.543    6.3459605 
    4240    1008.9944   -9864.5881   -9752.0332    209.45101    12869.608    6.3367537 
    4250    1053.0621   -9869.7973   -9752.3267   -1319.7323    12865.776    6.3270732 
    4260      1045.18   -9869.2043   -9752.6129    -1628.089    12861.508    6.3157015 
    4270    1025.7224   -9867.3112   -9752.8903     369.9431    12856.747    6.3006315 
    4280    1008.3304   -9865.5843   -9753.1035    3768.3781    12852.237    6.2822938 
    4290    1019.2261   -9866.9353   -9753.2391    4862.3522    12849.161    6.2639564 
    4300    1039.5735   -9869.2885   -9753.3226    4344.7779    12847.992    6.2481498 
    4310    1026.7243   -9867.9002   -9753.3676    4346.7627    12848.571    6.2353137 
    4320    1018.3406   -9866.9789   -9753.3815    4452.6369    12850.877    6.2245641 
    4330    1009.6924   -9865.9608   -9753.3281    2651.3498    12854.852    6.2148475 
    4340    1056.4909   -9871.0785   -9753.2253   -1055.5856    12859.781    6.2049146 
    4350    1048.3232   -9870.0281   -9753.0861   -3597.5255    12864.319    6.1941668 
    4360    1008.4803   -9865.4138   -9752.9163   -4656.5485    12867.441    6.1820639 
    4370    1002.1451   -9864.4522   -9752.6614   -3736.7882    12868.757    6.1676195 
    4380    1017.8199   -9865.8468   -9752.3074   -1368.9412    12868.636    6.1498914 
    4390    1036.3716   -9867.5018    -9751.893     483.7285    12867.956     6.128149 
    4400    1010.6174   -9864.1643   -9751.4284    1860.7117    12867.479    6.1037247 
    4410    1009.5814   -9863.5204   -9750.9001    1266.6746    12867.662    6.0796889 
    4420    1011.6337   -9863.1177   -9750.2684   -58.682592    12868.312    6.0598721 
    4430    1041.3186   -9865.7121   -9749.5515   -883.47562    12868.947    6.0467737 
    4440    1049.6147   -9865.8717   -9748.7856   -46.707388    12869.314    6.0394971 
    4450    1027.7736   -9862.6719   -9748.0222   -411.56094    12869.628    6.0338443 
    4460    1065.4048   -9866.1264   -9747.2789   -2110.4419      12869.7    6.0266261 
    4470    1036.3919   -9862.1617   -9746.5506   -223.63647    12869.103    6.0189492 
    4480    1041.9163   -9862.0784    -9745.851   -553.07987    12868.338    6.0132594 
    4490    1070.3874    -9864.543   -9745.1396   -1927.5846    12867.337    6.0115863 
    4500    1042.2028   -9860.7275   -9744.4682   -2394.7482    12865.625    6.0141323 
    4510     1060.167    -9862.101   -9743.8378   -3826.0049    12862.931    6.0186267 
    4520     1065.061    -9862.017   -9743.2078   -3912.3879    12858.801    6.0230633 
    4530    1041.9992   -9858.8253   -9742.5887    -1632.136     12853.24    6.0267901 
    4540    1043.9694   -9858.3891   -9741.9327    838.22973    12847.099    6.0302431 
    4550    1088.9586   -9862.7216   -9741.2466     2037.125    12841.285    6.0344027 
    4560    1068.2623   -9859.7571   -9740.5909     5226.473    12836.403    6.0399353 
    4570    1059.2716   -9858.1818   -9740.0184    7021.4954    12833.591    6.0452788 
    4580    1109.4603   -9863.2832   -9739.5212    6023.5286    12833.448    6.0498665 
    4590    1091.9505   -9860.9448   -9739.1361    5487.5088    12835.681     6.055776 
    4600    1070.4249   -9858.2814   -9738.8739    4034.6966    12840.024     6.064053 
    4610    1073.1484   -9858.3829   -9738.6716    1412.7217    12845.878    6.0739522 
    4620    1061.2199   -9856.8926   -9738.5119    357.41107    12852.314    6.0836077 
    4630    1071.4701   -9857.9246   -9738.4005   -1114.4828    12858.827    6.0910625 
    4640    1061.6493   -9856.7462   -9738.3176   -2552.7288    12864.863    6.0960354 
    4650    1059.8512   -9856.4876   -9738.2596   -3879.9976    12869.854    6.0988172 
    4660    1059.8526   -9856.4384   -9738.2102   -5859.7052     12873.26    6.0999819 
    4670     1078.584   -9858.5216   -9738.2039   -8702.0509    12874.281    6.0987382 
    4680    1077.4471   -9858.4567   -9738.2659   -8958.5057    12871.957    6.0923613 
    4690    1069.8009    -9857.735   -9738.3971   -5711.1293    12866.248    6.0778387 
    4700    1064.3337   -9857.2717   -9738.5436   -1482.2026     12858.38    6.0548116 
    4710    1093.4578   -9860.7113   -9738.7344    201.15463    12849.895    6.0258695 
    4720    1084.3849   -9859.9747     -9739.01    1736.9878    12841.589    5.9967539 
    4730     1096.746   -9861.7376   -9739.3939    1312.2542    12833.969    5.9721917 
    4740    1114.7696    -9864.283   -9739.9288   -549.19816    12826.877    5.9517814 
    4750    1091.2335    -9862.326   -9740.5973    559.21447    12819.743    5.9315487 
    4760    1072.7544   -9860.9869   -9741.3196    4514.0525    12812.983    5.9090991 
    4770    1057.3609   -9859.9762    -9742.026    8226.4927    12808.043     5.887129 
    4780    1071.0983   -9862.2339   -9742.7513    9279.9305    12806.287     5.870179 
    4790    1043.5097    -9859.886   -9743.4809    8076.8741    12808.111    5.8601057 
    4800    1033.1685   -9859.4287   -9744.1772    5665.1151    12813.042    5.8549891 
    4810    1047.4245   -9861.6811   -9744.8394    2921.2953    12820.157    5.8525009 
    4820     1059.478   -9863.6989   -9745.5125    530.78926    12828.368    5.8511924 
    4830     1037.032   -9861.8848   -9746.2023    -153.8441     12836.78    5.8507233 
    4840    1024.7837   -9861.1805   -9746.8643     -1635.08    12845.042    5.8505397 
    4850    1036.9195   -9863.1449    -9747.475   -4791.6608     12852.54    5.8487966 
    4860    1056.7977   -9865.9431   -9748.0558   -8856.9206    12858.058    5.8434161 
    4870    1072.5065    -9868.311   -9748.6713   -10352.805     12860.15    5.8341437 
    4880    1013.9777   -9862.4137    -9749.303   -8032.5477    12858.287    5.8246217 
    4890      996.976   -9861.0643   -9749.8501   -5314.2656    12853.307    5.8187954 
    4900    1030.7205   -9865.2597   -9750.2813   -3999.1875    12846.238    5.8181074 
    4910    1022.5822   -9864.6868   -9750.6162    -1867.654    12837.703    5.8211755 
    4920    999.03286   -9862.2844   -9750.8408   -17.520311    12828.516    5.8237698 
    4930    1008.4985   -9863.4404   -9750.9408    1230.7955     12819.43    5.8207649 
    4940    1030.2871   -9865.8845   -9750.9545    2054.7685    12810.904     5.810973 
    4950    1035.9969   -9866.5131   -9750.9461    3802.8623     12803.32     5.797587 
    4960    1001.4709   -9862.6309   -9750.9153    6176.7402    12797.344    5.7843727 
    4970    1000.4841   -9862.4104   -9750.8048    6701.7948    12793.785    5.7726714 
    4980    1068.7853   -9869.8622   -9750.6376    5110.3395    12792.813    5.7632277 
    4990     1053.109   -9867.9483   -9750.4724    4548.8908    12793.885    5.7574531 
    5000    1028.9078   -9865.1175   -9750.3413    4722.8411    12796.764    5.7554342 
Loop time of 2536.04 on 16 procs for 3000 steps with 864 atoms

Performance: 0.102 ns/day, 234.819 hours/ns, 1.183 timesteps/s
95.6% CPU use with 16 MPI tasks x 1 OpenMP threads

MPI task timing breakdown:
Section |  min time  |  avg time  |  max time  |%varavg| %total
---------------------------------------------------------------
Pair    | 1266.8     | 2057.6     | 2506.5     | 820.3 | 81.14
Bond    | 0.0002439  | 0.00069857 | 0.0020001  |   0.0 |  0.00
Neigh   | 0.038228   | 0.059008   | 0.075559   |   5.5 |  0.00
Comm    | 29.038     | 459.28     | 1194.4     |1632.2 | 18.11
Output  | 0.17517    | 0.17796    | 0.21799    |   2.5 |  0.01
Modify  | 0.19522    | 18.859     | 74.658     | 741.8 |  0.74
Other   |            | 0.01434    |            |       |  0.00

Nlocal:        54.0000 ave          64 max          35 min
Histogram: 1 0 2 1 1 3 0 0 1 7
Nghost:        649.188 ave         762 max         530 min
Histogram: 7 1 0 0 0 0 0 0 0 8
Neighs:         0.00000 ave           0 max           0 min
Histogram: 16 0 0 0 0 0 0 0 0 0
FullNghs:      3471.62 ave        4422 max        2047 min
Histogram: 1 2 1 1 3 0 0 0 1 7

Total # of neighbors = 55546
Ave neighs/atom = 64.289352
Ave special neighs/atom = 0.0000000
Neighbor list builds = 300
Dangerous builds = 300
unfix   2

fix     3 all npt temp 1050.0 1050.0 $(100.0*dt) aniso 1.01325 1.01325 $(1000.0*dt)
fix     3 all npt temp 1050.0 1050.0 0.10000000000000000555 aniso 1.01325 1.01325 $(1000.0*dt)
fix     3 all npt temp 1050.0 1050.0 0.10000000000000000555 aniso 1.01325 1.01325 1
run     20000
Per MPI rank memory allocation (min/avg/max) = 8.899 | 8.906 | 8.912 Mbytes
Step Temp PotEng TotEng Press Volume c_msd[4] 
    5000    1028.9078   -9865.1175   -9750.3413    4722.8411    12796.764    5.7554342 
    5010    1007.7015   -9862.7303   -9750.3197    5182.4409    12797.719    5.7639226 
    5020    996.18396   -9861.3601   -9750.2343    5144.8141    12800.705    5.7744141 
    5030    1011.6212   -9862.9026   -9750.0547    2851.4914    12805.634    5.7848443 
    5040    1033.9159   -9865.1116   -9749.7768   -146.37508    12811.663    5.7927954 
    5050     1045.327   -9866.0471   -9749.4393   -1969.1319    12817.683    5.7970689 
    5060    1041.5496   -9865.2298   -9749.0433   -2771.5785     12822.99    5.7986079 
    5070    1074.1186   -9868.4108   -9748.5913   -4013.4551    12827.204    5.7978903 
    5080    1077.1609   -9868.2839   -9748.1249   -4526.5874    12829.859    5.7954201 
    5090    1020.7431   -9861.5441   -9747.6787   -2239.2893    12830.828    5.7917901 
    5100    1006.1395   -9859.4188   -9747.1824   -188.97279    12830.889    5.7878318 
    5110    1035.8801   -9862.1328   -9746.5788    -626.3925    12830.793    5.7855081 
    5120    1079.9914   -9866.3951   -9745.9205   -2160.9289    12830.409    5.7862249 
    5130    1054.8846   -9862.9484   -9745.2744   -1100.8218    12829.275    5.7910434 
    5140    1033.3451   -9859.9087   -9744.6375    -1067.263    12827.659    5.8003492 
    5150    1074.0076   -9863.7498   -9743.9426   -2625.2049    12825.578    5.8124064 
    5160    1088.5754   -9864.6722     -9743.24   -2621.8221    12822.531    5.8245735 
    5170    1043.4479   -9858.9833   -9742.5851   -667.16481    12818.522    5.8356442 
    5180    1032.5244   -9857.1115   -9741.9318    210.15518    12814.197    5.8446984 
    5190    1064.2828   -9859.9581   -9741.2358    500.21414    12809.942    5.8507151 
    5200    1035.8892   -9856.0776   -9740.5226     1898.015    12805.922     5.854079 
    5210    1072.4468   -9859.4579   -9739.8248    1474.7304    12802.578    5.8554234 
    5220     1127.846   -9864.9878   -9739.1749   -203.88895    12799.758    5.8565893 
    5230     1087.886   -9860.0397   -9738.6844    1775.9847    12796.995    5.8595997 
    5240    1052.7952   -9855.7667   -9738.3258     4260.885    12794.945    5.8650597 
    5250    1035.5677    -9853.519   -9737.9999    4962.3417    12794.526    5.8718009 
    5260    1059.5233   -9855.8694    -9737.678    3985.2128    12795.999    5.8776738 
    5270    1109.2267   -9861.1327   -9737.3968    3735.4569    12799.062    5.8811964 
    5280    1087.2101     -9858.52   -9737.2401    4546.6595    12803.614    5.8824255 
    5290      1033.77   -9852.4995   -9737.1809    5716.2253    12810.015    5.8818969 
    5300    1079.4261    -9857.563   -9737.1514    2219.0944     12818.53    5.8809462 
    5310    1105.2346   -9860.4481   -9737.1575   -2946.0105    12827.917    5.8829618 
    5320    1077.9778   -9857.4953   -9737.2452    -6029.256    12836.267    5.8893189 
    5330    1066.0114   -9856.2984   -9737.3832   -7892.1124    12842.299    5.8972267 
    5340    1076.6252   -9857.6574   -9737.5582   -9890.5435    12845.224    5.9026864 
    5350    1077.5383   -9857.9802   -9737.7792   -11242.165    12844.283    5.9029256 
    5360    1059.8335    -9856.252    -9738.026   -9277.6937    12839.022    5.8973277 
    5370    1031.7722    -9853.304   -9738.2083   -4329.1407    12830.185    5.8886532 
    5380    1078.3088   -9858.5954   -9738.3084   -1344.8999    12819.528    5.8817639 
    5390    1145.9784   -9866.3078   -9738.4722   -934.05279      12808.2    5.8805723 
    5400    1094.3916   -9860.8481   -9738.7671    3031.4188    12796.592     5.885856 
    5410     1042.453   -9855.3424   -9739.0552    8063.5975    12786.168    5.8952783 
    5420    1055.2733   -9857.0222   -9739.3048    9179.4911    12778.712    5.9075296 
    5430    1058.3272   -9857.6134   -9739.5554    8881.6692    12774.786    5.9246347 
    5440    1078.8393    -9860.182   -9739.8358    6683.2706    12774.257    5.9481503 
    5450    1102.7635   -9863.1717   -9740.1568    3842.9164    12776.329    5.9758505 
    5460    1075.2032   -9860.4432   -9740.5027    2145.8862    12779.986    6.0028343 
    5470    1087.5878   -9862.2059   -9740.8839   -806.30154    12784.435     6.024042 
    5480    1096.8141    -9863.705   -9741.3538   -2297.4581    12788.641    6.0373506 
    5490    1050.6524   -9859.0649    -9741.863   -1820.5154     12792.05    6.0448996 
    5500    1064.9106   -9861.1563   -9742.3639   -2502.1605    12794.714    6.0510859 
    5510    1047.0802   -9859.6282   -9742.8248   -2501.2734    12796.461    6.0584421 
    5520    1066.7693   -9862.2933   -9743.2936   -2473.8965    12797.236    6.0652905 
    5530    1077.1373    -9863.991   -9743.8347   -1580.9528    12797.061    6.0704031 
    5540    1029.0229   -9859.1911   -9744.4021    1023.6373    12796.349    6.0741669 
    5550    1057.1695   -9862.8555   -9744.9266    598.07835    12795.918    6.0773169 
    5560    1071.7156     -9865.01   -9745.4585   -440.87729    12795.698    6.0812523 
    5570     1005.574   -9858.1126   -9745.9393    -277.5262    12795.369    6.0856909 
    5580    1071.3918   -9865.8849   -9746.3695   -2216.5508    12794.847    6.0885749 
    5590    1078.2329   -9867.0725    -9746.794   -1963.1379    12793.529    6.0905344 
    5600    1016.6447   -9860.6191   -9747.2109    864.65327    12791.524    6.0927391 
    5610    1038.6398   -9863.4456   -9747.5838    1409.7097    12789.781    6.0955022 
    5620    1065.0556   -9866.7522   -9747.9436    142.59696    12788.535    6.0993908 
    5630    1048.8089   -9865.3132    -9748.317    464.55509    12787.406    6.1048338 
    5640    1017.7108   -9862.1934   -9748.6662    3280.9779    12786.562    6.1115925 
    5650    1028.3999   -9863.6862   -9748.9666     4531.825    12786.938    6.1187733 
    5660    1043.9611   -9865.6821   -9749.2266    4144.1784    12789.046    6.1264474 
    5670    1023.3406   -9863.5996   -9749.4444    3632.3243    12792.795    6.1359308 
    5680    1023.0007   -9863.7239   -9749.6067    1316.7749    12797.955    6.1488156 
    5690      1040.18   -9865.7399   -9749.7062   -2253.8351    12803.632    6.1660835 
    5700    1052.8269   -9867.2429   -9749.7984   -4756.6821    12808.506    6.1870557 
    5710    1021.1815   -9863.8121   -9749.8977   -5435.5655    12811.622    6.2083051 
    5720    1029.7862   -9864.8531   -9749.9788    -5958.721    12812.638    6.2254034 
    5730     1053.608   -9867.5713   -9750.0398   -6225.5254    12811.319    6.2371071 
    5740    1024.0915   -9864.3227   -9750.0838   -3529.0567    12807.655    6.2442406 
    5750    1025.3905   -9864.4606   -9750.0767   -925.16707    12802.574    6.2474392 
    5760    1050.3411   -9867.1598   -9749.9927   -324.29777    12797.006     6.247939 
    5770     1031.952   -9864.9501   -9749.8343    1302.8465    12791.325    6.2475413 
    5780    1026.8052   -9864.1358   -9749.5941    2221.7721    12786.094    6.2482875 
    5790    1052.0529   -9866.6328   -9749.2747    1339.8787    12781.625    6.2516268 
    5800    1038.6246   -9864.7432   -9748.8831    1217.4382    12777.702    6.2573973 
    5810    1056.7938   -9866.3214   -9748.4345    1046.4458    12774.212    6.2638006 
    5820    1042.6947   -9864.2121    -9747.898    2325.8398    12771.179    6.2685131 
    5830    1047.1965   -9864.0869   -9747.2705    2728.6363    12769.012    6.2703931 
    5840    1051.8896   -9863.8701   -9746.5303    3115.9456    12767.906     6.271707 
    5850    1043.2081   -9862.0553   -9745.6839    4063.2522    12768.058    6.2749384 
    5860    1081.4547   -9865.3873   -9744.7494    3199.3807    12769.729    6.2800029 
    5870    1064.8837   -9862.5775   -9743.7881    2899.1422    12772.705    6.2866909 
    5880    1067.1298    -9861.906   -9742.8661    3033.0661    12776.876    6.2949477 
    5890    1045.8289   -9858.6175   -9741.9537    2562.0409    12782.253    6.3053123 
    5900    1056.5527   -9858.9158   -9741.0558    1050.4904    12788.661    6.3180881 
    5910    1107.8264    -9863.781   -9740.2013   -999.95952    12795.502    6.3328885 
    5920    1052.3842   -9856.8818   -9739.4867    738.81912    12802.172    6.3481478 
    5930     1014.033   -9851.9971   -9738.8802    393.33691    12809.137    6.3604241 
    5940    1106.4527   -9861.7163   -9738.2898   -4271.2305    12816.183    6.3673156 
    5950    1112.1554   -9861.8845   -9737.8218    -5678.772    12821.757    6.3707428 
    5960    1049.7268   -9854.6411   -9737.5425   -3301.3488    12825.301    6.3733459 
    5970    1084.1953   -9858.2888   -9737.3452   -3733.2559    12827.467    6.3753246 
    5980    1107.1291   -9860.7127   -9737.2107   -4726.5043    12828.195    6.3760504 
    5990    1125.3791   -9862.7623   -9737.2246   -4900.8941    12827.086    6.3749539 
    6000    1093.3785   -9859.3448   -9737.3768   -2612.5779    12824.123    6.3723129 
    6010    1066.7177   -9856.5906   -9737.5967    174.93407    12820.101    6.3692173 
    6020    1111.7656   -9861.8742   -9737.8551    1286.6836     12816.04    6.3668499 
    6030     1139.142   -9865.3359   -9738.2629    2934.4304    12812.471    6.3654255 
    6040    1063.7901   -9857.4746   -9738.8072    5717.8005    12810.062    6.3642119 
    6050     1062.109   -9857.8814   -9739.4015    6265.5749    12809.792    6.3620002 
    6060    1070.9734   -9859.4929   -9740.0242    4970.3303    12811.923    6.3596462 
    6070    1065.8574   -9859.5683   -9740.6703    3685.2863    12816.066    6.3591558 
    6080    1082.7006   -9862.1189   -9741.3421    409.99413    12821.649    6.3625243 
    6090    1077.5763   -9862.2331   -9742.0278   -2963.8787    12827.483    6.3696628 
    6100    1079.3223   -9863.1201   -9742.7201    -5564.625    12832.265     6.377677 
    6110    1076.1499   -9863.4671    -9743.421   -6848.1818    12834.952    6.3845221 
    6120    1067.5561    -9863.192   -9744.1045   -6176.1406    12835.037    6.3908387 
    6130    1054.7453    -9862.396   -9744.7376   -4855.7967    12832.701    6.3993475 
    6140     1032.854   -9860.4868   -9745.2704    -3112.954    12828.413    6.4118342 
    6150    1040.6837   -9861.7902   -9745.7004   -112.07426    12822.865     6.427401 
    6160    1044.1204   -9862.5082    -9746.035    3387.3769    12817.204    6.4446537 
    6170    1045.5332   -9862.9301   -9746.2993    5834.6584    12812.739    6.4615561 
    6180     1054.918   -9864.1802   -9746.5025    6744.2666    12810.453    6.4766626 
    6190    1078.9139   -9867.0547   -9746.7002    5201.0693    12810.709    6.4903387 
    6200    1042.0828    -9863.161   -9746.9151    3931.5385    12813.046    6.5035612 
    6210    1036.5547    -9862.748   -9747.1187    2482.5732    12816.972    6.5159064 
    6220    1063.3006   -9865.9125   -9747.2998    1218.4438    12821.966    6.5269669 
    6230    1036.3507   -9863.0679   -9747.4614    1215.6692    12827.588    6.5370151 
    6240    1020.2088    -9861.368   -9747.5622     620.4495    12833.769    6.5450965 
    6250    1053.4312   -9865.1068    -9747.595   -1695.5529    12840.235    6.5499133 
    6260    1049.4932   -9864.6846   -9747.6121   -4010.7746    12846.151    6.5502303 
    6270    1022.9477   -9861.7439   -9747.6326   -5512.1615    12850.631    6.5449188 
    6280    1037.1475   -9863.3139   -9747.6185    -7890.144    12852.967     6.534441 
    6290    1053.4265   -9865.1067   -9747.5954   -7569.8359    12852.299    6.5206733 
    6300    1029.8125   -9862.4429   -9747.5658    -4355.554    12848.721    6.5050189 
    6310    1071.0006   -9867.0066   -9747.5348   -2747.5815    12843.276    6.4874575 
    6320    1055.5108   -9865.2621   -9747.5183   -1232.5862     12836.63    6.4669882 
    6330    1032.2517   -9862.6482    -9747.499    16.942139    12829.381    6.4412516 
    6340    1066.7583   -9866.4609   -9747.4624    773.73604     12821.98    6.4105507 
    6350    1018.6779   -9861.0213   -9747.3863    5799.9214    12814.949    6.3798786 
    6360    1064.3857   -9866.0109   -9747.2771    6797.9529    12809.939    6.3535199 
    6370    1131.0807   -9873.3829   -9747.2092    4696.8834    12807.415    6.3329717 
    6380    1044.8159   -9863.8064   -9747.2556    6118.6394     12806.86    6.3167418 
    6390    996.41104   -9858.4695   -9747.3183    5925.7653    12808.656    6.3016188 
    6400    1057.4947   -9865.3057   -9747.3406    2082.8592    12812.709    6.2867786 
    6410    1057.4878   -9865.3227   -9747.3584    754.83455     12817.79    6.2733866 
    6420    1043.0739   -9863.7624    -9747.406    1421.4909    12823.348    6.2615097 
    6430    1063.2665   -9866.0791   -9747.4701    2108.7418    12829.585    6.2503453 
    6440    1066.8992   -9866.5831   -9747.5689    2157.9691     12836.78    6.2387927 
    6450    1034.9049   -9863.1527   -9747.7075   -64.444254    12844.907    6.2265324 
    6460    1001.7323    -9859.554   -9747.8092    -3447.552    12853.161    6.2143003 
    6470    1041.5858   -9864.0156   -9747.8252   -7591.7451    12860.179    6.2029205 
    6480    1056.1263   -9865.6094    -9747.797   -8048.6872    12864.466    6.1938082 
    6490    1044.4241   -9864.2883   -9747.7812   -6837.2209    12865.675    6.1875665 
    6500    1071.1843   -9867.2813   -9747.7891   -6017.1325    12864.146    6.1825344 
    6510    1051.3376    -9865.107   -9747.8287   -3834.1023    12860.235    6.1770191 
    6520    1040.0847   -9863.9121   -9747.8891   -2859.0568    12854.655    6.1707183 
    6530    1063.3627    -9866.615   -9747.9953   -2700.8692    12847.773    6.1638746 
    6540    987.99843   -9858.3183   -9748.1056    1130.7099    12839.795    6.1559771 
    6550    1008.9466   -9860.6677   -9748.1182    3150.1875    12832.011    6.1453987 
    6560    1108.2224   -9871.6869    -9748.063    631.94916    12825.101    6.1335886 
    6570    1080.2621   -9868.5677   -9748.0629    1522.2678    12818.439    6.1238887 
    6580    1057.9199   -9866.1543   -9748.1417     2150.131    12812.248    6.1176012 
    6590     1053.852    -9865.793   -9748.2342    1020.0636    12806.712    6.1141865 
    6600    1028.8606   -9863.0577   -9748.2868     1971.995    12801.541     6.112052 
    6610    1043.3317   -9864.6582    -9748.273    2819.8375    12797.042    6.1088521 
    6620    1082.7645   -9869.0459   -9748.2619     3127.102    12793.556    6.1021736 
    6630    1048.6557    -9865.304   -9748.3248    6179.8234    12791.359    6.0907558 
    6640    1022.0608   -9862.4699   -9748.4575    7769.9616    12791.507    6.0760784 
    6650     1034.601   -9864.0054   -9748.5941    4993.7469    12794.585    6.0617534 
    6660    1070.0829   -9868.1046   -9748.7352    218.06966    12799.667    6.0502452 
    6670    1059.0195   -9867.0625   -9748.9273   -1721.2396    12805.065    6.0424903 
    6680     998.8714   -9860.5387   -9749.1131    -1138.885    12809.994    6.0376037 
    6690    1036.4527   -9864.8334   -9749.2156   -3270.6874    12814.461    6.0327812 
    6700    1033.9696   -9864.5547   -9749.2139    -3970.558    12817.776    6.0258117 
    6710    1015.0772   -9862.3343   -9749.1009   -4584.6235    12819.583    6.0151417 
    6720    1089.2471   -9870.4291   -9748.9219   -7605.1229    12819.496    6.0009148 
    6730    1036.8962   -9864.4305   -9748.7632   -6205.3422    12816.566    5.9847696 
    6740    982.16814   -9858.1461   -9748.5838   -2699.4743    12811.193     5.966629 
    6750    1057.7369   -9866.3021     -9748.31    -960.4823    12804.579    5.9478136 
    6760    1044.7206   -9864.5184   -9747.9782    1928.0284     12797.54    5.9322459 
    6770    1033.1247   -9862.9155   -9747.6689    2993.6893    12791.087    5.9223968 
    6780     1053.455   -9864.8993   -9747.3848       1218.4    12785.617     5.919214 
    6790    1043.6838   -9863.5353   -9747.1108   -936.09306    12780.524     5.921845 
    6800    1056.0417    -9864.612    -9746.809   -479.65147     12775.07    5.9272888 
    6810    1037.2131   -9862.1185   -9746.4159    2979.5889     12769.45    5.9325964 
    6820      1069.37   -9865.2294   -9745.9395    4912.3662    12764.857    5.9366036 
    6830    1082.5744   -9866.1919   -9745.4291    5965.5991    12762.095    5.9411803 
    6840      1029.57   -9859.7869   -9744.9368    7550.0257    12761.668    5.9479021 
    6850    1042.2783   -9860.6843   -9744.4166     5851.596    12764.098    5.9566653 
    6860    1088.0323   -9865.2106    -9743.839    2966.5475    12768.822       5.9669 
    6870    1062.0395   -9861.7606   -9743.2885    2178.7149    12774.856    5.9767032 
    6880    1044.9076   -9859.3439   -9742.7829    249.70887    12781.798    5.9827179 
    6890    1081.7398    -9862.941   -9742.2713   -4498.1213    12788.834    5.9836473 
    6900    1078.3034   -9862.0776   -9741.7912   -6837.2206    12794.295    5.9812622 
    6910     1059.769   -9859.6023   -9741.3835   -7141.4256    12797.203    5.9766497 
    6920    1054.4078   -9858.6445   -9741.0237   -6599.2117    12797.356    5.9688944 
    6930    1024.1516   -9854.9061   -9740.6604   -3365.4807    12795.044    5.9569838 
    6940    1075.6688   -9860.2442   -9740.2517   -3560.4317    12791.235      5.94155 
    6950     1120.558   -9864.8373   -9739.8374   -5277.8615    12785.931     5.925644 
    6960    1089.3427   -9861.0433   -9739.5255   -4014.2771     12778.63    5.9101685 
    6970    1085.8457   -9860.4245   -9739.2968   -2328.5268    12769.697    5.8932392 
    6980    1090.7985   -9860.7833   -9739.1031   -592.27013    12759.757    5.8734542 
    6990    1067.5512   -9858.0104   -9738.9235    2486.2826    12749.557    5.8496748 
    7000    1097.6054   -9861.2133   -9738.7738    3401.3949     12740.15    5.8223571 
    7010    1125.4649   -9864.2703    -9738.723    4488.3487    12732.003    5.7952333 
    7020    1094.0888   -9860.8928   -9738.8455    6008.9506    12725.547    5.7716094 
    7030    1089.9395   -9860.7467   -9739.1623    4887.6048    12721.279    5.7519281 
    7040    1084.3162   -9860.6417   -9739.6846    4047.7615    12718.905     5.736463 
    7050     1047.586   -9857.2368    -9740.377    5718.3452    12718.179     5.726581 
    7060    1057.4435   -9859.1789   -9741.2195    5867.0349    12719.594    5.7237735 
    7070    1064.7431   -9860.9736   -9742.1999    5174.2482    12723.303    5.7283068 
    7080    1085.5607   -9864.3879   -9743.2919     2532.492    12728.975    5.7378198 
    7090    1067.2514   -9863.5365   -9744.4831   -624.21104    12735.665     5.750666 
    7100    1032.4349   -9860.7991   -9745.6294   -3637.4921    12742.176    5.7656986 
    7110    1087.5494   -9868.0324   -9746.7146   -6826.2421    12747.297     5.782185 
    7120    1061.6444   -9866.1675   -9747.7395   -7129.9979    12749.908    5.8008954 
    7130    1026.6639   -9863.1263   -9748.6004   -6338.9668    12749.794    5.8192303 
    7140    1058.2457    -9867.395   -9749.3461   -6378.7308    12747.152    5.8337643 
    7150    1004.7041   -9862.0351   -9749.9589   -3953.4177    12742.117    5.8438202 
    7160    1020.5561   -9864.2713   -9750.4267   -3231.1558    12735.446    5.8499643 
    7170    1050.1041   -9867.9722   -9750.8315   -2173.9971    12727.459    5.8543516 
    7180    994.94537   -9862.1239   -9751.1363    2296.6395    12718.699    5.8581595 
    7190    1000.2841    -9862.866   -9751.2828    4000.8914    12710.657    5.8600884 
    7200    1027.3023    -9865.868   -9751.2709    3836.6012    12704.085    5.8596125 
    7210    1069.8635   -9870.5555   -9751.2106    3420.4646     12698.97    5.8577998 
    7220    1067.4211   -9870.2537   -9751.1813    5380.5261    12695.244    5.8567378 
    7230    1032.5277   -9866.3585   -9751.1785    7481.4784    12693.587    5.8559473 
    7240    1044.6585   -9867.6804   -9751.1471    6046.1507    12694.694    5.8523891 
    7250    1076.8442   -9871.2378   -9751.1142    3389.0581    12698.105    5.8444086 
    7260    1035.5107   -9866.6202   -9751.1074    3063.9039    12702.937    5.8341571 
    7270    1026.3993   -9865.5888   -9751.0924    1783.9486    12708.944    5.8264707 
    7280    1076.8296   -9871.1932   -9751.0712   -156.24281    12715.642    5.8263272 
    7290    1062.8568   -9869.6736   -9751.1103   -474.86647    12722.376     5.834299 
    7300    1006.0203   -9863.3938   -9751.1707   -765.19707    12728.973    5.8441083 
    7310    1025.9571   -9865.6016   -9751.1545   -4109.7837    12735.192    5.8498359 
    7320    1049.0859    -9868.087   -9751.0599    -6915.457    12739.872    5.8518947 
    7330    1044.0599   -9867.3973   -9750.9309   -7255.8954    12741.958    5.8537012 
    7340    1066.2683   -9869.7315   -9750.7877   -6110.3147    12741.291    5.8578182 
    7350    1057.7575   -9868.6427   -9750.6483   -4784.9896    12738.247    5.8643915 
    7360    1038.1831   -9866.3227   -9750.5118   -2703.8939    12733.377    5.8699371 
    7370    1030.3954   -9865.2711    -9750.329   -1237.9119    12727.442    5.8712438 
    7380    1042.8266   -9866.4165   -9750.0877    201.95872    12721.046    5.8691286 
    7390    1041.0726   -9865.9476   -9749.8144    1169.8808    12714.686    5.8668026 
    7400    1031.0931   -9864.5284   -9749.5084    3797.2507    12708.834    5.8660659 
    7410    1042.5097   -9865.4405    -9749.147    4971.0269    12704.392    5.8659615 
    7420    1049.4946   -9865.8301   -9748.7574    3356.1577    12701.763    5.8643642 
    7430    1005.9392   -9860.5396   -9748.3256    2686.4346    12700.488    5.8599322 
    7440    1034.1484   -9863.1502   -9747.7894    1283.3626    12700.212    5.8528388 
    7450    1103.9414   -9870.2806   -9747.1343    1786.0493    12700.495    5.8458639 
    7460    1064.4429   -9865.1868   -9746.4465    6237.6925    12701.611    5.8425125 
    7470    1062.6766   -9864.3083   -9745.7651     7375.534    12705.008    5.8421632 
    7480    1095.1284   -9867.1824   -9745.0191    4968.9042    12711.109    5.8431908 
    7490     1059.508   -9862.4511   -9744.2614    4576.0228    12719.236    5.8464807 
    7500    1098.4629    -9866.045   -9743.5098    1298.5601    12729.012     5.853525 
    7510    1084.7123   -9863.7729   -9742.7716   -164.77447    12739.366    5.8657929 
    7520    1036.6451   -9857.7731   -9742.1337   -235.08015    12749.709     5.881859 
    7530    1096.4498   -9863.8577   -9741.5471   -4409.4222    12759.792    5.8986484 
    7540    1122.8795   -9866.2981   -9741.0392   -7880.8931     12768.18    5.9138582 
    7550    1060.7515   -9859.0408   -9740.7123   -7985.8463    12773.587     5.925543 
    7560    1041.4654   -9856.6665   -9740.4895    -7327.442    12775.901    5.9331244 
    7570    1095.1541   -9862.4681    -9740.302   -7799.3814    12775.302    5.9381414 
    7580     1081.653   -9860.8334   -9740.1734   -5854.8028    12771.764    5.9415451 
    7590    1086.2353   -9861.2923   -9740.1211   -3487.0824     12765.98    5.9418065 
    7600    1089.3419   -9861.6421   -9740.1244   -2097.8114    12758.827    5.9383629 
    7610    1064.7741   -9858.9326   -9740.1554   -86.178044    12750.917    5.9321594 
    7620    1105.5409   -9863.5458   -9740.2211    752.93669    12742.945     5.925697 
    7630     1113.756   -9864.6357   -9740.3946    2617.9594    12735.317    5.9216153 
    7640      1111.56   -9864.7547   -9740.7585    5329.0859    12728.778    5.9190784 
    7650    1100.2622    -9864.086   -9741.3501    6611.3242    12724.292    5.9151583 
    7660    1052.7347   -9859.5725   -9742.1384    6854.6699    12722.359    5.9064919 
    7670    1067.1165   -9862.1379   -9743.0995    4455.8449    12722.988     5.891847 
    7680    1087.0353   -9865.5392   -9744.2788    2771.8916    12725.376    5.8742403 
    7690    1052.9413   -9863.0737   -9745.6165    3021.9021    12728.903    5.8571575 
    7700    1049.0631   -9863.9751   -9746.9505    1028.0171    12733.499    5.8416994 
    7710    1080.5906   -9868.7711   -9748.2296   -2423.8073    12738.427    5.8292184 
    7720    1061.8188   -9867.8297   -9749.3822   -2769.6224    12742.537    5.8215355 
    7730    1030.5195   -9865.2721   -9750.3161   -2493.8524    12745.561    5.8186124 
    7740    1008.1264   -9863.4351   -9750.9771   -1635.3682    12747.635    5.8202904 
    7750    1026.3514   -9865.9338   -9751.4428    -1603.066    12749.027    5.8273648 
    7760     1025.426   -9866.1618    -9751.774   -2180.0492    12749.776    5.8394412 
    7770    1052.2583   -9869.4189   -9752.0379   -4527.4126    12749.601    5.8542511 
    7780    1058.1675   -9870.3247   -9752.2846   -4924.1501    12747.743    5.8702898 
    7790     1015.454   -9865.7636   -9752.4882   -2365.9489    12744.093     5.886382 
    7800    1033.4026   -9867.8911   -9752.6135   -533.08788    12739.511    5.9016268 
    7810    1032.4553   -9867.8389    -9752.667    2808.4562    12734.805    5.9167774 
    7820    986.53553   -9862.6954   -9752.6458    6660.7174    12731.218    5.9327321 
    7830    1028.7119    -9867.299   -9752.5446    6688.9228    12730.096    5.9501329 
    7840    1051.1676   -9869.6273    -9752.368     5197.326     12731.54    5.9710708 
    7850    1025.2069   -9866.5098   -9752.1464    3566.8564    12734.979    5.9964687 
    7860    1040.2017   -9867.9128   -9751.8768    1536.9371    12739.772    6.0249342 
    7870    1048.2425   -9868.4944   -9751.5614   -213.09073    12745.138    6.0545158 
    7880    1052.2475   -9868.6316   -9751.2518   -90.113954    12750.464    6.0830657 
    7890    1024.6232   -9865.2471   -9750.9488    860.28759    12755.754    6.1087682 
    7900    1017.8255   -9864.1766   -9750.6367     581.6136    12761.313    6.1290821 
    7910    1032.0606    -9865.407   -9750.2791   -1298.4458    12767.023    6.1424999 
    7920    1041.2028    -9866.017   -9749.8693   -4449.6116    12772.139    6.1489867 
    7930    1047.9165   -9866.3248   -9749.4281   -6521.8351    12775.532    6.1498334 
    7940    1047.7137   -9865.8512   -9748.9772   -7361.3823    12776.423    6.1482494 
    7950    1057.2964   -9866.4855   -9748.5425   -6987.4262    12774.496    6.1460827 
    7960    1067.4892   -9867.1992   -9748.1192   -5809.9325    12769.862    6.1424897 
    7970    1056.2311   -9865.5222    -9747.698   -3097.1459    12763.027    6.1357557 
    7980    1044.0662     -9863.71   -9747.2429    544.67175    12755.051    6.1245123 
    7990    1066.1443   -9865.6547   -9746.7247    3425.5686    12747.297    6.1092397 
    8000     1092.027   -9868.0073   -9746.1901    6078.1788    12740.916    6.0935868 
    8010    1081.0974   -9866.3296   -9745.7315    7750.8221    12736.886    6.0819788 
    8020    1072.0064   -9864.9576   -9745.3736    9259.7084    12735.913    6.0767756 
    8030    1086.8783   -9866.3565   -9745.1136    8439.9341    12738.432     6.077731 
    8040    1084.6341   -9865.9554   -9744.9628    6963.0223    12744.177    6.0825373 
    8050    1080.2967   -9865.4191   -9744.9104    5022.3722      12752.6    6.0899017 
    8060    1091.8456    -9866.742    -9744.945    780.60488    12762.854    6.1003965 
    8070    1031.5655   -9860.0972   -9745.0245    -1949.042    12773.464    6.1143479 
    8080    1013.3389   -9858.0994     -9745.06   -5894.7954    12783.219    6.1291474 
    8090    1089.7792   -9866.5949   -9745.0284    -10342.67    12790.594    6.1430812 
    8100    1086.7796   -9866.2545   -9745.0226   -10676.794    12794.062    6.1572787 
    8110    1053.2038   -9862.5868   -9745.1003   -10313.433    12793.363    6.1704378 
    8120    1071.9663   -9864.8508   -9745.2713   -10043.711    12788.637    6.1803488 
    8130    1031.6523   -9860.5822   -9745.4999   -5936.1384    12780.193    6.1870953 
    8140    1036.2795   -9861.3255   -9745.7269    -1383.199     12769.53    6.1912172 
    8150    1088.2198   -9867.3571   -9745.9646    762.51509    12758.315    6.1941527 
    8160     1084.236   -9867.2472   -9746.2991    3953.4644    12747.517    6.1972805 
    8170     1072.129     -9866.38   -9746.7824    7370.8417    12738.341     6.202072 
    8180    1065.1414   -9866.2409   -9747.4228    8840.7013    12732.022    6.2109047 
    8190    1040.6367   -9864.2757   -9748.1911    8606.7738    12729.105    6.2245167 
    8200     1050.271   -9866.2338   -9749.0745    7898.7832    12729.529     6.240587 
    8210    1046.6361   -9866.8079    -9750.054    7826.2614    12733.027    6.2561358 
    8220    1034.3161   -9866.4482   -9751.0687    6671.4724    12739.503    6.2693074 
    8230    1038.4144    -9867.906   -9752.0694    3816.1828    12748.503    6.2796625 
    8240    1029.4513   -9867.8304   -9752.9936    814.25254    12758.961    6.2877755 
    8250    1026.1257   -9868.2682   -9753.8023   -2206.3989    12769.693    6.2950009 
    8260    1030.7402   -9869.4501   -9754.4695     -4109.87    12779.566    6.3039766 
    8270    1039.2639   -9870.9752   -9755.0437   -5181.4571     12787.83    6.3147493 
    8280     1037.535   -9871.2853   -9755.5468    -6814.617    12794.016     6.324017 
    8290    1015.0397   -9869.1916   -9755.9623   -8008.5341    12797.535    6.3293458 
    8300    986.18668   -9866.2518   -9756.2412   -8390.6524    12797.941     6.330831 
    8310    1019.9132   -9870.1885   -9756.4156    -8099.039    12795.092    6.3300093 
    8320    1025.4146   -9870.9076    -9756.521   -6503.8607    12789.136    6.3294616 
    8330    1020.2788   -9870.4004   -9756.5867   -3130.2859    12780.754    6.3291892 
    8340    1017.1088   -9870.0409   -9756.5808    1052.8626    12771.244    6.3266418 
    8350    1031.9705   -9871.6023   -9756.4844    2390.1026    12762.086    6.3209038 
    8360    1070.6204   -9875.7897   -9756.3604    1161.9875    12753.802    6.3142994 
    8370    1031.8034   -9871.3512    -9756.252    2622.4251    12746.114    6.3101942 
    8380    1006.4722   -9868.4076   -9756.1341    5555.2111     12739.54     6.310225 
    8390    1008.7889   -9868.4823   -9755.9504    6830.2576      12735.1    6.3143919 
    8400    992.85004   -9866.4413   -9755.6874     7419.039    12733.324    6.3209617 
    8410    994.62252   -9866.2571   -9755.3055    6144.3752    12734.359    6.3283123 
    8420    1034.6546   -9870.1968   -9754.7795    3260.8834    12737.703    6.3361479 
    8430    1032.2891      -9869.3   -9754.1466    1780.6264    12742.351    6.3448722 
    8440    1028.8088   -9868.2341   -9753.4689     409.6688     12747.65    6.3547629 
    8450    1037.3577    -9868.447   -9752.7282   -182.47559    12753.114    6.3662696 
    8460    1028.5898   -9866.6815   -9751.9408   -1078.6815    12758.478    6.3794616 
    8470    1039.9029   -9867.1268    -9751.124   -3311.6551    12763.364     6.393547 
[...]
   22890    1089.6443   -9960.9732   -9839.4217   -405.80167    11427.781     9.539483 
   22900    1069.7751   -9958.4073   -9839.0723   -2100.5823    11432.616    9.5693295 
   22910    1057.9856   -9956.7489    -9838.729   -3569.7775    11436.833    9.5985243 
   22920    1061.5437   -9956.8197   -9838.4029   -3654.5376    11439.976    9.6269861 
   22930    1090.3194   -9959.7609   -9838.1341   -4518.7623    11441.952    9.6524825 
   22940    1099.5178   -9960.6253   -9837.9724   -5706.3659    11442.511    9.6714659 
   22950    1077.4788    -9958.142   -9837.9476   -6280.9372    11441.304    9.6800778 
   22960    1101.8198   -9960.9731   -9838.0634   -7612.2205    11438.079    9.6771046 
   22970    1093.7279   -9960.3215   -9838.3145   -6488.3499    11432.509    9.6676876 
   22980    1027.7833   -9953.2705   -9838.6198   -1727.1311    11424.995    9.6577226 
   22990    1062.9897   -9957.4765   -9838.8984    1935.4523    11416.882    9.6477115 
   23000    1118.9619   -9964.0666   -9839.2448    4834.9553    11409.313    9.6352563 
   23010      1068.61   -9958.9186   -9839.7135    11070.009     11403.33    9.6169312 
   23020    1047.3322   -9957.0933   -9840.2618    13449.247    11400.669    9.5875699 
   23030    1061.2826   -9959.2519   -9840.8643    9139.0737    11402.007    9.5465083 
   23040     1089.422   -9963.0589   -9841.5323    3608.3186    11406.173    9.4976867 
   23050    1043.3898   -9958.6196   -9842.2279    620.44043    11411.545    9.4478789 
   23060     1048.173   -9959.8461   -9842.9208   -1949.1535    11417.144    9.4053094 
   23070    1094.2714   -9965.7441   -9843.6765   -3640.8653    11422.198    9.3778365 
   23080    1053.8302   -9962.0496   -9844.4933    -1068.859     11426.26    9.3696916 
   23090    1037.4807     -9961.05   -9845.3175    995.05566    11429.992     9.378855 
   23100    1051.6528   -9963.4144   -9846.1009   -508.01003    11433.964    9.3983209 
   23110    1055.7847   -9964.6194    -9846.845   -2656.9922    11437.781    9.4218645 
   23120    1025.0492   -9961.8508    -9847.505   -4443.0759    11440.818    9.4484038 
   23130    1033.0741   -9963.3124   -9848.0714   -6857.1842    11442.458    9.4801836 
   23140    1015.7476    -9961.829   -9848.5208   -7490.0545    11442.021    9.5196461 
   23150    1046.2186   -9965.5855   -9848.8783   -8619.2819     11439.19    9.5663251 
   23160    1027.3426   -9963.7534   -9849.1518   -6124.0609    11433.743    9.6163977 
   23170     972.4263   -9957.7516    -9849.276   -1213.7001    11426.427    9.6607142 
   23180    1025.1816   -9963.6352   -9849.2746    1156.8009     11418.63    9.6924219 
   23190    1062.0259   -9967.6923   -9849.2217    2879.7885    11411.154    9.7108493 
   23200    1068.5981   -9968.4276   -9849.2238    4715.8403    11404.556    9.7150786 
   23210    1034.0024   -9964.6043   -9849.2598    6529.7514    11399.432    9.7051095 
   23220    1031.0437   -9964.3084   -9849.2939    6728.7184    11396.272    9.6830249 
   23230    1050.7027   -9966.5103   -9849.3029    6947.6799    11395.201    9.6547245 
   23240    1063.9948   -9968.0061   -9849.3159     6571.138    11396.281    9.6252028 
   23250    1016.8662   -9962.7509   -9849.3179    7034.0484    11399.458     9.592834 
   23260    1001.8394   -9960.9882   -9849.2315    5337.6455    11404.778    9.5505917 
   23270    1052.2336   -9966.4106   -9849.0324    696.72135    11411.686    9.4995005 
   23280    1027.1092   -9963.3542   -9848.7786   -725.77372    11418.965    9.4518355 
   23290    1007.3086    -9960.877   -9848.5102   -1013.2311    11426.094    9.4193461 
   23300    1014.2766     -9961.32   -9848.1759   -3010.1545    11432.888    9.4073309 
   23310    1024.5338   -9962.0786   -9847.7903   -4887.2174     11438.79    9.4124898 
   23320    1044.0476   -9963.8365   -9847.3714   -7647.6964    11443.163    9.4259571 
   23330    1049.5089   -9964.0016   -9846.9273   -10687.536    11445.147    9.4428117 
   23340    1056.2672   -9964.2821   -9846.4539   -11294.394    11443.839    9.4634144 
   23350    1050.4542   -9963.1203   -9845.9405   -8336.2139    11439.071    9.4887402 
   23360    1026.4048   -9959.8662   -9845.3692   -4005.3534    11431.707    9.5162931 
   23370    1064.5611     -9963.49   -9844.7366   -437.46746     11423.03    9.5416595 
   23380     1054.685   -9961.7115   -9844.0598    3879.0221    11414.216    9.5608771 
   23390    1038.6289   -9959.2314   -9843.3707    6967.8592    11406.557    9.5697633 
   23400    1084.2366   -9963.6276   -9842.6794    8581.8442        11401    9.5663652 
   23410    1053.7347   -9959.5755   -9842.0298    12067.174    11398.156    9.5532987 
   23420     1050.528   -9958.6446   -9841.4566    10834.076    11398.922     9.533556 
   23430    1123.5164   -9966.2423   -9840.9123    4920.4613    11402.932    9.5092819 
   23440    1069.6349   -9959.7544    -9840.435    4427.3648    11408.676    9.4851446 
   23450    1036.1514    -9955.609   -9840.0248    3100.3423    11415.794     9.464396 
   23460    1087.4442   -9960.8969   -9839.5909   -1117.9309    11423.829    9.4503185 
   23470    1070.9928   -9958.6325   -9839.1617   -2627.7945    11431.648    9.4472246 
   23480    1073.9135   -9958.5733   -9838.7767    -4662.502     11438.67    9.4582834 
   23490    1098.5035   -9960.9645   -9838.4247   -7864.5896    11444.211    9.4834053 
   23500    1065.8798   -9957.0283   -9838.1278    -7926.738    11447.421    9.5169745 
   23510    1086.1632    -9959.062   -9837.8988   -8301.1505    11448.144     9.551154 
   23520    1088.2821    -9959.126   -9837.7265   -6920.9553    11446.317    9.5845268 
   23530    1058.0761   -9955.6095   -9837.5795   -3514.7137    11442.381    9.6200644 
   23540    1075.8583   -9957.3765   -9837.3628   -1780.6734    11437.307    9.6589204 
   23550    1104.3518   -9960.3097   -9837.1176   -1931.5402    11431.599    9.6997139 
   23560     1049.326   -9953.9485   -9836.8946    263.54957    11425.341    9.7391747 
   23570    1063.5936    -9955.312   -9836.6666    2213.0914    11419.139    9.7720974 
   23580    1125.1216   -9961.9401   -9836.4311    4019.8567    11413.607    9.7970144 
   23590    1090.4364   -9957.9225   -9836.2827    7850.4018    11409.369    9.8149435 
   23600    1085.0451   -9957.2833   -9836.2449    10582.785    11407.511    9.8239366 
   23610    1098.3033   -9958.8276   -9836.3102    10907.704    11408.883    9.8202923 
   23620    1072.3526   -9956.1095    -9836.487    7946.4185    11413.596    9.7997787 
   23630    1101.0848    -9959.601   -9836.7734    2023.1306    11420.733     9.762071 
   23640     1085.727   -9958.2745     -9837.16   -1412.3169    11428.623    9.7141386 
   23650    1062.6972   -9956.1609   -9837.6155   -3968.5757    11436.157    9.6639949 
   23660    1083.5038   -9958.9766   -9838.1101   -9193.2189     11442.41    9.6152942 
   23670    1074.4411   -9958.5351   -9838.6796   -11946.004    11445.871     9.568365 
   23680    1083.8459   -9960.2379   -9839.3333   -11671.986    11445.667    9.5233041 
   23690     1114.358    -9964.433   -9840.1246   -9535.4379    11441.835    9.4834356 
   23700    1041.2813   -9957.1266   -9840.9701   -3327.5778    11435.132    9.4545849 
   23710     1018.039   -9955.2932   -9841.7294   -312.36023    11427.272    9.4385703 
   23720    1076.2268   -9962.5047     -9842.45   -377.20345    11419.191    9.4377834 
   23730    1067.4857   -9962.2646   -9843.1849    2082.0451    11411.044    9.4551074 
   23740    1058.6837   -9962.0105   -9843.9127    4902.2485    11403.537    9.4861205 
   23750    1093.8385   -9966.6988   -9844.6795    6088.9334    11397.478     9.522429 
   23760    1058.5691   -9963.5644   -9845.4794    9340.9274    11393.383    9.5562302 
   23770    1047.9251   -9963.1521   -9846.2545    10356.058    11392.103    9.5797147 
   23780    1053.2501    -9964.503   -9847.0114    9852.5361    11394.013    9.5931725 
   23790    985.89009   -9957.6526   -9847.6751     10728.48    11399.073    9.6019008 
   23800    1010.6676   -9960.9349   -9848.1934    8628.6829    11407.408    9.6077861 
   23810    1050.7109   -9965.8135   -9848.6051    5750.5835    11418.468     9.612368 
   23820    1017.0996   -9962.3862   -9848.9272    2978.0604    11431.402     9.615139 
   23830    1054.8867   -9966.8492    -9849.175   -4515.7018    11445.173    9.6125085 
   23840    1030.8978   -9964.3599   -9849.3617   -10210.065    11457.668    9.6051419 
   23850    997.95459   -9960.8294   -9849.5061   -13136.764    11467.093    9.5958807 
   23860    1017.0215   -9963.0462   -9849.5959    -16058.47    11472.409    9.5860555 
   23870    1011.1043   -9962.4363   -9849.6461   -17863.229    11472.728    9.5771464 
   23880    1028.8958   -9964.4691   -9849.6942   -18379.497    11467.455    9.5729088 
   23890    1032.9389   -9964.9903   -9849.7644   -15714.155    11456.454    9.5761534 
   23900     1001.077   -9961.4704   -9849.7987   -8566.6674    11440.597    9.5856304 
   23910    1039.9673   -9965.6988   -9849.6889    -1393.026    11421.996    9.5979427 
   23920    1057.9224   -9967.4343   -9849.4214    6301.3548    11402.949    9.6107892 
   23930    1021.3282   -9962.9712   -9849.0405    13904.096    11385.863    9.6199983 
   23940    1054.4192   -9966.2222   -9848.6002    17355.717    11372.976    9.6198947 
   23950    1032.2498   -9963.2894   -9848.1404     19121.58    11365.412    9.6068437 
   23960    1006.1107   -9959.9152   -9847.6821    19049.802     11363.71    9.5773937 
   23970     1045.208   -9963.7838   -9847.1893    16208.284    11367.815    9.5337399 
   23980    1049.0487   -9963.6889   -9846.6659    12695.393    11376.923     9.487294 
   23990    1054.2184   -9963.7488   -9846.1491    8801.0446    11389.991     9.449705 
   24000    1058.7976   -9963.7237   -9845.6133    2295.2125    11405.743    9.4285678 
   24010     1051.216   -9962.3016   -9845.0368   -3743.4785    11422.245    9.4247515 
   24020    1027.0339   -9958.9672      -9844.4   -8339.6453    11437.645    9.4310027 
   24030    1071.4467   -9963.2316   -9843.7102    -14149.63    11450.393    9.4393356 
   24040    1071.1398   -9962.5296   -9843.0424   -17326.088    11458.768    9.4501785 
   24050    1029.5743   -9957.3449   -9842.4944   -16200.346    11461.828    9.4673246 
   24060    1051.6553   -9959.3263   -9842.0126   -16160.516    11459.745    9.4940705 
   24070    1075.5722   -9961.5561   -9841.5744    -14884.96    11452.644    9.5351432 
   24080    1056.7291   -9959.0902   -9841.2104   -11311.764    11440.954    9.5917348 
   24090    1060.8455    -9959.199   -9840.8601    -6564.845    11425.775    9.6596056 
   24100    1065.7783   -9959.3492   -9840.4601   -196.83741    11408.656    9.7337494 
   24110    1048.1769   -9956.9225   -9839.9968     5882.317    11391.566    9.8085067 
   24120    1096.1618   -9961.7797   -9839.5012    10063.787    11376.344    9.8764681 
   24130    1080.3657   -9959.5469   -9839.0304    15424.896    11364.402     9.934354 
   24140    1071.3042    -9958.186   -9838.6804    18700.731    11357.252    9.9784954 
   24150     1093.507   -9960.4671   -9838.4848    17939.139    11355.793    10.001226 
   24160    1056.0159   -9956.2605   -9838.4603    18026.406    11359.904    9.9979723 
   24170    1031.7437   -9953.6273   -9838.5347     15735.95     11369.47    9.9694402 
   24180    1112.3539   -9962.7147   -9838.6299    7964.5054    11383.682    9.9218397 
   24190    1114.4693   -9963.0997    -9838.779    2040.7237    11400.348    9.8658484 
   24200    1063.1431   -9957.6278   -9839.0326   -1359.1994    11417.611    9.8059248 
   24210    1075.5434    -9959.304   -9839.3256   -6800.2275    11434.266    9.7399123 
   24220    1076.1257    -9959.675   -9839.6316   -12555.237    11448.659    9.6684353 
   24230    1061.7672   -9958.4302   -9839.9884   -16027.042    11459.039    9.5972419 
   24240    1040.0496   -9956.4335   -9840.4144   -16051.341    11464.402    9.5339271 
   24250    1042.2814   -9957.1776   -9840.9095   -14987.671    11464.716    9.4845299 
   24260    1065.6023   -9960.3818   -9841.5122   -13575.185    11460.348    9.4539262 
   24270    1054.3185   -9959.8859    -9842.275   -10196.691    11451.859    9.4439171 
   24280    1048.5134   -9960.1732   -9843.2099   -6207.1832    11440.313    9.4479172 
   24290    1055.9366   -9962.0787   -9844.2874   -1289.7653    11427.027    9.4573447 
   24300    1063.3048   -9964.1111   -9845.4978    3139.2796    11413.526    9.4692166 
   24310    1064.9999   -9965.6395   -9846.8372    7559.7126    11401.191    9.4855636 
   24320    1003.3384   -9960.0546   -9848.1307    12807.497    11391.399    9.5051521 
   24330    1007.1284   -9961.5723   -9849.2256    13513.221    11385.563    9.5205588 
   24340    1058.0686    -9968.218   -9850.1888    10465.321    11383.848    9.5279207 
   24350    1034.0605   -9966.3637   -9851.0127     9445.926    11385.425    9.5297578 
   24360    1006.6349   -9963.9438   -9851.6522     9991.257    11389.931    9.5301533 
   24370    1024.3942   -9966.3867    -9852.114    8411.3691    11397.411    9.5293486 
   24380     1055.551   -9970.2052   -9852.4569    4377.8364    11407.334     9.522741 
   24390    1040.3087   -9968.7736   -9852.7256    1340.7019    11418.545    9.5079729 
   24400    993.29767   -9963.7084   -9852.9046   -1262.5333    11430.035     9.486732 
   24410     981.2517   -9962.4107   -9852.9506    -4183.613     11440.97    9.4633904 
   24420    1003.7518   -9964.8048   -9852.8348   -7203.0267    11450.445      9.44411 
   24430    1026.9839   -9967.1679   -9852.6063   -9217.0137    11457.546    9.4341303 
   24440    1018.7492   -9965.9606   -9852.3176   -9829.3475    11461.727    9.4341332 
   24450    1038.1978   -9967.8028   -9851.9903   -11900.846    11462.737    9.4404287 
   24460    1030.7236   -9966.6272   -9851.6485   -11401.587    11460.088    9.4502269 
   24470    986.64713    -9961.358    -9851.296   -7727.2403     11454.03    9.4632397 
   24480    1023.4796   -9965.0565   -9850.8858   -6420.1815    11445.612    9.4807763 
   24490    1049.6835   -9967.5098    -9850.416   -4202.9439    11435.372    9.5039887 
   24500     1035.524   -9965.4537   -9849.9394    2250.8686    11424.147     9.531018 
   24510    1017.1547   -9962.9032   -9849.4381    6927.8624    11413.758    9.5578555 
   24520    1023.3095   -9963.0399   -9848.8882    8223.9604    11405.584    9.5800905 
   24530    1052.1071   -9965.6789   -9848.3147     8986.889    11400.083    9.5955782 
   24540    1034.9215   -9963.1884   -9847.7413    10130.182    11397.463    9.6051041 
   24550    1021.5225   -9961.1231   -9847.1707    10005.565    11397.975    9.6092927 
   24560    1048.8249   -9963.5719   -9846.5739    7537.0018    11401.499     9.609005 
   24570    1055.0673   -9963.6452   -9845.9508    4053.2491    11407.271    9.6064459 
   24580    1068.1702   -9964.4954   -9845.3394   -287.61558    11414.182    9.6057159 
   24590    1069.0326   -9964.0174   -9844.7653   -5658.7605    11420.839    9.6118155 
   24600    1037.6421   -9960.0131   -9844.2625   -7758.9237    11425.733    9.6262899 
   24610     1016.572   -9957.1908   -9843.7907   -7426.8185    11428.213    9.6449393 
   24620    1062.3438   -9961.8359   -9843.3299    -7123.801    11428.362    9.6619004 
   24630    1081.8175     -9963.61   -9842.9317   -4987.5311    11426.371     9.673784 
   24640    1059.5581   -9960.8543    -9842.659   -2409.0078    11422.875    9.6771655 
   24650    1032.5548   -9957.6262   -9842.4432   -40.273708    11418.705    9.6698924 
   24660    1071.6724   -9961.7707    -9842.224    182.68409    11414.541    9.6540434 
   24670    1086.1166   -9963.1498   -9841.9919   -433.82633      11410.5    9.6349393 
   24680     1079.558   -9962.2213   -9841.7949    956.35221     11406.46    9.6187585 
   24690    1042.1451    -9957.858   -9841.6052    5169.5119    11402.883    9.6093141 
   24700     1068.325    -9960.599   -9841.4257    7695.3141    11400.923    9.6032577 
   24710    1090.5983   -9962.9385   -9841.2806    8251.5318    11401.311    9.5944692 
   24720     1071.212   -9960.7426   -9841.2473    9286.3411    11404.259    9.5789847 
   24730    1045.0804    -9957.898   -9841.3177    9267.3541     11409.99    9.5566318 
   24740    1051.8722   -9958.7758   -9841.4379    7285.2373    11418.428    9.5333859 
   24750    1092.3816   -9963.4527   -9841.5959    1586.2912     11428.87    9.5172252 
   24760    1086.3804   -9962.9936   -9841.8063   -3891.7026    11439.637    9.5119311 
   24770    1034.5464   -9957.4445   -9842.0393   -7362.2265    11449.055     9.515799 
   24780    1071.8438   -9961.8239   -9842.2581   -12666.134     11455.94     9.524861 
   24790    1084.5728   -9963.5189   -9842.5331   -15630.371    11458.814    9.5393702 
   24800    1031.8871   -9958.0253   -9842.9168    -13810.05    11456.904    9.5615994 
   24810    1035.7935   -9958.9132   -9843.3689   -10508.455    11450.779    9.5910306 
   24820    1058.2427   -9961.9271   -9843.8786   -5632.4926    11441.573    9.6217874 
   24830    1040.9226   -9960.5718   -9844.4553    845.36028    11430.853    9.6434255 
   24840    1029.8621   -9959.9588   -9845.0762    4934.3245    11420.543    9.6502211 
   24850    1066.1975   -9964.7561   -9845.8202      5659.87    11411.892    9.6469475 
   24860    1044.8709   -9963.2783   -9846.7213    6928.8576     11405.22    9.6425593 
   24870    1038.5579   -9963.5998   -9847.7471    7125.1587    11400.779    9.6388209 
   24880     1048.827   -9965.8634   -9848.8652    7393.8937    11398.616    9.6312549 
   24890     1041.556    -9966.222   -9850.0349    6468.5296    11398.733    9.6136195 
   24900    1021.0712   -9965.0604   -9851.1584    4919.6816    11400.844    9.5852775 
   24910    1009.9416   -9964.8045    -9852.144    2795.9318    11404.417    9.5533831 
   24920    1001.4954   -9964.6633    -9852.945    849.14722    11408.792    9.5248659 
   24930    1029.5465   -9968.4253   -9853.5779    180.89729    11413.387    9.5016429 
   24940    1039.6912   -9970.0648   -9854.0857    318.76054    11417.962    9.4823553 
   24950     1018.554    -9968.117   -9854.4957    509.29141     11422.57    9.4636096 
   24960    985.86961   -9964.7413   -9854.7661   -2036.3823    11427.187    9.4445959 
   24970     997.0874   -9966.1125   -9854.8859   -5961.0958    11431.069    9.4287523 
   24980     994.7692   -9965.8504   -9854.8824   -6922.2608    11433.142    9.4206767 
   24990    1017.4238   -9968.2703   -9854.7752   -7021.5982    11433.047    9.4227032 
   25000    1066.9384   -9973.6482   -9854.6296    -6419.577    11430.796    9.4367486 
Loop time of 17769.4 on 16 procs for 20000 steps with 864 atoms

Performance: 0.097 ns/day, 246.797 hours/ns, 1.126 timesteps/s
96.0% CPU use with 16 MPI tasks x 1 OpenMP threads

MPI task timing breakdown:
Section |  min time  |  avg time  |  max time  |%varavg| %total
---------------------------------------------------------------
Pair    | 12476      | 15558      | 17296      |1118.7 | 87.56
Bond    | 0.0014892  | 0.004892   | 0.012203   |   4.4 |  0.00
Neigh   | 0.34927    | 0.40386    | 0.45489    |   5.5 |  0.00
Comm    | 444.68     | 2149.1     | 5112.7     |2916.8 | 12.09
Output  | 1.1671     | 1.1883     | 1.4918     |   7.2 |  0.01
Modify  | 2.3809     | 60.52      | 178.72     | 890.1 |  0.34
Other   |            | 0.09357    |            |       |  0.00

Nlocal:        54.0000 ave          58 max          52 min
Histogram: 2 4 0 6 0 2 1 0 0 1
Nghost:        709.188 ave         725 max         695 min
Histogram: 2 1 2 1 1 3 3 1 1 1
Neighs:         0.00000 ave           0 max           0 min
Histogram: 16 0 0 0 0 0 0 0 0 0
FullNghs:      3573.12 ave        3792 max        3330 min
Histogram: 1 1 1 1 1 5 2 3 0 1

Total # of neighbors = 57170
Ave neighs/atom = 66.168981
Ave special neighs/atom = 0.0000000
Neighbor list builds = 2000
Dangerous builds = 2000
unfix   3
                
Total wall time: 6:06:24
