LAMMPS (2 Aug 2023)
OMP_NUM_THREADS environment is not set. Defaulting to 1 thread. (src/comm.cpp:98)
  using 1 OpenMP thread(s) per MPI task
units          metal
atom_style     full

read_data      initial-solid.data
Reading data file ...
  orthogonal box = (0 0 0) to (22.735975 22.735975 68.207924)
  1 by 1 by 1 MPI processor grid
  reading atoms ...
  1536 atoms
Finding 1-2 1-3 1-4 neighbors ...
  special bond factors lj:    0        0        0       
  special bond factors coul:  0        0        0       
     0 = max # of 1-2 neighbors
     0 = max # of 1-3 neighbors
     0 = max # of 1-4 neighbors
     1 = max # of special neighbors
  special bonds CPU = 0.000 seconds
  read_data CPU = 0.044 seconds
velocity       all create 300.0 1312343 dist gaussian

pair_style     chgnet/gpu /ocean/projects/cts180021p/wuziqi/clease/lammps-ASC/potentials/CHGNET
pair_coeff     * * MPtrj-efsm Cl K Li

variable myZlo equal zlo
variable myZhi equal zhi
variable myMid equal (${myZlo}+${myZhi})/2
variable myMid equal (0+${myZhi})/2
variable myMid equal (0+68.2079236686237)/2

region   solid block INF INF INF INF ${myZlo} ${myMid}
region   solid block INF INF INF INF 0 ${myMid}
region   solid block INF INF INF INF 0 34.1039618343119
region   liquid block INF INF INF INF ${myMid} ${myZhi}
region   liquid block INF INF INF INF 34.1039618343119 ${myZhi}
region   liquid block INF INF INF INF 34.1039618343119 68.2079236686237
group    gSolid region solid
832 atoms in group gSolid
group    gLiquid region liquid
704 atoms in group gLiquid

neighbor        0.3 bin
neigh_modify    delay 10

timestep        0.0005
compute msd all msd
thermo_style    custom step temp pe etotal press vol c_msd[4]
thermo          10
dump            1 all custom 10 xyz-npt.dump type id x y z
#dump           2 all custom 10 force-npt.dump type id fx fy fz

fix             1 all npt temp 300.0 300.0 $(100.0*dt) aniso 1.01325 1.01325 $(1000.0*dt)
fix             1 all npt temp 300.0 300.0 0.050000000000000002776 aniso 1.01325 1.01325 $(1000.0*dt)
fix             1 all npt temp 300.0 300.0 0.050000000000000002776 aniso 1.01325 1.01325 0.5
run             10000
Neighbor list info ...
  update: every = 1 steps, delay = 10 steps, check = yes
  max neighbors/atom: 2000, page size: 100000
  master list distance cutoff = 6.3
  ghost atom cutoff = 6.3
  binsize = 3.15, bins = 8 8 22
  1 neighbor lists, perpetual/occasional/extra = 1 0 0
  (1) pair chgnet/gpu, perpetual
      attributes: full, newton on
      pair build: full/bin
      stencil: full/bin/3d
      bin: standard
Per MPI rank memory allocation (min/avg/max) = 6.608 | 6.608 | 6.608 Mbytes
   Step          Temp          PotEng         TotEng         Press          Volume        c_msd[4]   
         0   300           -5637.0315     -5577.5072      36561.863      35258.349      0            
        10   308.40241     -5641.1162     -5579.9248      35581.404      35365.319      0.0015573263 
        20   332.28839     -5652.5409     -5586.6101      32083.174      35679.814      0.011959072  
        30   367.17753     -5668.645      -5595.7917      26969.288      36167.834      0.045004287  
        40   408.65382     -5686.2697     -5605.1869      21664.549      36749.965      0.11106686   
        50   451.7069      -5702.9637     -5613.3386      17101.858      37325.325      0.20511716   
        60   492.47125     -5717.6646     -5619.9512      13470.567      37831.296      0.31242549   
        70   529.09459     -5730.186      -5625.2061      10772.382      38263.64       0.42346234   
        80   557.99949     -5740.4626     -5629.7476      8836.6368      38644.965      0.53669481   
        90   575.05993     -5748.3728     -5634.2727      7502.3877      38995.578      0.65325514   
       100   579.08737     -5753.863      -5638.9638      6630.0516      39326.471      0.77367523   
       110   571.49132     -5757.074      -5643.6819      6081.6229      39642.17       0.89748665   
       120   553.6047      -5758.1561     -5648.313       5767.8889      39944.192      1.0236763    
       130   526.80132     -5757.2992     -5652.7743      5594.8179      40233.208      1.1511141    
       140   494.32523     -5755.0404     -5656.9592      5387.2293      40509.802      1.2787573    
       150   460.67148     -5752.1906     -5660.7867      5094.077       40774.173      1.4055254    
       160   429.07716     -5749.348      -5664.213       4646.3349      41026.024      1.5302945    
       170   401.34533     -5746.8545     -5667.2218      3976.1837      41264.293      1.6516131    
       180   378.52158     -5744.922      -5669.8179      3140.0489      41486.946      1.7674677    
       190   360.62618     -5743.5864     -5672.033       2177.9384      41691.322      1.8755086    
       200   347.21546     -5742.8075     -5673.915       1181.6702      41874.505      1.9733357    
       210   338.17777     -5742.6218     -5675.5225      191.157        42033.766      2.058761     
       220   333.94939     -5743.1891     -5676.9287     -751.28957      42166.774      2.1299331    
       230   334.79411     -5744.6407     -5678.2128     -1623.638       42271.664      2.1854197    
       240   339.83618     -5746.8885     -5679.4602     -2360.609       42347.076      2.2244139    
       250   346.8795      -5749.5747     -5680.7488     -2910.3102      42392.481      2.2470128    
       260   354.11134     -5752.3971     -5682.1363     -3284.7502      42408.414      2.2541919    
       270   360.27563     -5755.1385     -5683.6547     -3454.1501      42396.385      2.2475173    
       280   364.66847     -5757.6606     -5685.3052     -3433.7168      42358.908      2.2289874    
       290   366.73882     -5759.8301     -5687.0638     -3231.6073      42299.486      2.2008834    
       300   366.45813     -5761.6        -5688.8894     -2877.0641      42222.472      2.1656837    
       310   364.38029     -5763.0297     -5690.7314     -2403.856       42132.794      2.1259866    
       320   360.8487      -5764.1433     -5692.5458     -1844.6105      42035.706      2.0844891    
       330   356.39227     -5765.0109     -5694.2975     -1224.8774      41936.457      2.0438272    
       340   351.49608     -5765.7081     -5695.9663     -562.11515      41840.081      2.0063833    
       350   346.62286     -5766.3182     -5697.5433      88.605636      41751.237      1.974212     
       360   342.01429     -5766.8936     -5699.033       692.65901      41673.864      1.9489393    
       370   337.44217     -5767.3997     -5700.4463      1261.7275      41611.113      1.931777     
       380   332.93581     -5767.8582     -5701.7989      1732.6365      41565.385      1.9235448    
       390   329.4653      -5768.4756     -5703.105       2109.8588      41538.173      1.9245904    
       400   327.63689     -5769.3929     -5704.3851      2362.0256      41530.138      1.9348702    
       410   327.24671     -5770.5864     -5705.656       2516.2882      41541.093      1.9540585    
       420   328.22712     -5772.0597     -5706.9347      2558.0873      41570.177      1.9816403    
       430   329.69812     -5773.6487     -5708.2319      2514.2058      41615.942      2.0169223    
       440   330.08434     -5775.0396     -5709.5461      2419.3293      41676.458      2.059045     
       450   328.57004     -5776.0638     -5710.8708      2316.9694      41749.662      2.1069851    
       460   325.69069     -5776.8098     -5712.1881      2186.0561      41833.597      2.1596549    
       470   322.5895      -5777.4873     -5713.4809      2009.6352      41926.26       2.2159311    
       480   319.80328     -5778.1912     -5714.7376      1816.5072      42025.482      2.2746532    
       490   317.01534     -5778.8492     -5715.9489      1614.1319      42129.071      2.3348235    
       500   313.84787     -5779.3839     -5717.112       1421.7872      42234.985      2.3956688    
       510   310.05613     -5779.734      -5718.2144      1219.7668      42341.402      2.4565452    
       520   305.81646     -5779.9288     -5719.2505      1032.4173      42446.644      2.5169225    
       530   301.32909     -5780.0013     -5720.2133      878.36128      42549.32       2.5764499    
       540   297.09078     -5780.0468     -5721.0997      706.85745      42648.373      2.6349503    
       550   293.58963     -5780.1566     -5721.9042      558.18832      42742.821      2.6922684    
       560   290.71558     -5780.3141     -5722.632       417.61456      42831.94       2.7483327    
       570   288.11396     -5780.4434     -5723.2774      275.9254       42915.169      2.8031332    
       580   285.5725      -5780.5104     -5723.8487      160.30212      42992.034      2.856604     
       590   283.06976     -5780.5052     -5724.3402      43.884582      43062.261      2.9086688    
       600   281.05576     -5780.5173     -5724.7518     -58.268293      43125.643      2.9591861    
       610   280.2887      -5780.6942     -5725.0809     -160.56678      43182.068      3.0078842    
       620   281.21167     -5781.1322     -5725.3358     -242.93955      43231.472      3.0542791    
       630   283.19132     -5781.7079     -5725.5187     -313.81033      43273.915      3.0978061    
       640   285.08487     -5782.2048     -5725.6399     -373.65702      43309.532      3.1378687    
       650   286.56784     -5782.563      -5725.7038     -407.74068      43338.57       3.1740638    
       660   287.74522     -5782.8105     -5725.7178     -423.83716      43361.394      3.2061933    
       670   288.75386     -5782.9775     -5725.6846     -412.65786      43378.478      3.2342524    
       680   289.55178     -5783.0618     -5725.6105     -372.22473      43390.519      3.2584533    
       690   290.23922     -5783.083      -5725.4954     -322.48243      43398.321      3.2790652    
       700   290.84965     -5783.0533     -5725.3446     -220.60978      43402.729      3.2964634    
       710   291.16897     -5782.9299     -5725.1578     -89.270378      43404.893      3.3112252    
       720   291.30959     -5782.7369     -5724.9369      33.936544      43406.1        3.3240216    
       730   291.85106     -5782.5938     -5724.6863      134.94533      43407.475      3.3353838    
       740   292.90283     -5782.5201     -5724.404       237.67193      43409.884      3.345917     
       750   293.80088     -5782.3905     -5724.0962      349.59788      43414.131      3.3563393    
       760   294.69138     -5782.2374     -5723.7664      459.57609      43421.005      3.3672933    
       770   296.13864     -5782.1796     -5723.4214      574.24884      43431.235      3.3793845    
       780   298.4168      -5782.2715     -5723.0613      673.4924       43445.53       3.3933094    
       790   301.33496     -5782.4868     -5722.6976      754.62803      43464.446      3.4096477    
       800   304.9251      -5782.8457     -5722.3442      799.28786      43488.323      3.4287019    
       810   309.15064     -5783.3522     -5722.0123      829.75048      43517.228      3.4505077    
       820   313.21132     -5783.863      -5721.7174      832.09676      43551.041      3.4748452    
       830   315.47964     -5784.0736     -5721.4779      806.60423      43589.437      3.5015115    
       840   314.77879     -5783.7623     -5721.3057      790.29799      43631.926      3.5302901    
       850   311.64826     -5783.0295     -5721.1941      758.6195       43678.084      3.5610321    
       860   307.68093     -5782.1796     -5721.1313      698.91079      43727.388      3.5935352    
       870   304.26641     -5781.4706     -5721.0998      605.50619      43779.13       3.627609     
       880   302.11279     -5781.0242     -5721.0807      450.94282      43832.326      3.6629522    
       890   301.2054      -5780.829      -5721.0655      279.32437      43885.584      3.6988759    
       900   300.88833     -5780.7499     -5721.0493      121.40461      43937.444      3.7345588    
       910   300.69113     -5780.6946     -5721.0332     -38.494906      43986.608      3.7692855    
       920   300.2113      -5780.5822     -5721.0159     -159.0011       44031.909      3.8023712    
       930   299.23597     -5780.3683     -5720.9956     -256.01606      44072.562      3.8332795    
       940   297.76002     -5780.0511     -5720.9713     -326.78361      44108.067      3.8615224    
       950   296.67723     -5779.8029     -5720.9378     -355.29047      44138.194      3.8866738    
       960   296.91261     -5779.8054     -5720.8937     -369.98327      44163.05       3.9085521    
       970   298.61485     -5780.0859     -5720.8365     -383.03759      44182.87       3.9271627    
       980   301.63063     -5780.6257     -5720.7779     -399.13094      44197.897      3.9425821    
       990   305.36841     -5781.3138     -5720.7244     -409.80239      44208.346      3.9550159    
      1000   308.74648     -5781.9529     -5720.6932     -416.45545      44214.434      3.9647563    
      1010   311.54533     -5782.5143     -5720.6992     -399.23296      44216.417      3.9721812    
      1020   314.31391     -5783.1189     -5720.7545     -367.105        44214.713      3.9777782    
      1030   317.16416     -5783.8011     -5720.8712     -312.37247      44209.858      3.9821733    
      1040   319.07376     -5784.3717     -5721.0629     -241.09284      44202.542      3.9860632    
      1050   318.62571     -5784.5519     -5721.332      -158.78978      44193.561      3.9899954    
      1060   315.46774     -5784.2699     -5721.6766     -59.635096      44183.73       3.9943021    
      1070   309.91577     -5783.5668     -5722.075       54.685549      44173.997      3.9992179    
      1080   302.83567     -5782.5839     -5722.4969      162.18349      44165.373      4.0049258    
      1090   296.30936     -5781.7064     -5722.9144      218.5439       44158.685      4.0114691    
      1100   292.24792     -5781.2911     -5723.305       218.82721      44154.294      4.0186715    
      1110   290.52904     -5781.3021     -5723.657       171.41345      44152.061      4.0261766    
      1120   290.19373     -5781.5482     -5723.9696      117.53368      44151.475      4.0336405    
      1130   290.56175     -5781.8947     -5724.243       53.433564      44151.951      4.0409512    
      1140   291.38798     -5782.2938     -5724.4783      11.925962      44152.894      4.0480414    
      1150   292.67875     -5782.7531     -5724.6814     -25.938874      44153.871      4.0548769    
      1160   294.23677     -5783.2386     -5724.8579     -50.321684      44154.568      4.0614694    
      1170   295.80746     -5783.7037     -5725.0113     -60.201951      44154.798      4.0678271    
      1180   297.34044     -5784.1479     -5725.1513     -54.942098      44154.493      4.0738808    
      1190   299.1711      -5784.6405     -5725.2807     -28.999217      44153.725      4.0797085    
      1200   301.62865     -5785.2565     -5725.409      -20.294057      44152.729      4.0855477    
      1210   304.23317     -5785.9098     -5725.5456     -3.7353823      44151.61       4.0916555    
      1220   306.31326     -5786.4785     -5725.7016      48.002857      44150.528      4.0983872    
      1230   307.48417     -5786.8923     -5725.8831      101.26748      44149.906      4.1062723    
      1240   307.65428     -5787.1388     -5726.0958      137.15364      44150.193      4.1159334    
      1250   306.70469     -5787.1919     -5726.3373      178.45256      44151.693      4.1279779    
      1260   304.38936     -5787.0018     -5726.6066      228.12347      44154.72       4.1429087    
      1270   300.89926     -5786.5924     -5726.8897      261.10521      44159.627      4.1611026    
      1280   297.46743     -5786.1951     -5727.1733      283.60639      44166.607      4.1826028    
      1290   295.5952      -5786.0936     -5727.4433      282.03103      44175.749      4.2071388    
      1300   295.4473      -5786.3174     -5727.6964      264.72983      44186.952      4.2340872    
      1310   295.93835     -5786.6481     -5727.9297      218.80267      44199.925      4.2626292    
      1320   296.11469     -5786.8982     -5728.1448      178.2416       44214.212      4.2917799    
      1330   295.85158     -5787.0469     -5728.3457      139.32619      44229.396      4.320563     
      1340   295.8124      -5787.2194     -5728.5259      94.141944      44245.072      4.3482967    
      1350   296.2423      -5787.4731     -5728.6944      27.593481      44260.795      4.3745455    
      1360   296.47657     -5787.6702     -5728.845      -20.69647       44276.042      4.398912     
      1370   295.88787     -5787.6899     -5728.9816     -45.937728      44290.395      4.4211548    
      1380   294.72893     -5787.5797     -5729.1013     -72.120163      44303.634      4.4413485    
      1390   293.50996     -5787.4376     -5729.201      -131.8492       44315.543      4.4596074    
      1400   292.88163     -5787.3864     -5729.2744     -189.47129      44325.679      4.475806     
      1410   293.03906     -5787.4644     -5729.3212     -225.99842      44333.63       4.4897895    
      1420   293.69206     -5787.6116     -5729.3389     -271.39075      44339.126      4.5015535    
      1430   294.35921     -5787.7368     -5729.3317     -277.97641      44341.946      4.5112311    
      1440   295.42742     -5787.9196     -5729.3025     -266.29443      44342.144      4.5191735    
      1450   297.05518     -5788.1964     -5729.2564     -238.36364      44339.928      4.5259169    
      1460   298.59915     -5788.4418     -5729.1954     -194.12615      44335.656      4.532107     
      1470   299.12821     -5788.4813     -5729.13       -106.88995      44329.852      4.5383489    
      1480   298.20977     -5788.2294     -5729.0603      7.8638004      44323.374      4.5452869    
      1490   296.52344     -5787.817      -5728.9825      143.8842       44317.305      4.5536152    
      1500   295.47388     -5787.5182     -5728.8919      271.18365      44312.816      4.5641702    
      1510   295.61485     -5787.4398     -5728.7856      377.14144      44310.952      4.5776757    
      1520   296.93673     -5787.5786     -5728.6621      440.21324      44312.536      4.5945151    
      1530   298.87482     -5787.8298     -5728.5288      444.35022      44317.978      4.614732     
      1540   300.7433      -5788.0616     -5728.3899      411.62032      44327.192      4.6377645    
      1550   302.14664     -5788.2026     -5728.2524      350.16001      44339.723      4.6624237    
      1560   302.93911     -5788.2279     -5728.1204      270.13267      44354.854      4.687134     
      1570   302.85344     -5788.0913     -5728.0008      184.08777      44371.774      4.7101417    
      1580   301.84497     -5787.7826     -5727.8922      117.46107      44389.684      4.7298156    
      1590   300.38254     -5787.3907     -5727.7905      70.817131      44407.93       4.7449222    
      1600   299.04991     -5787.0282     -5727.6924      24.045653      44426.031      4.754795     
      1610   298.86123     -5786.8912     -5727.5929     -34.413318      44443.583      4.7592394    
      1620   300.145       -5787.0428     -5727.4898     -61.781898      44460.136      4.7584498    
      1630   301.94584     -5787.2959     -5727.3855     -87.061645      44475.439      4.7530385    
      1640   303.31603     -5787.4698     -5727.2876     -112.6252       44489.339      4.7438698    
      1650   304.16956     -5787.5541     -5727.2025     -147.2669       44501.643      4.7318465    
      1660   304.57587     -5787.561      -5727.1288     -153.92727      44512.131      4.7178702    
      1670   304.39497     -5787.4698     -5727.0735     -128.22726      44520.789      4.7030854    
      1680   303.90911     -5787.3344     -5727.0344     -45.560844      44527.98       4.6888456    
      1690   303.82837     -5787.2941     -5727.0102      23.1686        44534.438      4.6766497    
      1700   304.32252     -5787.3812     -5726.9993      73.865285      44540.824      4.6678424    
      1710   304.68456     -5787.46       -5727.0062      121.2375       44547.641      4.6634892    
      1720   304.42925     -5787.4347     -5727.0316      140.19357      44555.269      4.6643019    
      1730   303.44577     -5787.286      -5727.078       150.1582       44563.858      4.6704288    
      1740   302.191       -5787.0985     -5727.1395      139.74516      44573.452      4.6815099    
      1750   300.7354      -5786.8817     -5727.2115      110.20289      44583.924      4.6966281    
      1760   299.45127     -5786.7023     -5727.2868      76.47079       44595.006      4.7145793    
      1770   298.73194     -5786.6309     -5727.3582      34.033375      44606.345      4.7340485    
      1780   298.59286     -5786.67       -5727.4249      5.4954635      44617.561      4.7536803    
      1790   299.05812     -5786.8206     -5727.4831     -31.973543      44628.383      4.7723087    
      1800   300.13456     -5787.0919     -5727.5409     -75.254372      44638.491      4.7889099    
      1810   301.73853     -5787.4658     -5727.5966     -138.72082      44647.511      4.8027674    
      1820   303.25411     -5787.8295     -5727.6595     -200.72719      44654.922      4.813393     
      1830   304.37702     -5788.129      -5727.7363     -254.25989      44660.209      4.8204675    
      1840   305.17708     -5788.3832     -5727.8317     -299.74942      44662.949      4.823857     
      1850   305.91959     -5788.6487     -5727.9499     -301.17883      44662.861      4.8235574    
      1860   306.2503      -5788.8585     -5728.0941     -303.21706      44659.974      4.8198091    
      1870   305.77742     -5788.9354     -5728.2648     -267.21987      44654.427      4.812992     
      1880   304.28556     -5788.8325     -5728.4579     -191.93816      44646.648      4.8037743    
      1890   301.99075     -5788.5872     -5728.6679     -97.949875      44637.395      4.7930588    
      1900   299.23666     -5788.255      -5728.8822      17.52659       44627.588      4.7819325    
      1910   296.46621     -5787.913      -5729.0898      137.79676      44618.301      4.7715084    
      1920   294.27857     -5787.6746     -5729.2855      229.57289      44610.592      4.7628491    
      1930   292.78403     -5787.5482     -5729.4557      307.25335      44605.26       4.7568681    
      1940   291.9473      -5787.5237     -5729.5972      356.48089      44602.916      4.7543175    
      1950   291.68169     -5787.583      -5729.7092      363.71176      44603.903      4.755552     
      1960   291.78449     -5787.683      -5729.7888      336.28126      44608.18       4.7605165    
      1970   292.015       -5787.7786     -5729.8386      315.61016      44615.429      4.7688716    
      1980   292.5168      -5787.8939     -5729.8544      266.23925      44625.325      4.780204     
      1990   293.57709     -5788.0931     -5729.8432      196.30287      44637.353      4.7940676    
      2000   295.54516     -5788.4451     -5729.8047      91.046847      44650.78       4.8098658    
      2010   298.24809     -5788.9237     -5729.747      -28.139529      44664.593      4.8266791    
      2020   300.74654     -5789.3522     -5729.6798     -120.32355      44677.713      4.8435505    
      2030   302.12752     -5789.5613     -5729.6149     -168.58997      44689.313      4.8598203    
      2040   302.38806     -5789.5514     -5729.5533     -192.06165      44699.01       4.8752091    
      2050   302.37454     -5789.5005     -5729.505      -191.9515       44706.673      4.8895645    
      2060   302.85001     -5789.5565     -5729.4667     -182.94242      44712.329      4.9026108    
      2070   303.38572     -5789.6342     -5729.4381     -157.71449      44716.119      4.9138951    
      2080   302.93058     -5789.5323     -5729.4266     -101.1442       44718.348      4.9229259    
      2090   301.70515     -5789.2852     -5729.4225     -13.382076      44719.618      4.9293835    
      2100   300.5228      -5789.0577     -5729.4297      49.620418      44720.711      4.9331754    
      2110   299.736       -5788.9109     -5729.439       82.38087       44722.205      4.9341997    
      2120   299.1967      -5788.816      -5729.4511      84.227531      44724.408      4.9323651    
      2130   298.82111     -5788.7509     -5729.4605      62.49802       44727.322      4.9276764    
      2140   298.74624     -5788.745      -5729.4695      24.402849      44730.734      4.9201263    
      2150   299.07765     -5788.8102     -5729.4689     -28.758537      44734.269      4.9096349    
      2160   299.87728     -5788.9698     -5729.4699     -104.97041      44737.401      4.8960801    
      2170   300.84434     -5789.1617     -5729.4699     -172.65161      44739.449      4.8793374    
      2180   301.51707     -5789.2983     -5729.473      -211.54722      44739.847      4.8594386    
      2190   301.95638     -5789.3932     -5729.4807     -221.32733      44738.283      4.8366265    
      2200   302.40832     -5789.4979     -5729.4958     -227.25948      44734.687      4.8113767    
      2210   302.66477     -5789.5734     -5729.5203     -189.52293      44729.116      4.7841764    
      2220   302.6793      -5789.6096     -5729.5537     -120.27044      44721.96       4.755688     
      2230   302.52933     -5789.6243     -5729.5981     -16.874741      44713.93       4.7267813    
      2240   302.20755     -5789.6104     -5729.648       98.273007      44705.99       4.6985554    
      2250   301.63121     -5789.5529     -5729.7049      207.40712      44699.171      4.6721795    
      2260   300.72908     -5789.4346     -5729.7656      283.85439      44694.418      4.6487366    
      2270   299.96203     -5789.3452     -5729.8285      352.37455      44692.423      4.6291355    
      2280   299.81433     -5789.3796     -5729.8922      386.31848      44693.731      4.6141784    
      2290   300.45799     -5789.569      -5729.9538      371.22035      44698.553      4.6043482    
      2300   301.51283     -5789.8462     -5730.0217      349.8491       44706.69       4.5997552    
      2310   302.48924     -5790.1139     -5730.0957      323.23434      44717.854      4.6002191    
      2320   303.46496     -5790.3944     -5730.1826      298.74461      44731.725      4.6053409    
      2330   304.88547     -5790.78       -5730.2864      260.40104      44747.977      4.6146933    
      2340   306.70941     -5791.2667     -5730.4112      201.88635      44766.184      4.6277459    
      2350   308.29665     -5791.7355     -5730.565       149.06423      44785.769      4.6437958    
      2360   308.87101     -5792.0361     -5730.7517      73.06122       44806.161      4.6621579    
      2370   308.19308     -5792.1251     -5730.9752      11.286623      44826.683      4.682067     
      2380   306.52742     -5792.0475     -5731.2281     -46.022808      44846.734      4.7028097    
      2390   303.86425     -5791.793      -5731.5019     -98.982138      44865.809      4.7237235    
      2400   300.4817      -5791.407      -5731.7871     -116.81314      44883.484      4.7441842    
      2410   297.62227     -5791.1235     -5732.071      -143.71895      44899.572      4.7637604    
      2420   295.88605     -5791.0474     -5732.3393     -170.91714      44913.88       4.7822022    
      2430   294.74555     -5791.0682     -5732.5865     -184.86708      44926.239      4.7994653    
      2440   293.72283     -5791.0924     -5732.8136     -175.63232      44936.564      4.8156865    
      2450   292.96845     -5791.1444     -5733.0153     -164.27272      44944.961      4.8312369    
      2460   292.91036     -5791.3063     -5733.1887     -181.97828      44951.573      4.8465824    
      2470   293.94624     -5791.6604     -5733.3373     -196.33338      44956.312      4.8619514    
      2480   295.62419     -5792.1196     -5733.4636     -222.25329      44959.059      4.8773579    
      2490   296.94625     -5792.4928     -5733.5744     -242.55695      44959.658      4.8925715    
      2500   297.98413     -5792.7971     -5733.6728     -267.05537      44957.957      4.9070765    
      2510   299.11101     -5793.1117     -5733.7638     -256.46958      44953.829      4.9203944    
      2520   299.57371     -5793.2919     -5733.8522     -239.32919      44947.384      4.9323677    
      2530   298.32777     -5793.1296     -5733.9371     -205.79239      44938.845      4.942914     
      2540   295.59443     -5792.6646     -5734.0144     -134.34731      44928.598      4.9520305    
      2550   292.62736     -5792.1343     -5734.0728     -43.222338      44917.351      4.9599464    
      2560   290.60952     -5791.7637     -5734.1026      35.694962      44905.961      4.966983     
      2570   289.96405     -5791.6271     -5734.0941      100.07934      44895.174      4.9733858    
      2580   290.40867     -5791.6699     -5734.0487      146.34937      44885.564      4.9793744    
      2590   291.45924     -5791.7959     -5733.9662      183.25939      44877.531      4.9851593    
      2600   292.39966     -5791.864      -5733.8477      235.75281      44871.414      4.9909163    
      2610   292.92818     -5791.8208     -5733.6997      286.31683      44867.647      4.9968961    
      2620   293.21906     -5791.704      -5733.5251      336.99801      44866.671      5.003462     
      2630   293.5173      -5791.563      -5733.325       361.50342      44868.853      5.0109715    
      2640   294.17728     -5791.4729     -5733.1039      371.11172      44874.345      5.0197087    
      2650   295.19964     -5791.4319     -5732.86        363.52288      44883.193      5.0299356    
      2660   296.23438     -5791.3773     -5732.6002      329.12691      44895.255      5.0418478    
      2670   297.16789     -5791.2905     -5732.3282      269.59868      44910.152      5.0556152    
      2680   297.93619     -5791.1591     -5732.0443      204.28252      44927.298      5.0712065    
      2690   298.55378     -5790.9928     -5731.7555      98.135181      44945.987      5.0884451    
      2700   299.07424     -5790.8038     -5731.4632      12.897279      44965.266      5.1069261    
      2710   299.41056     -5790.5768     -5731.1694     -63.154763      44984.276      5.1263127    
      2720   299.67485     -5790.3347     -5730.8749     -122.40054      45002.311      5.1463672    
      2730   299.6349      -5790.0344     -5730.5826     -170.08633      45018.837      5.166823     
      2740   299.15994     -5789.6503     -5730.2927     -193.4009       45033.449      5.1873696    
      2750   298.23215     -5789.1768     -5730.0032     -167.9074       45045.995      5.2077072    
      2760   297.35293     -5788.712      -5729.713      -120.04864      45056.723      5.2277199    
      2770   297.31796     -5788.4084     -5729.4163     -40.520566      45066.142      5.2475422    
      2780   299.01341     -5788.4403     -5729.1118      50.414074      45075.008      5.2675765    
      2790   302.15346     -5788.7596     -5728.8081      120.75545      45084.148      5.2883573    
      2800   305.53946     -5789.1346     -5728.5112      177.07558      45094.235      5.3103654    
      2810   307.95089     -5789.3427     -5728.2408      225.27211      45105.792      5.3339319    
      2820   308.8431      -5789.283      -5728.0041      286.57217      45119.298      5.3592006    
      2830   307.98626     -5788.9135     -5727.8046      313.34039      45135.253      5.3862786    
      2840   305.67183     -5788.2887     -5727.639       339.40422      45153.93       5.4153254    
      2850   303.39084     -5787.6965     -5727.4994      320.88566      45175.466      5.4465993    
      2860   302.95849     -5787.4867     -5727.3754      256.51249      45199.639      5.4801302    
      2870   304.8881      -5787.7562     -5727.2621      170.58836      45225.825      5.5155417    
      2880   307.82851     -5788.2422     -5727.1646      63.659299      45253.179      5.552025     
      2890   310.28632     -5788.663      -5727.0977     -20.907927      45280.715      5.5884372    
      2900   311.25588     -5788.8278     -5727.0701     -66.550109      45307.617      5.6238391    
      2910   310.30894     -5788.6582     -5727.0885     -89.351107      45333.443      5.6576878    
      2920   308.00597     -5788.2594     -5727.1466     -91.789756      45358.003      5.6896386    
      2930   305.95656     -5787.9441     -5727.2379     -93.982382      45381.264      5.7196279    
      2940   305.25219     -5787.9229     -5727.3564     -116.26291      45403.195      5.7479567    
      2950   305.7058      -5788.1499     -5727.4935     -168.32783      45423.606      5.7750731    
      2960   306.32001     -5788.4359     -5727.6576     -237.97985      45442.055      5.8013109    
      2970   306.1362      -5788.5879     -5727.8461     -295.42801      45457.928      5.8268202    
      2980   304.85283     -5788.5461     -5728.059      -354.82014      45470.671      5.8514569    
      2990   302.8798      -5788.3861     -5728.2904     -381.82729      45479.812      5.8749207    
      3000   301.01263     -5788.2565     -5728.5313     -417.79412      45485.09       5.8969629    
      3010   299.69866     -5788.2371     -5728.7726     -468.71854      45486.223      5.9172199    
      3020   298.72228     -5788.2836     -5729.0128     -510.28036      45482.803      5.9350869    
      3030   297.82619     -5788.3396     -5729.2466     -522.5786       45474.521      5.9500173    
      3040   297.13822     -5788.4279     -5729.4714     -524.75502      45461.328      5.9616881    
      3050   296.73566     -5788.5608     -5729.6842     -503.22504      45443.308      5.9697899    
      3060   296.70611     -5788.7556     -5729.8849     -468.93499      45420.73       5.9742216    
      3070   296.58081     -5788.9182     -5730.0723     -422.09879      45393.993      5.9750465    
      3080   296.14931     -5789.0068     -5730.2466     -364.06216      45363.605      5.9725444    
      3090   295.89917     -5789.1152     -5730.4046     -284.80756      45330.215      5.9672586    
      3100   295.998       -5789.2764     -5730.5461     -177.41959      45294.668      5.9601258    
      3110   296.28549     -5789.4587     -5730.6715     -80.134548      45257.985      5.9522407    
      3120   296.81067     -5789.673      -5730.7815      23.97212       45221.148      5.9446338    
      3130   297.54512     -5789.915      -5730.8778      150.93506      45185.195      5.9383543    
      3140   298.54397     -5790.1992     -5730.9638      278.23465      45151.305      5.9344843    
      3150   299.53776     -5790.4761     -5731.0435      388.67537      45120.65       5.93413      
      3160   300.30135     -5790.7039     -5731.1198      460.11612      45094.182      5.9381779    
      3170   300.56397     -5790.8342     -5731.198       532.46252      45072.576      5.9471636    
      3180   300.4043      -5790.8848     -5731.2802      577.40482      45056.386      5.9615359    
      3190   300.2703      -5790.9434     -5731.3654      611.17748      45045.964      5.9814878    
      3200   300.74061     -5791.1272     -5731.456       584.36544      45041.455      6.006883     
      3210   301.88002     -5791.448      -5731.5507      526.29327      45042.534      6.0370752    
      3220   303.71237     -5791.9164     -5731.6555      442.93351      45048.569      6.0711008    
      3230   306.05123     -5792.5012     -5731.7763      331.77826      45058.679      6.1077573    
      3240   308.34531     -5793.1055     -5731.9253      215.2503       45071.736      6.1457555    
      3250   309.45324     -5793.505      -5732.1051      131.22183      45086.628      6.183852     
      3260   308.4122      -5793.5153     -5732.3219      62.1094        45102.503      6.2208928    
      3270   305.23056     -5793.1322     -5732.5701      40.773602      45118.721      6.2559292    
      3280   300.89594     -5792.5327     -5732.8307      33.932183      45135.05       6.2884704    
      3290   296.92059     -5792.0013     -5733.088       30.47827       45151.425      6.3182918    
      3300   294.61473     -5791.7864     -5733.3306     -0.68428975     45167.772      6.3453948    
      3310   293.73109     -5791.8274     -5733.5469     -71.398546      45183.788      6.3697218    
      3320   293.11437     -5791.8937     -5733.7356     -132.37317      45198.865      6.3907254    
      3330   292.01231     -5791.8384     -5733.899      -181.305        45212.439      6.4077277    
      3340   290.78401     -5791.7245     -5734.0288     -241.87473      45224.04       6.4201265    
      3350   290.30691     -5791.726      -5734.1249     -310.07102      45233.11       6.4274408    
      3360   290.62462     -5791.8497     -5734.1856     -357.58164      45239.078      6.4294856    
      3370   291.18938     -5791.9863     -5734.2102     -386.62959      45241.558      6.4264402    
      3380   291.49669     -5792.0398     -5734.2027     -400.38869      45240.315      6.4187165    
      3390   291.4149      -5791.983      -5734.1621     -361.48468      45235.3        6.4069347    
      3400   291.05901     -5791.8362     -5734.0859     -300.10778      45226.929      6.392005     
      3410   290.85932     -5791.6871     -5733.9765     -219.99947      45215.84       6.3749789    
      3420   291.46124     -5791.6575     -5733.8274     -142.50051      45202.819      6.3569565    
      3430   292.59894     -5791.7003     -5733.6445     -74.261125      45188.645      6.3388346    
      3440   293.88538     -5791.7406     -5733.4295     -9.9513103      45173.978      6.3210659    
      3450   295.90544     -5791.9043     -5733.1924      43.833029      45159.448      6.3038386    
      3460   299.11325     -5792.2863     -5732.9379      110.73654      45145.614      6.2873382    
      3470   302.9831      -5792.7982     -5732.682       123.73019      45132.998      6.2720161    
      3480   306.45791     -5793.2439     -5732.4383      137.52975      45121.773      6.2582435    
      3490   309.04954     -5793.5431     -5732.2232      172.0323       45112.037      6.2463875    
      3500   310.4263      -5793.6376     -5732.0445      190.49551      45104.046      6.2368326    
      3510   310.25314     -5793.4691     -5731.9105      192.00707      45097.975      6.2297525    
      3520   309.09651     -5793.1472     -5731.818       195.18092      45093.834      6.2250002    
      3530   308.21149     -5792.9172     -5731.7637      174.596        45091.6        6.2222707    
      3540   308.26911     -5792.9062     -5731.7412      123.53522      45091.065      6.2210214    
      3550   308.96247     -5793.0571     -5731.7545      26.820945      45091.673      6.2204446    
      3560   309.71095     -5793.2563     -5731.8053     -50.46896       45092.549      6.2195395    
      3570   310.13202     -5793.4292     -5731.8946     -137.65139      45092.913      6.2176067    
      3580   309.81301     -5793.4991     -5732.0278     -213.43376      45091.981      6.2141497    
      3590   309.00703     -5793.5127     -5732.2013     -283.39975      45089.043      6.2087287    
      3600   308.13272     -5793.5504     -5732.4125     -325.05316      45083.485      6.2009809    
      3610   307.21582     -5793.6134     -5732.6574     -335.80707      45074.954      6.1908706    
      3620   306.1662      -5793.6797     -5732.9319     -331.49134      45063.337      6.1786447    
      3630   304.60676     -5793.6606     -5733.2223     -304.18508      45048.728      6.1646858    
      3640   301.97099     -5793.4398     -5733.5245     -236.50646      45031.459      6.1494402    
      3650   298.10385     -5792.9692     -5733.8212     -152.96945      45012.176      6.1333927    
      3660   294.47435     -5792.5243     -5734.0964     -67.682811      44991.694      6.1170102    
      3670   292.57166     -5792.3884     -5734.338       10.024821      44970.827      6.1007167    
      3680   292.73173     -5792.6257     -5734.5436      52.781295      44950.283      6.0848526    
      3690   294.15064     -5793.0839     -5734.7202      88.441891      44930.511      6.0695104    
      3700   295.6824      -5793.5376     -5734.87        86.246386      44911.774      6.0547598    
      3710   296.68611     -5793.8727     -5735.0059      110.78507      44894.097      6.0406143    
      3720   297.14091     -5794.0822     -5735.1251      148.84692      44877.667      6.0271975    
      3730   297.27233     -5794.2206     -5735.2375      178.14436      44862.82       6.0146574    
      3740   296.99135     -5794.2634     -5735.3361      201.17173      44849.81       6.0029407    
      3750   295.77079     -5794.1096     -5735.4245      230.94959      44838.842      5.9919632    
      3760   293.51046     -5793.7346     -5735.4979      308.85329      44830.218      5.9817228    
      3770   290.86073     -5793.2574     -5735.5465      396.56661      44824.604      5.9725116    
      3780   289.13431     -5792.9286     -5735.5602      465.86176      44822.773      5.9647291    
      3790   288.91722     -5792.8616     -5735.5363      515.03296      44825.334      5.9587964    
      3800   289.72252     -5792.9546     -5735.4695      543.37419      44832.714      5.9552975    
      3810   290.89446     -5793.082      -5735.3644      578.29788      44845.154      5.9549054    
      3820   292.3094      -5793.2219     -5735.2236      607.07193      44862.934      5.9584058    
      3830   294.06399     -5793.3977     -5735.0512      613.04832      44886.285      5.9667048    
      3840   296.15512     -5793.6152     -5734.8538      584.31897      44915.244      5.9804586    
      3850   298.08148     -5793.7819     -5734.6382      509.30248      44949.497      5.9997512    
      3860   299.12295     -5793.7639     -5734.4136      422.27107      44988.319      6.0241116    
      3870   299.54911     -5793.6207     -5734.1859      304.05647      45030.825      6.0527046    
      3880   300.12386     -5793.5061     -5733.9572      156.99398      45075.868      6.0842827    
      3890   300.97019     -5793.4431     -5733.7263     -19.724321      45122.008      6.117196     
      3900   302.18798     -5793.4581     -5733.4997     -194.61927      45167.56       6.149592     
      3910   303.84239     -5793.568      -5733.2813     -361.37624      45210.843      6.1797801    
      3920   306.01285     -5793.7943     -5733.077      -517.58674      45250.286      6.2062817    
      3930   308.03231     -5794.0173     -5732.8993     -658.47624      45284.398      6.2279097    
      3940   308.9744      -5794.0565     -5732.7516     -773.67409      45311.882      6.2436871    
      3950   309.04987     -5793.9668     -5732.6469     -854.42626      45331.697      6.2527777    
      3960   308.56649     -5793.8053     -5732.5813     -900.27371      45343.117      6.2543233    
      3970   307.27784     -5793.5237     -5732.5554     -898.00709      45345.787      6.2476548    
      3980   304.72057     -5793.0242     -5732.5632     -856.70922      45339.786      6.2324645    
      3990   301.05975     -5792.328      -5732.5934     -754.6536       45325.645      6.2089974    
      4000   297.53888     -5791.6666     -5732.6307     -620.91472      45304.399      6.1781197    
      4010   295.22186     -5791.2371     -5732.6608     -485.92587      45277.351      6.1409711    
      4020   294.61369     -5791.1294     -5732.6738     -355.9615       45245.866      6.0987264    
      4030   295.64146     -5791.3239     -5732.6644     -242.68557      45211.225      6.0525692    
      4040   297.65776     -5791.6948     -5732.6353     -97.598273      45174.64       6.0036003    
      4050   299.66638     -5792.0508     -5732.5927      44.164258      45137.484      5.9529837    
      4060   301.14643     -5792.2939     -5732.5422      180.76629      45101.122      5.9019018    
      4070   301.83493     -5792.3782     -5732.4898      309.5288       45066.874      5.8514346    
      4080   301.67499     -5792.295      -5732.4384      435.51029      45035.953      5.8024736    
      4090   301.04319     -5792.1182     -5732.3869      578.68671      45009.548      5.7558833    
      4100   300.96598     -5792.053      -5732.337       688.23085      44988.889      5.7125996    
      4110   302.24456     -5792.2592     -5732.2895      750.74117      44974.954      5.673482     
      4120   304.43591     -5792.6528     -5732.2484      776.7743       44968.293      5.6392729    
      4130   306.32525     -5793.0066     -5732.2273      765.99614      44969.042      5.6104443    
      4140   307.39612     -5793.2227     -5732.2309      734.1386       44977.017      5.587345     
      4150   307.78015     -5793.3373     -5732.2693      670.46895      44991.854      5.5702981    
      4160   307.64462     -5793.3834     -5732.3423      577.62693      45012.878      5.5594049    
      4170   306.84741     -5793.3417     -5732.4588      458.99524      45039.133      5.5544049    
      4180   305.42604     -5793.2135     -5732.6126      338.69394      45069.447      5.5547168    
      4190   303.67885     -5793.0535     -5732.7992      210.02498      45102.624      5.5596319    
      4200   302.16298     -5792.9678     -5733.0143      50.388077      45137.379      5.5683221    
      4210   301.1744      -5793.0099     -5733.2526     -112.08902      45172.223      5.5798075    
      4220   300.20456     -5793.0721     -5733.5073     -281.87939      45205.579      5.5930709    
      4230   298.62427     -5793.0249     -5733.7736     -428.21591      45235.851      5.606875     
      4240   296.26045     -5792.826      -5734.0437     -537.60314      45261.676      5.6199608    
      4250   293.24689     -5792.4873     -5734.3029     -605.54416      45282.067      5.631138     
      4260   290.21137     -5792.1185     -5734.5364     -621.93461      45296.438      5.6394575    
      4270   288.01914     -5791.8801     -5734.733      -640.35597      45304.653      5.6442782    
      4280   287.32621     -5791.8955     -5734.8859     -652.42513      45306.636      5.645193     
      4290   288.68948     -5792.2738     -5734.9937     -654.68207      45302.327      5.6419067    
      4300   292.38704     -5793.0776     -5735.0639     -635.47463      45291.808      5.6343902    
      4310   297.27938     -5794.0895     -5735.105      -620.11462      45275.3        5.6228738    
      4320   301.62798     -5794.9849     -5735.1376     -591.60777      45253.007      5.6078023    
      4330   303.98657     -5795.4928     -5735.1775     -514.32882      45225.314      5.5898048    
      4340   303.82538     -5795.5173     -5735.234      -355.53674      45193.077      5.5697496    
      4350   301.59553     -5795.1431     -5735.3022     -153.90583      45157.821      5.5487749    
      4360   298.71718     -5794.6479     -5735.3782      61.87989       45121.49       5.5281881    
      4370   296.3274      -5794.2444     -5735.4488      253.31561      45086.123      5.5093642    
      4380   295.04452     -5794.0525     -5735.5114      406.87274      45053.534      5.4935088    
      4390   294.73523     -5794.0378     -5735.5582      548.33266      45025.181      5.4816196    
      4400   294.86265     -5794.0968     -5735.5918      673.23614      45002.334      5.4745404    
      4410   295.00462     -5794.1462     -5735.6131      760.24297      44986.081      5.4730149    
      4420   295.04956     -5794.1624     -5735.6203      809.86625      44977.193      5.4776578    
      4430   294.89657     -5794.1257     -5735.614       801.74085      44976.019      5.4888259    
      4440   294.4813      -5794.017      -5735.5877      775.38385      44982.449      5.5066636    
      4450   294.0394      -5793.8727     -5735.5311      739.56248      44996.166      5.5310259    
      4460   293.95183     -5793.7614     -5735.4371      664.59426      45016.735      5.5614705    
      4470   294.3202      -5793.6969     -5735.2996      550.92186      45043.389      5.5970697    
      4480   294.7729      -5793.5881     -5735.101       441.78074      45075.046      5.6365007    
      4490   295.73321     -5793.5237     -5734.846       331.53059      45110.624      5.6783201    
      4500   298.09053     -5793.6793     -5734.5339      202.82564      45149.015      5.7211381    
      4510   302.32612     -5794.1638     -5734.178       67.296764      45188.996      5.763708     
      4520   307.61701     -5794.8457     -5733.8101     -79.959431      45229.213      5.8050572    
      4530   312.63058     -5795.4902     -5733.4598     -186.5726       45268.275      5.8445871    
      4540   315.97737     -5795.8542     -5733.1598     -274.41303      45305.152      5.8823253    
      4550   317.20944     -5795.8711     -5732.9322     -347.25964      45339.003      5.9186199    
      4560   316.85139     -5795.651      -5732.7831     -403.82         45369.129      5.9538416    
      4570   315.50025     -5795.3104     -5732.7107     -446.71432      45395.028      5.9882056    
      4580   313.34466     -5794.8735     -5732.7015     -485.77241      45416.308      6.0216379    
      4590   310.43201     -5794.3429     -5732.7487     -501.45986      45432.66       6.0538651    
      4600   306.99519     -5793.7518     -5732.8396     -479.08939      45443.998      6.0845079    
      4610   303.68593     -5793.2131     -5732.9575     -443.1801       45450.569      6.1132339    
      4620   301.29991     -5792.874      -5733.0918     -426.06901      45452.736      6.1397415    
      4630   300.25454     -5792.8088     -5733.234      -397.58083      45450.76       6.1637134    
      4640   300.24825     -5792.9546     -5733.381      -356.39279      45444.988      6.1850403    
      4650   300.65976     -5793.1897     -5733.5345     -320.66753      45435.828      6.2036631    
      4660   300.8147      -5793.3798     -5733.6938     -246.12609      45423.711      6.2196107    
      4670   300.30519     -5793.4471     -5733.8623     -144.18154      45409.408      6.2332698    
      4680   299.20195     -5793.3984     -5734.0325     -53.473119      45393.892      6.24519      
      4690   298.06562     -5793.3464     -5734.2059      55.057747      45378.104      6.2559237    
      4700   297.66144     -5793.434      -5734.3737      128.83715      45363.018      6.266095     
      4710   298.11226     -5793.6888     -5734.5391      177.54955      45349.34       6.276085     
      4720   298.84932     -5793.9954     -5734.6994      196.13797      45337.503      6.2862277    
      4730   299.10324     -5794.2107     -5734.8643      207.25207      45327.707      6.2966632    
      4740   298.49314     -5794.2568     -5735.0315      211.35382      45320.018      6.3073807    
      4750   297.67164     -5794.2605     -5735.1982      212.76284      45314.445      6.3182864    
      4760   297.30887     -5794.3575     -5735.3672      182.9401       45310.955      6.3293391    
      4770   296.60168     -5794.3854     -5735.5354      122.65961      45309.234      6.3404605    
      4780   294.91129     -5794.2147     -5735.7001      72.595926      45308.734      6.3515161    
      4790   292.57455     -5793.9038     -5735.8528      14.485598      45308.916      6.3624018    
      4800   290.45084     -5793.6178     -5735.9882     -35.001086      45309.24       6.3728025    
      4810   289.05372     -5793.4493     -5736.0969     -78.421159      45309.237      6.3822287    
      4820   288.35561     -5793.3853     -5736.1714     -90.355684      45308.519      6.3900074    
      4830   288.17946     -5793.3882     -5736.2093     -89.312075      45306.939      6.3956104    
      4840   288.79593     -5793.5057     -5736.2045     -64.093863      45304.543      6.3987142    
      4850   290.25998     -5793.7449     -5736.1531     -42.73986       45301.552      6.3993269    
      4860   292.18731     -5794.0225     -5736.0483     -19.276267      45298.186      6.3975662    
      4870   294.05982     -5794.2294     -5735.8837      11.312826      45294.674      6.3936888    
      4880   295.96536     -5794.3799     -5735.6561      46.172887      45291.282      6.388254     
      4890   298.01619     -5794.4879     -5735.3572      104.19244      45288.37       6.38207      
      4900   300.14164     -5794.545      -5734.9926      172.79012      45286.478      6.3760636    
      4910   302.53943     -5794.6055     -5734.5773      235.71409      45286.25       6.3711035    
      4920   305.11821     -5794.6787     -5734.1389      293.3076       45288.292      6.3678177    
      4930   307.46273     -5794.7124     -5733.7074      355.50296      45293.156      6.3667484    
      4940   309.21538     -5794.6692     -5733.3164      389.82298      45301.384      6.3684612    
      4950   309.95658     -5794.4857     -5732.9859      398.2604       45313.285      6.3732756    
      4960   309.53059     -5794.1378     -5732.7225      426.87155      45328.975      6.3812768    
      4970   308.10456     -5793.6537     -5732.5213      437.8535       45348.652      6.392452     
      4980   306.66359     -5793.2142     -5732.3678      420.04692      45372.368      6.406435     
      4990   306.43284     -5793.059      -5732.2583      365.93898      45399.95       6.4226104    
      5000   307.39096     -5793.1721     -5732.1814      271.32304      45430.876      6.4404118    
      5010   308.73379     -5793.3944     -5732.1372      140.45772      45464.195      6.4592897    
      5020   309.89117     -5793.613      -5732.1262     -0.089650691    45498.66       6.478746     
      5030   310.53527     -5793.7676     -5732.1529     -137.14967      45532.935      6.4982577    
      5040   310.89811     -5793.9049     -5732.2183     -253.51462      45565.709      6.5171715    
      5050   311.03158     -5794.0367     -5732.3236     -359.11311      45595.825      6.5346685    
      5060   310.54665     -5794.0898     -5732.4729     -446.17976      45622.254      6.5497584    
      5070   308.41903     -5793.8566     -5732.6618     -502.3797       45644.173      6.561373     
      5080   304.6657      -5793.3292     -5732.8792     -514.12158      45661.084      6.56865      
      5090   300.64292     -5792.762      -5733.1101     -514.59472      45672.865      6.5712185    
      5100   297.7723      -5792.4181     -5733.3358     -509.08968      45679.53       6.5690261    
      5110   296.15695     -5792.3068     -5733.545      -508.09192      45681.138      6.5621543    
      5120   295.2722      -5792.3185     -5733.7322     -497.71319      45677.736      6.5507511    
      5130   294.82291     -5792.3917     -5733.8946     -454.24652      45669.513      6.5350282    
      5140   294.59544     -5792.4822     -5734.0302     -403.07394      45656.881      6.5154557    
      5150   295.01814     -5792.6733     -5734.1375     -357.66115      45640.358      6.4927035    
      5160   296.71369     -5793.0948     -5734.2226     -319.52319      45620.412      6.4674276    
      5170   299.65613     -5793.75       -5734.2939     -280.08143      45597.451      6.44008      
      5180   302.85833     -5794.4484     -5734.3569     -204.45889      45571.945      6.4109707    
      5190   304.93219     -5794.9292     -5734.4263     -127.58977      45544.575      6.3805523    
      5200   304.79226     -5794.9874     -5734.5123     -17.558521      45516.158      6.3493942    
      5210   302.45975     -5794.6219     -5734.6096      130.78888      45487.795      6.3182703    
      5220   299.42909     -5794.1195     -5734.7085      289.733        45460.889      6.2882244    
      5230   297.5453      -5793.8386     -5734.8014      415.38237      45436.92       6.260361     
      5240   297.30698     -5793.8738     -5734.8838      499.39669      45417.074      6.2354559    
      5250   298.02216     -5794.0902     -5734.9583      529.87577      45402.117      6.2137898    
      5260   298.96189     -5794.3429     -5735.0246      525.36553      45392.326      6.1953312    
      5270   299.65384     -5794.5443     -5735.0887      491.39904      45387.631      6.1798804    
      5280   299.73694     -5794.6263     -5735.1542      434.02837      45387.674      6.1671965    
      5290   299.24412     -5794.5959     -5735.2216      400.19692      45391.966      6.1570198    
      5300   298.50672     -5794.5135     -5735.2855      358.42734      45400.119      6.1492587    
      5310   298.39805     -5794.5535     -5735.347       297.10107      45411.689      6.1438325    
      5320   299.25569     -5794.7823     -5735.4057      215.48354      45426.071      6.140652     
      5330   300.80302     -5795.1493     -5735.4657      104.21456      45442.467      6.1395388    
      5340   302.34498     -5795.525      -5735.5355      0.20048141     45459.844      6.1401054    
      5350   303.23416     -5795.7946     -5735.6286     -105.54667      45477.161      6.1418731    
      5360   302.60051     -5795.7971     -5735.7568     -184.19649      45493.421      6.1442007    
      5370   299.8824      -5795.4357     -5735.9347     -252.13454      45507.821      6.1463644    
      5380   295.69053     -5794.8395     -5736.1702     -294.15241      45519.744      6.1477047    
      5390   291.91235     -5794.3846     -5736.4651     -339.26043      45528.768      6.1476818    
      5400   289.68056     -5794.2913     -5736.8145     -413.11084      45534.436      6.1458334    
      5410   289.09002     -5794.559      -5737.1994     -494.99127      45536.073      6.1416444    
      5420   290.11981     -5795.1702     -5737.6062     -583.75013      45532.886      6.1346172    
      5430   292.49893     -5796.0509     -5738.0149     -669.86199      45523.997      6.1242169    
      5440   294.89829     -5796.9254     -5738.4134     -751.01168      45508.573      6.1098457    
      5450   295.71689     -5797.4689     -5738.7944     -795.64188      45485.886      6.0909682    
      5460   294.37095     -5797.5524     -5739.145      -779.074        45455.543      6.0673617    
      5470   291.39241     -5797.2693     -5739.4529     -692.13517      45417.735      6.0393624    
      5480   288.26793     -5796.9001     -5739.7037     -573.41699      45373.3        6.0079189    
      5490   286.78534     -5796.7954     -5739.8931     -453.97566      45323.417      5.9743047    
      5500   287.39511     -5797.0433     -5740.02       -324.05227      45269.301      5.9396914    
      5510   289.12726     -5797.459      -5740.092      -197.01039      45212.22       5.90515      
      5520   290.72874     -5797.8007     -5740.1159     -60.938692      45153.457      5.871555     
      5530   291.74744     -5797.9852     -5740.0984      105.72596      45094.382      5.8396152    
      5540   292.39053     -5798.057      -5740.0425      274.25082      45036.615      5.8100421    
      5550   292.84919     -5798.0577     -5739.9523      443.22803      44981.801      5.783577     
      5560   292.912       -5797.9504     -5739.8325      600.72837      44931.523      5.7610424    
      5570   292.25442     -5797.6655     -5739.6781      766.62775      44887.288      5.7434068    
      5580   291.03556     -5797.2396     -5739.494       917.66674      44850.586      5.7317509    
      5590   289.94659     -5796.8068     -5739.2772      1025.45        44822.746      5.7270993    
      5600   289.56228     -5796.4783     -5739.025       1091.1611      44804.726      5.7301464    
      5610   290.14779     -5796.312      -5738.7425      1095.8095      44797.059      5.7412261    
      5620   291.72692     -5796.3186     -5738.4358      1062.7294      44799.76       5.7602275    
      5630   294.45521     -5796.5402     -5738.116       956.61398      44812.38       5.7867489    
      5640   298.03461     -5796.9357     -5737.8013      803.14782      44833.914      5.8199844    
      5650   301.63012     -5797.3575     -5737.5098      640.21274      44862.922      5.8587311    
      5660   304.16231     -5797.6047     -5737.2546      494.08898      44897.873      5.9015684    
      5670   305.41289     -5797.6439     -5737.0456      358.13159      44937.355      5.9471784    
      5680   306.13822     -5797.6285     -5736.8863      225.29771      44980.054      5.9944175    
      5690   306.89779     -5797.6615     -5736.7686      94.384841      45024.678      6.0423407    
      5700   307.60858     -5797.7238     -5736.6898     -36.556024      45069.959      6.0901184    
      5710   307.99798     -5797.7574     -5736.6462     -143.24098      45114.666      6.1369479    
      5720   307.74029     -5797.6941     -5736.634      -252.56256      45157.731      6.1820584    
      5730   306.12918     -5797.3909     -5736.6505     -357.25786      45198.11       6.2246073    
      5740   302.91845     -5796.7877     -5736.6844     -444.16254      45234.812      6.2638138    
      5750   299.39404     -5796.1274     -5736.7234     -505.25878      45267.024      6.2989613    
      5760   296.71477     -5795.6334     -5736.761      -554.45822      45294.168      6.3295726    
      5770   295.64593     -5795.4445     -5736.7841     -601.70346      45315.792      6.3553341    
      5780   295.90723     -5795.506      -5736.7937     -656.41863      45331.443      6.3759216    
      5790   296.20657     -5795.5613     -5736.7897     -669.34104      45340.692      6.391064     
      5800   295.59324     -5795.4247     -5736.7748     -671.1125       45343.431      6.4005946    
      5810   294.00019     -5795.0808     -5736.747      -646.05907      45339.715      6.4042856    
      5820   292.07012     -5794.6509     -5736.7        -599.87929      45329.815      6.402081     
      5830   290.26639     -5794.2155     -5736.6224     -531.87717      45314.199      6.3941455    
      5840   288.99086     -5793.847      -5736.5071     -466.61539      45293.533      6.3807268    
      5850   288.62371     -5793.6163     -5736.3493     -371.32277      45268.551      6.3620423    
      5860   289.43824     -5793.572      -5736.1433     -288.33559      45240.154      6.3385019    
      5870   291.69181     -5793.7709     -5735.895      -221.24251      45209.189      6.3104558    
      5880   295.59701     -5794.2609     -5735.6102     -156.14182      45176.346      6.2782323    
      5890   300.54005     -5794.9442     -5735.3128     -63.330201      45142.304      6.2423247    
      5900   305.42989     -5795.6265     -5735.0248      42.268691      45107.941      6.2035803    
      5910   309.09913     -5796.0992     -5734.7695      175.78964      45074.334      6.1633079    
      5920   311.10577     -5796.2955     -5734.5677      320.48553      45042.729      6.1230758    
      5930   311.44556     -5796.2197     -5734.4245      488.36062      45014.506      6.0844909    
      5940   310.4923      -5795.9414     -5734.3353      653.40066      44991.219      6.0491963    
      5950   309.21421     -5795.6528     -5734.3003      795.25885      44974.361      6.0187764    
      5960   308.90669     -5795.595      -5734.3035      857.35309      44965.143      5.9946413    
      5970   310.21858     -5795.8931     -5734.3413      873.62484      44964.131      5.9777265    
      5980   312.35488     -5796.394      -5734.4184      831.01023      44971.355      5.968545     
      5990   314.14601     -5796.865      -5734.5339      751.66195      44986.345      5.9672179    
      6000   314.72907     -5797.1407     -5734.694       670.86098      45008.306      5.9735489    
      6010   314.02663     -5797.196      -5734.8887      573.6946       45036.396      5.9872636    
      6020   312.4871      -5797.114      -5735.1121      442.89472      45069.59       6.0079147    
      6030   310.45379     -5796.943      -5735.3445      291.65287      45106.598      6.0348495    
      6040   307.99652     -5796.6899     -5735.579       142.01565      45145.95       6.0674429    
      6050   305.20876     -5796.3578     -5735.8         5.6221837      45186.183      6.1051062    
      6060   302.63605     -5796.0458     -5735.9985     -99.154959      45226.011      6.1472113    
      6070   301.06194     -5795.9106     -5736.1756     -211.55365      45264.384      6.1930102    
      6080   301.17599     -5796.0835     -5736.3259     -329.43858      45300.232      6.241425     
      6090   302.67312     -5796.5127     -5736.458      -452.12         45332.423      6.2910757    
      6100   303.90738     -5796.8848     -5736.5852     -532.12534      45359.848      6.3403515    
      6110   303.20466     -5796.8716     -5736.7114     -563.62836      45381.815      6.3878026    
      6120   300.09424     -5796.3783     -5736.8353     -499.91744      45398.164      6.4322723    
      6130   295.42152     -5795.5653     -5736.9494     -405.3751       45409.464      6.4730422    
      6140   291.05502     -5794.7838     -5737.0343     -303.85377      45416.686      6.5096907    
      6150   288.90672     -5794.4041     -5737.0808     -225.19257      45420.852      6.5419347    
      6160   289.28023     -5794.4828     -5737.0854     -186.235        45422.761      6.5694516    
      6170   290.38219     -5794.663      -5737.047      -124.9418       45422.889      6.5918681    
      6180   291.08381     -5794.7281     -5736.973      -41.690767      45421.839      6.6090001    
      6190   291.80531     -5794.7615     -5736.8631      41.279078      45420.404      6.6210287    
      6200   293.22756     -5794.9014     -5736.7208      109.63435      45419.404      6.6285388    
      6210   295.2458      -5795.1361     -5736.5551      146.87958      45419.445      6.6322254    
      6220   296.90674     -5795.2771     -5736.3666      189.99039      45420.879      6.6327821    
      6230   297.67621     -5795.2313     -5736.1681      232.37832      45424.091      6.6310006    
      6240   297.94832     -5795.0775     -5735.9603      276.26569      45429.505      6.6277058    
      6250   298.17205     -5794.9109     -5735.7493      279.61223      45437.461      6.6236427    
      6260   297.97732     -5794.6564     -5735.5334      263.11957      45447.968      6.6192677    
      6270   297.01166     -5794.2473     -5735.3159      214.97963      45460.832      6.6148756    
      6280   296.32419     -5793.8866     -5735.0916      111.28095      45475.552      6.6105928    
      6290   297.09494     -5793.8079     -5734.86       -6.7546859      45491.156      6.6061849    
      6300   298.96563     -5793.947      -5734.628      -136.80304      45506.467      6.6011815    
      6310   300.52193     -5794.0254     -5734.3975     -259.64829      45520.253      6.5950175    
      6320   300.85124     -5793.8763     -5734.1831     -354.05159      45531.364      6.5872352    
      6330   299.68675     -5793.449      -5733.9868     -419.92888      45538.895      6.5776084    
      6340   297.5368      -5792.84       -5733.8044     -437.59735      45542.275      6.5659723    
      6350   295.64616     -5792.2888     -5733.6284     -437.03562      45541.379      6.552186     
      6360   295.19677     -5792.0277     -5733.4564     -420.23688      45536.279      6.5360593    
      6370   296.38858     -5792.0911     -5733.2833     -385.48868      45527.181      6.5174227    
      6380   298.79498     -5792.399      -5733.1138     -350.66954      45514.428      6.4963187    
      6390   301.87962     -5792.855      -5732.9577     -281.0232       45498.468      6.4731091    
      6400   304.76777     -5793.2941     -5732.8238     -178.49476      45480.017      6.4485218    
      6410   307.1435      -5793.6643     -5732.7226     -67.001086      45460.062      6.4236162    
      6420   309.23814     -5794.0151     -5732.6579      44.891065      45439.721      6.3996174    
      6430   311.44353     -5794.4323     -5732.6374      158.56686      45420.074      6.3777499    
      6440   313.82792     -5794.9288     -5732.6609      234.61284      45402.162      6.3591638    
      6450   315.72269     -5795.3818     -5732.7379      295.27105      45386.74       6.3448002    
      6460   315.80074     -5795.5283     -5732.8689      344.29864      45374.336      6.3354395    
      6470   313.88186     -5795.3254     -5733.0468      398.23623      45365.394      6.3318109    
      6480   311.33602     -5795.035      -5733.2615      402.72913      45360.358      6.3345545    
      6490   309.73994     -5794.9523     -5733.4954      351.84471      45359.23       6.3438894    
      6500   309.00226     -5795.0482     -5733.7377      290.74144      45361.498      6.3595513    
      6510   308.12317     -5795.1193     -5733.9832      180.3501       45366.467      6.3809332    
      6520   306.87805     -5795.1149     -5734.2259      84.869694      45373.129      6.4069366    
      6530   305.56572     -5795.0841     -5734.4555     -2.0311107      45380.554      6.436507     
      6540   304.39557     -5795.0684     -5734.6719     -98.77556       45387.882      6.4687454    
      6550   303.45102     -5795.0826     -5734.8736     -173.44847      45394.211      6.5026576    
      6560   302.72655     -5795.1218     -5735.0565     -234.55686      45398.784      6.5371616    
      6570   301.91507     -5795.1281     -5735.2238     -284.03069      45401.028      6.5711258    
      6580   300.78565     -5795.0544     -5735.3743     -328.41947      45400.483      6.6033693    
      6590   299.3358      -5794.9014     -5735.5089     -347.6631       45396.792      6.6327253    
      6600   297.94565     -5794.7406     -5735.6239     -337.00485      45389.817      6.6581707    
      6610   296.86712     -5794.623      -5735.7204     -299.00141      45379.702      6.6789287    
      6620   296.36086     -5794.5992     -5735.797      -265.18634      45366.811      6.6944404    
      6630   296.67066     -5794.7183     -5735.8546     -220.73233      45351.523      6.7042775    
      6640   297.81874     -5794.9878     -5735.8963     -192.01951      45334.266      6.7081935    
      6650   299.37484     -5795.3302     -5735.9299     -149.79678      45315.38       6.7060314    
      6660   300.62789     -5795.6133     -5735.9644     -117.69994      45295.247      6.6978794    
      6670   301.18047     -5795.759      -5736.0005     -96.026713      45274.203      6.6840667    
      6680   301.1448      -5795.799      -5736.0475     -63.350133      45252.484      6.6650838    
      6690   300.82684     -5795.7869     -5736.0985     -18.825079      45230.386      6.6417662    
      6700   300.24048     -5795.725      -5736.153       26.768644      45208.332      6.6153186    
      6710   299.50702     -5795.6375     -5736.211       81.887412      45186.776      6.587062     
      6720   299.10476     -5795.6155     -5736.2688      122.61142      45166.199      6.5582015    
      6730   299.24949     -5795.6986     -5736.3232      173.78738      45147.025      6.5296666    
      6740   299.5026      -5795.8015     -5736.3759      209.757        45129.695      6.5021394    
      6750   299.50009     -5795.855      -5736.4299      272.61325      45114.588      6.4760101    
      6760   299.43747     -5795.896      -5736.4833      315.04393      45102.2        6.4515419    
      6770   299.55134     -5795.9736     -5736.5384      357.62869      45092.962      6.4288695    
      6780   300.12628     -5796.1432     -5736.5938      359.88178      45087.216      6.4081738    
      6790   301.1504      -5796.4083     -5736.6558      363.46009      45085.002      6.3894599    
      6800   302.35582     -5796.7203     -5736.7286      341.68531      45086.255      6.3727096    
      6810   303.32489     -5797.0063     -5736.8223      296.05306      45090.735      6.3578442    
      6820   303.36492     -5797.1356     -5736.9437      266.04717      45098.003      6.3446739    
      6830   301.9644      -5797.0104     -5737.0963      241.20576      45107.704      6.3331236    
      6840   299.419       -5796.6866     -5737.2776      212.01044      45119.586      6.3231563    
      6850   296.74992     -5796.3677     -5737.4882      171.54338      45133.342      6.3148082    
      6860   294.5639      -5796.1597     -5737.714       125.29487      45148.551      6.3082242    
      6870   293.09049     -5796.1014     -5737.9481      93.907058      45164.789      6.303656     
      6880   292.66078     -5796.2509     -5738.1828      55.776412      45181.734      6.3015462    
      6890   292.96131     -5796.5394     -5738.4117     -6.3813427      45199          6.3022107    
      6900   293.28733     -5796.828      -5738.6356     -85.310023      45215.977      6.3056108    
      6910   293.45433     -5797.0781     -5738.8526     -157.07582      45231.947      6.31145      
      6920   293.83961     -5797.3605     -5739.0585     -245.49536      45246.207      6.3193524    
      6930   294.14724     -5797.6157     -5739.2527     -309.36685      45257.985      6.328906     
      6940   293.67134     -5797.7054     -5739.4368     -361.61533      45266.656      6.3398033    
      6950   292.47759     -5797.6381     -5739.6063     -367.92417      45271.803      6.3516926    
      6960   291.14235     -5797.5216     -5739.7548     -328.02977      45273.414      6.364258     
      6970   290.28215     -5797.4747     -5739.8786     -278.44173      45271.873      6.3773019    
      6980   290.08418     -5797.5275     -5739.9706     -201.30416      45267.702      6.3907684    
      6990   290.56416     -5797.6835     -5740.0314     -113.66965      45261.648      6.4047834    
      7000   291.52063     -5797.9006     -5740.0588     -46.677644      45254.554      6.4195525    
      7010   292.53631     -5798.0984     -5740.055       1.2208112      45247.079      6.4351766    
      7020   293.06137     -5798.1628     -5740.0153      57.988688      45239.721      6.4518304    
      7030   292.53311     -5797.9885     -5739.9458      128.39668      45233.022      6.4698199    
      7040   291.12172     -5797.5959     -5739.8332      174.8042       45227.601      6.4894583    
      7050   289.76169     -5797.1587     -5739.6658      188.69994      45223.878      6.5107789    
      7060   289.13058     -5796.8013     -5739.4336      200.10413      45221.997      6.5335892    
      7070   289.55597     -5796.5782     -5739.1262      200.66698      45222.028      6.557594     
      7080   291.43678     -5796.5706     -5738.7453      178.1202       45223.971      6.5824619    
      7090   295.34666     -5796.9023     -5738.3013      109.49905      45227.567      6.607659     
      7100   301.11718     -5797.5791     -5737.8331      24.341974      45232.16       6.6324256    
      7110   307.27344     -5798.3536     -5737.3862     -45.525434      45236.967      6.6560681    
      7120   311.81438     -5798.8755     -5737.007      -100.25875      45241.326      6.6780322    
      7130   313.80557     -5798.9817     -5736.7182     -128.16424      45244.72       6.6977865    
      7140   313.40569     -5798.7078     -5736.5236     -123.20086      45246.887      6.7148639    
      7150   311.43513     -5798.2024     -5736.4092     -146.92727      45247.815      6.7289728    
      7160   308.84015     -5797.634      -5736.3557     -157.12972      45247.347      6.7398273    
      7170   306.44211     -5797.1448     -5736.3423     -168.83858      45245.36       6.7472843    
      7180   304.51696     -5796.7775     -5736.3569     -198.14139      45241.73       6.7514775    
      7190   302.65019     -5796.4373     -5736.3871     -205.68827      45236.233      6.7526776    
      7200   300.62007     -5796.071      -5736.4237     -170.87208      45228.844      6.7513069    
      7210   298.66271     -5795.7202     -5736.4613     -128.91585      45219.861      6.747995     
      7220   297.08565     -5795.4375     -5736.4915     -86.621308      45209.703      6.7432463    
      7230   296.20925     -5795.2811     -5736.509      -27.330933      45198.82       6.7374133    
      7240   295.80505     -5795.2031     -5736.5112      47.95543       45187.765      6.7307365    
      7250   295.24237     -5795.0779     -5736.4976      143.31372      45177.27       6.7234348    
      7260   294.10796     -5794.8179     -5736.4626      250.21742      45168.228      6.7158545    
      7270   293.26956     -5794.5963     -5736.4074      374.76319      45161.673      6.7085719    
      7280   293.70628     -5794.6018     -5736.3263      440.82419      45158.693      6.7022657    
      7290   295.44655     -5794.8435     -5736.2227      480.26853      45159.937      6.6973226    
      7300   297.64502     -5795.1562     -5736.0992      469.76256      45165.726      6.6938748    
      7310   299.74387     -5795.4371     -5735.9637      448.11993      45176.001      6.691742     
      7320   301.9063      -5795.7275     -5735.825       405.79059      45190.513      6.6907428    
      7330   304.2418      -5796.0538     -5735.6879      319.64253      45208.823      6.6908142    
      7340   306.1775      -5796.3116     -5735.5616      205.58154      45230.1        6.6917155    
      7350   307.08775     -5796.3827     -5735.4521      107.56275      45253.296      6.6930323    
      7360   306.53905     -5796.1835     -5735.3617     -12.944671      45277.41       6.6943418    
      7370   304.70486     -5795.7488     -5735.291      -102.15186      45301.327      6.6950124    
      7380   302.51111     -5795.2584     -5735.2359     -172.53518      45324.171      6.6945254    
      7390   301.39403     -5794.983      -5735.1821     -254.99516      45345.241      6.6925697    
      7400   301.80087     -5795.0123     -5735.1307     -337.40892      45363.777      6.6887734    
      7410   302.90164     -5795.1782     -5735.0782     -426.58369      45378.976      6.6826607    
      7420   303.60408     -5795.2709     -5735.0315     -490.25335      45390.017      6.673698     
      7430   303.55898     -5795.2203     -5734.9899     -510.72811      45396.305      6.6613827    
      7440   302.73033     -5795.0248     -5734.9587     -501.3287       45397.636      6.6456404    
      7450   301.81298     -5794.8157     -5734.9317     -484.28807      45394.102      6.6269152    
      7460   301.82227     -5794.7911     -5734.9053     -429.29593      45385.953      6.6059313    
      7470   303.04767     -5795.0109     -5734.8819     -400.88353      45373.65       6.5837171    
      7480   304.91678     -5795.3661     -5734.8662     -358.509        45357.545      6.5612227    
      7490   306.55554     -5795.6953     -5734.8703     -272.87321      45338.094      6.5393114    
      7500   307.38961     -5795.8909     -5734.9004     -183.67245      45316.077      6.5189282    
      7510   307.02406     -5795.8868     -5734.9689     -64.237586      45292.432      6.5009962    
      7520   305.329       -5795.6576     -5735.0759      71.03377       45268.295      6.4863007    
      7530   303.02147     -5795.3401     -5735.2163      191.20425      45244.936      6.4755003    
      7540   301.46296     -5795.1965     -5735.382       303.50976      45223.521      6.4689696    
      7550   301.37478     -5795.3672     -5735.5701      376.12905      45205.09       6.4670085    
      7560   302.56645     -5795.811      -5735.7775      401.42043      45190.305      6.4697366    
[...]
     18200   1280.0222     -5575.3608     -5321.3861      2367.4686      50199.565      40.119778    
     18210   1296.7881     -5578.088      -5320.7867      2337.2747      50195.763      40.134177    
     18220   1296.1939     -5577.4061     -5320.2227      2488.0707      50191.115      40.143297    
     18230   1287.9901     -5575.251      -5319.6953      2725.9277      50186.496      40.150847    
     18240   1284.9213     -5574.1241     -5319.1774      2854.5302      50182.965      40.162211    
     18250   1284.083      -5573.4309     -5318.6504      2942.1956      50181.154      40.182542    
     18260   1280.5557     -5572.181      -5318.1004      3022.2273      50181.443      40.216157    
     18270   1277.0043     -5570.8883     -5317.5124      3057.7147      50184.233      40.265808    
     18280   1275.3858     -5569.9274     -5316.8726      3114.8663      50190.005      40.331904    
     18290   1273.2382     -5568.7906     -5316.1619      3140.9925      50199.315      40.41451     
     18300   1279.9346     -5569.3359     -5315.3786      3076.8012      50212.381      40.513954    
     18310   1297.9559     -5572.0693     -5314.5363      2924.522       50228.907      40.630567    
     18320   1314.6352     -5574.5248     -5313.6823      2733.8774      50248.009      40.762774    
     18330   1322.2177     -5575.2239     -5312.8769      2596.676       50268.496      40.905824    
     18340   1320.399      -5574.1439     -5312.1578      2620.6379      50289.294      41.053443    
     18350   1313.6864     -5572.1763     -5311.5221      2777.2269      50309.886      41.201273    
     18360   1308.8438     -5570.6426     -5310.9492      2965.452       50330.552      41.350328    
     18370   1301.1136     -5568.5687     -5310.4092      3158.7829      50351.773      41.504381    
     18380   1289.2573     -5565.6848     -5309.8777      3281.1239      50373.89       41.666162    
     18390   1284.7132     -5564.2141     -5309.3086      3372.2074      50396.68       41.83488     
     18400   1287.1501     -5564.0735     -5308.6845      3422.626       50419.64       42.00803     
     18410   1285.7753     -5563.1213     -5308.0051      3331.9276      50442.27       42.182611    
     18420   1289.2459     -5563.0814     -5307.2766      3243.4506      50463.999      42.354382    
     18430   1306.4819     -5565.7441     -5306.5194      3007.9151      50484.313      42.519184    
     18440   1323.538      -5568.3911     -5305.7822      2747.4767      50502.143      42.67138     
     18450   1331.8444     -5569.3923     -5305.1353      2640.2941      50516.028      42.8044      
     18460   1328.8065     -5568.2717     -5304.6175      2737.8134      50524.8        42.912992    
     18470   1316.278      -5565.3867     -5304.2183      2995.0816      50528.155      42.995099    
     18480   1302.424      -5562.3087     -5303.8891      3318.4882      50526.633      43.052433    
     18490   1295.1099     -5560.548      -5303.5796      3491.117       50521.605      43.09171     
     18500   1300.1343     -5561.2328     -5303.2675      3555.9522      50514.384      43.120019    
     18510   1312.0473     -5563.2942     -5302.9652      3536.6182      50505.645      43.140529    
     18520   1317.0764     -5564.0273     -5302.7005      3558.9736      50495.558      43.152916    
     18530   1311.7823     -5562.7562     -5302.4798      3718.8122      50484.086      43.155342    
     18540   1299.5782     -5560.1243     -5302.2693      3857.5204      50471.556      43.148536    
     18550   1290.531      -5558.0826     -5302.0228      3946.0044      50458.6        43.135461    
     18560   1289.2903     -5557.5231     -5301.7094      3948.7318      50446.193      43.120301    
     18570   1288.9053     -5557.0543     -5301.317       3817.654       50434.96       43.105778    
     18580   1290.8291     -5556.9679     -5300.8489      3669.5879      50424.579      43.092235    
     18590   1300.4939     -5558.3386     -5300.302       3558.4438      50414.245      43.079693    
     18600   1306.5234     -5558.9249     -5299.692       3506.1992      50403.507      43.069647    
     18610   1306.7845     -5558.3148     -5299.0301      3561.627       50392.776      43.065366    
     18620   1315.8603     -5559.4138     -5298.3283      3593.4121      50382.56       43.068013    
     18630   1314.6439     -5558.4375     -5297.5933      3778.6134      50372.23       43.071462    
     18640   1302.8555     -5555.3309     -5296.8257      4033.2736      50361.617      43.070402    
     18650   1295.5211     -5553.037      -5295.9871      4223.3841      50351.183      43.064116    
     18660   1298.5047     -5552.6931     -5295.0512      4249.4163      50341.566      43.056726    
     18670   1306.0153     -5553.1553     -5294.0231      4233.1103      50333.097      43.053994    
     18680   1313.0773     -5553.4651     -5292.9318      4216.924       50326.004      43.061371    
     18690   1323.411      -5554.3975     -5291.8138      4184.4702      50320.608      43.082578    
     18700   1335.1096     -5555.6144     -5290.7095      4210.0604      50317.046      43.117812    
     18710   1345.227      -5556.568      -5289.6557      4211.7215      50315.345      43.165253    
     18720   1360.0336     -5558.543      -5288.6928      4258.3999      50315.299      43.221125    
     18730   1370.6543     -5559.8068     -5287.8493      4346.1025      50316.511      43.281381    
     18740   1372.1922     -5559.4142     -5287.1516      4505.441       50318.933      43.343924    
     18750   1372.0575     -5558.825      -5286.5891      4681.5818      50323.375      43.411394    
     18760   1373.868      -5558.74       -5286.1449      4736.053       50330.668      43.48741     
     18770   1372.3684     -5558.0984     -5285.8008      4651.4168      50340.63       43.571367    
     18780   1366.6765     -5556.7079     -5285.5397      4529.2409      50352.309      43.660407    
     18790   1364.8428     -5556.1406     -5285.3363      4309.1678      50364.558      43.752155    
     18800   1363.5444     -5555.7198     -5285.1731      4104.8595      50376.262      43.844214    
     18810   1356.9915     -5554.2799     -5285.0334      3972.6912      50386.643      43.934316    
     18820   1356.3012     -5554.0067     -5284.8971      3877.9604      50395.129      44.01919     
     18830   1361.9461     -5554.9885     -5284.7589      3901.8483      50401.437      44.094975    
     18840   1370.5816     -5556.5713     -5284.6283      3873.6749      50405.582      44.159252    
     18850   1376.7204     -5557.6897     -5284.5287      3904.9037      50407.482      44.210422    
     18860   1384.3575     -5559.1556     -5284.4793      3918.6708      50407.027      44.246968    
     18870   1394.6535     -5561.231      -5284.5117      3886.9851      50404.113      44.267942    
     18880   1397.3158     -5561.8997     -5284.6522      3885.616       50398.98       44.277419    
     18890   1386.9775     -5560.1129     -5284.9167      4001.5508      50392.293      44.283572    
     18900   1373.8097     -5557.8501     -5285.2666      4096.6304      50384.853      44.294155    
     18910   1374.154      -5558.3284     -5285.6765      4009.9179      50377.56       44.315045    
     18920   1379.1107     -5559.7808     -5286.1454      3789.7091      50370.86       44.346245    
     18930   1379.6648     -5560.441      -5286.6958      3563.2659      50364.196      44.381991    
     18940   1375.6695     -5560.2982     -5287.3457      3407.5459      50356.844      44.417269    
     18950   1365.0409     -5558.9224     -5288.0787      3396.8047      50348.723      44.450283    
     18960   1349.9912     -5556.7236     -5288.866       3518.7464      50340.723      44.483149    
     18970   1332.4236     -5554.0203     -5289.6483      3708.2032      50334.081      44.5201      
     18980   1318.4302     -5551.9625     -5290.3671      3869.4166      50330.045      44.56732     
     18990   1317.7407     -5552.4342     -5290.9756      3955.4446      50329.397      44.630297    
     19000   1325.2507     -5554.4037     -5291.455       3888.9013      50332.035      44.711053    
     19010   1324.995      -5554.7        -5291.802       3930.6363      50337.46       44.807927    
     19020   1323.1726     -5554.5403     -5292.0039      3947.9364      50345.954      44.921403    
     19030   1320.1696     -5553.9694     -5292.0288      3967.8273      50358.422      45.054502    
     19040   1310.1088     -5551.7728     -5291.8285      3975.6351      50376.121      45.211768    
     19050   1321.7048     -5553.5823     -5291.3371      3817.974       50399.682      45.393861    
     19060   1353.4324     -5559.0623     -5290.5219      3516.3175      50427.537      45.592442    
     19070   1374.1894     -5562.0784     -5289.4195      3348.6839      50457.287      45.796721    
     19080   1379.0295     -5561.7261     -5288.1069      3319.6513      50487.783      45.999567    
     19090   1384.9354     -5561.4338     -5286.6428      3308.0529      50518.744      46.197536    
     19100   1400.407      -5562.9441     -5285.0833      3260.3632      50549.939      46.390886    
     19110   1416.7679     -5564.6221     -5283.515       3189.7948      50581.161      46.583212    
     19120   1424.6355     -5564.722      -5282.054       3254.1274      50612.341      46.777455    
     19130   1419.3913     -5562.3988     -5280.7712      3415.664       50644          46.976483    
     19140   1405.0571     -5558.4525     -5279.6691      3662.018       50677.259      47.183283    
     19150   1390.3997     -5554.5725     -5278.6973      3772.97        50713.136      47.399381    
     19160   1386.1533     -5552.8235     -5277.7908      3789.8909      50751.619      47.623245    
     19170   1391.9961     -5553.1047     -5276.9128      3680.1908      50791.592      47.851195    
     19180   1395.5232     -5552.9509     -5276.0591      3581.6965      50830.838      48.074688    
     19190   1401.0835     -5553.2457     -5275.2507      3528.1248      50866.978      48.282854    
     19200   1404.6975     -5553.2117     -5274.4996      3513.2095      50898.268      48.465365    
     19210   1399.9056     -5551.5747     -5273.8134      3614.3798      50924.112      48.618979    
     19220   1388.5286     -5548.6761     -5273.1722      3759.1572      50945.392      48.751151    
     19230   1388.5826     -5548.0503     -5272.5356      3749.3781      50963.993      48.875746    
     19240   1410.6617     -5551.786      -5271.8905      3572.6665      50981.804      49.0049      
     19250   1432.1552     -5555.4485     -5271.2884      3354.7999      50999.882      49.143626    
     19260   1438.5797     -5556.2216     -5270.7867      3324.7029      51018.525      49.29089     
     19270   1435.5829     -5555.2496     -5270.4094      3392.2584      51037.752      49.442672    
     19280   1429.9705     -5553.8624     -5270.1358      3548.0805      51057.325      49.593862    
     19290   1419.4868     -5551.5769     -5269.9304      3781.2208      51076.992      49.74115     
     19300   1408.1355     -5549.146      -5269.7517      3935.2562      51097.46       49.887031    
     19310   1394.6244     -5546.2742     -5269.5607      4130.8276      51120.215      50.03869     
     19320   1380.6431     -5543.2394     -5269.3         4209.4726      51146.773      50.205442    
     19330   1376.8901     -5542.125      -5268.9303      4123.9673      51177.841      50.393295    
     19340   1373.8032     -5540.9974     -5268.4152      3982.85        51213.224      50.603012    
     19350   1366.7175     -5538.9148     -5267.7385      3895.7746      51251.96       50.831503    
     19360   1360.8793     -5536.894      -5266.8761      3788.2866      51292.814      51.074153    
     19370   1370.2269     -5537.6935     -5265.8208      3564.0739      51334.892      51.326322    
     19380   1388.3447     -5540.0559     -5264.5884      3230.1506      51377.235      51.583007    
     19390   1406.1463     -5542.2616     -5263.262       2946.503       51418.438      51.837933    
     19400   1428.9856     -5545.4707     -5261.9395      2710.5339      51457.122      52.085136    
     19410   1447.3887     -5547.9093     -5260.7266      2586.9141      51492.382      52.320768    
     19420   1456.196      -5548.6436     -5259.7134      2505.3998      51523.753      52.542276    
     19430   1457.4983     -5548.1147     -5258.9262      2453.2962      51550.916      52.74553     
     19440   1451.1617     -5546.2749     -5258.3436      2441.7964      51573.659      52.923497    
     19450   1445.5054     -5544.7306     -5257.9216      2335.4089      51591.866      53.068201    
     19460   1445.5596     -5544.4277     -5257.608       2180.5701      51605.286      53.174548    
     19470   1452.1821     -5545.5176     -5257.3838      1993.8737      51613.176      53.240702    
     19480   1459.5725     -5546.8561     -5257.256       1884.2285      51614.225      53.265564    
     19490   1461.8497     -5547.2794     -5257.2275      1934.6596      51607.172      53.248593    
     19500   1458.7202     -5546.7327     -5257.3017      2116.315       51591.632      53.191656    
     19510   1443.2452     -5543.7935     -5257.4329      2473.7266      51567.946      53.098671    
     19520   1424.8406     -5540.2756     -5257.5668      2772.9136      51537.388      52.977125    
     19530   1414.2451     -5538.2388     -5257.6323      2979.8154      51501.414      52.834786    
     19540   1419.1409     -5539.1862     -5257.6083      2951.1938      51460.937      52.676308    
     19550   1431.8186     -5541.6123     -5257.519       2805.6582      51415.861      52.499097    
     19560   1435.5305     -5542.2202     -5257.3904      2759.9579      51365.461      52.29756     
     19570   1435.5613     -5542.0712     -5257.2353      2878.9186      51309.816      52.072091    
     19580   1432.4506     -5541.2505     -5257.0318      3038.1315      51250.514      51.830823    
     19590   1428.4523     -5540.1855     -5256.7601      3179.412       51189.582      51.583886    
     19600   1426.2729     -5539.3942     -5256.4012      3468.7892      51128.977      51.340723    
     19610   1421.3538     -5537.9506     -5255.9336      3783.6475      51070.972      51.112794    
     19620   1420.8539     -5537.265      -5255.3472      3966.6569      51017.682      50.909744    
     19630   1427.7019     -5537.9191     -5254.6426      4009.5026      50970.117      50.738104    
     19640   1441.0698     -5539.7688     -5253.8399      4028.6673      50928.413      50.600518    
     19650   1457.3453     -5542.1345     -5252.9763      3992.5557      50892.319      50.495325    
     19660   1469.5371     -5543.6807     -5252.1035      3934.7695      50861.421      50.418876    
     19670   1476.7013     -5544.267      -5251.2683      3917.785       50835.441      50.368268    
     19680   1478.1683     -5543.7821     -5250.4923      4003.9423      50814.396      50.342561    
     19690   1471.5303     -5541.7551     -5249.7824      4156.3829      50798.708      50.341905    
     19700   1476.0881     -5541.9968     -5249.1198      4320.9502      50788.808      50.366078    
     19710   1483.3754     -5542.8267     -5248.5037      4468.0564      50784.829      50.414871    
     19720   1473.0221     -5540.2174     -5247.9487      4639.1923      50786.799      50.489105    
     19730   1461.423      -5537.3932     -5247.4259      4703.5496      50795.236      50.590987    
     19740   1463.6714     -5537.3042     -5246.8908      4508.1352      50810.661      50.722109    
     19750   1464.087      -5536.8314     -5246.3356      4327.4088      50832.653      50.880755    
     19760   1449.3081     -5533.3033     -5245.7399      4300.5924      50860.438      51.064213    
     19770   1435.3416     -5529.8536     -5245.0613      4360.7391      50893.69       51.271927    
     19780   1443.6904     -5530.6956     -5244.2467      4364.2193      50932.14       51.502789    
     19790   1465.9001     -5534.1438     -5243.2882      4308.0757      50975.428      51.755115    
     19800   1485.4903     -5536.9948     -5242.2522      4314.3712      51023.612      52.030136    
     19810   1491.4114     -5537.1193     -5241.2019      4288.204       51077.027      52.330619    
     19820   1485.5911     -5534.9224     -5240.1598      4341.9681      51135.25       52.656288    
     19830   1479.4173     -5532.6438     -5239.1062      4234.7352      51197.047      53.003254    
     19840   1476.9868     -5531.0731     -5238.0178      4104.1058      51260.76       53.365473    
     19850   1476.9789     -5529.939      -5236.8852      3801.1345      51324.975      53.737716    
     19860   1481.8374     -5529.7266     -5235.7088      3361.9173      51388.545      54.115191    
     19870   1491.1487     -5530.3671     -5234.5018      2974.3631      51449.728      54.488711    
     19880   1494.3961     -5529.8181     -5233.3085      2695.8503      51506.431      54.843509    
     19890   1494.6631     -5528.7374     -5232.1749      2581.8039      51557.287      55.16678     
     19900   1498.7149     -5528.4895     -5231.123       2632.3154      51601.506      55.450796    
     19910   1498.6358     -5527.5286     -5230.1778      2836.545       51638.773      55.695057    
     19920   1493.6921     -5525.7316     -5229.3617      3111.9773      51669.36       55.905288    
     19930   1488.0183     -5523.9034     -5228.6593      3346.1278      51694.044      56.090957    
     19940   1486.819      -5523.0696     -5228.0634      3443.676       51713.838      56.260778    
     19950   1488.731      -5522.9553     -5227.5698      3438.7744      51729.453      56.417012    
     19960   1480.8023     -5520.9829     -5227.1705      3530.5042      51741.341      56.559494    
     19970   1468.0358     -5518.1111     -5226.8318      3605.8629      51749.334      56.684321    
     19980   1473.6774     -5518.9142     -5226.5155      3542.6936      51752.385      56.783325    
     19990   1488.8079     -5521.6219     -5226.2211      3546.5504      51749.285      56.848832    
     20000   1497.4781     -5523.0945     -5225.9734      3591.3002      51739.452      56.877471    
Loop time of 3647.03 on 1 procs for 10000 steps with 1536 atoms

Performance: 0.118 ns/day, 202.613 hours/ns, 2.742 timesteps/s, 4.212 katom-step/s
125.0% CPU use with 1 MPI tasks x 1 OpenMP threads

MPI task timing breakdown:
Section |  min time  |  avg time  |  max time  |%varavg| %total
---------------------------------------------------------------
Pair    | 3620.6     | 3620.6     | 3620.6     |   0.0 | 99.28
Bond    | 0.0032159  | 0.0032159  | 0.0032159  |   0.0 |  0.00
Neigh   | 2.8461     | 2.8461     | 2.8461     |   0.0 |  0.08
Comm    | 0.3552     | 0.3552     | 0.3552     |   0.0 |  0.01
Output  | 22.415     | 22.415     | 22.415     |   0.0 |  0.61
Modify  | 0.71183    | 0.71183    | 0.71183    |   0.0 |  0.02
Other   |            | 0.06952    |            |       |  0.00

Nlocal:           1536 ave        1536 max        1536 min
Histogram: 1 0 0 0 0 0 0 0 0 0
Nghost:           2534 ave        2534 max        2534 min
Histogram: 1 0 0 0 0 0 0 0 0 0
Neighs:              0 ave           0 max           0 min
Histogram: 1 0 0 0 0 0 0 0 0 0
FullNghs:        46164 ave       46164 max       46164 min
Histogram: 1 0 0 0 0 0 0 0 0 0

Total # of neighbors = 46164
Ave neighs/atom = 30.054688
Ave special neighs/atom = 0
Neighbor list builds = 975
Dangerous builds = 894
unfix           2

write_data      structure.ready.data
System init for write_data ...

write_restart   structure.ready
System init for write_restart ...
    
Total wall time: 2:05:31
