LAMMPS (29 Sep 2021 - Update 3)
OMP_NUM_THREADS environment is not set. Defaulting to 1 thread. (src/comm.cpp:98)
  using 1 OpenMP thread(s) per MPI task
units	metal
atom_style	full

read_data	mixed.data
Reading data file ...
  orthogonal box = (0.0000000 0.0000000 0.0000000) to (18.492711 18.368364 83.044081)
  2 by 1 by 8 MPI processor grid
  reading atoms ...
  864 atoms
Finding 1-2 1-3 1-4 neighbors ...
  special bond factors lj:    0        0        0       
  special bond factors coul:  0        0        0       
     0 = max # of 1-2 neighbors
     0 = max # of 1-3 neighbors
     0 = max # of 1-4 neighbors
     1 = max # of special neighbors
  special bonds CPU = 0.003 seconds
  read_data CPU = 0.015 seconds

pair_style	quip
pair_coeff	* * /ocean/projects/cts180021p/wuziqi/clease/mint-PD/PhaseDiagram-Clease/Liquid/GAP_potential/gap_LiKCl.xml "Potential xml_label=GAP_2021_9_27_0_1_17_37_618" 17 19 3

neighbor	0.3 bin
neigh_modify	delay 10

timestep	0.001
compute	msd all msd
thermo_style	custom step temp pe etotal press vol c_msd[4]
thermo	10
dump	1 all custom 10 xyz-mix.dump type id x y z
dump	2 all custom 10 force-mix.dump type id fx fy fz

fix     1 all nve
run     2000
Neighbor list info ...
  update every 1 steps, delay 10 steps, check yes
  max neighbors/atom: 2000, page size: 100000
  master list distance cutoff = 6.22
  ghost atom cutoff = 6.22
  binsize = 3.11, bins = 6 6 27
  1 neighbor lists, perpetual/occasional/extra = 1 0 0
  (1) pair quip, perpetual
      attributes: full, newton on
      pair build: full/bin
      stencil: full/bin/3d
      bin: standard
Per MPI rank memory allocation (min/avg/max) = 8.888 | 8.895 | 8.900 Mbytes
Step Temp PotEng TotEng Press Volume c_msd[4] 
       0            0   -7973.6696   -7973.6696   -2874.2394    28208.484            0 
      10    41.278351   -7978.2784   -7973.6737   -2959.4518    28208.484 0.00023887099 
      20    117.01377   -7986.7312   -7973.6782   -2971.9336    28208.484 0.0029537371 
      30    174.81925   -7993.1785   -7973.6771   -2824.2466    28208.484  0.010160551 
      40    218.44962    -7998.045   -7973.6766   -2720.6333    28208.484  0.020641735 
      50    256.00476   -8002.2349   -7973.6771   -2700.3711    28208.484  0.032489043 
      60    281.23595   -8005.0509   -7973.6786   -2720.3164    28208.484  0.045481137 
      70    279.84796   -8004.8936   -7973.6762   -2497.2427    28208.484  0.060875411 
      80    275.57271   -8004.4166   -7973.6761   -2346.6282    28208.484  0.078472831 
      90    275.14134   -8004.3684    -7973.676   -2375.5075    28208.484  0.097756432 
     100    277.97329   -8004.6843   -7973.6759   -2450.2098    28208.484   0.11838341 
     110    284.32121   -8005.3929   -7973.6764   -2585.3887    28208.484    0.1397563 
     120    288.42818   -8005.8514   -7973.6768   -2555.7238    28208.484   0.16133553 
     130    287.27066   -8005.7216   -7973.6761   -2379.8786    28208.484   0.18293983 
     140    286.58177   -8005.6454   -7973.6767   -2199.4073    28208.484   0.20440576 
     150    283.09159    -8005.256   -7973.6767   -2058.8623    28208.484   0.22545748 
     160    281.87093     -8005.12   -7973.6769   -2002.9487    28208.484   0.24504756 
     170    281.00839    -8005.024   -7973.6771   -2057.3307    28208.484   0.26222423 
     180    282.68046     -8005.21   -7973.6765   -2118.7926    28208.484   0.27648184 
     190    291.53832   -8006.1995   -7973.6779   -2237.0667    28208.484   0.28923786 
     200    293.64302   -8006.4325   -7973.6762   -2373.3356    28208.484   0.30372277 
     210    298.64228   -8006.9936   -7973.6796   -2435.1957    28208.484   0.32052492 
     220    292.65421   -8006.3221   -7973.6761   -2273.8456    28208.484   0.33666335 
     230    296.18967   -8006.7198   -7973.6794   -2277.4624    28208.484   0.34931106 
     240    282.07352   -8005.1401   -7973.6743   -2198.7147    28208.484   0.36070053 
     250    293.47873    -8006.417    -7973.679   -2346.9356    28208.484   0.37209929 
     260    294.86866   -8006.5718   -7973.6788   -2406.0825    28208.484   0.38456478 
     270    292.66954   -8006.3399   -7973.6921   -2371.6679    28208.484   0.39632792 
     280    288.22645   -8005.8424   -7973.6903   -2343.9303    28208.484   0.40740341 
     290    280.03766   -8004.9272   -7973.6886   -2399.6918    28208.484   0.41930862 
     300    280.42672   -8004.9707   -7973.6886   -2493.7264    28208.484   0.43203295 
     310    287.66524   -8005.7795     -7973.69   -2540.7382    28208.484   0.44617059 
     320    287.59248   -8005.7709   -7973.6895   -2479.6365    28208.484   0.46153129 
     330    287.30367   -8005.7384   -7973.6892   -2430.7941    28208.484   0.47558463 
     340      291.107   -8006.1632   -7973.6897   -2433.3574    28208.484   0.48761679 
     350    290.07985   -8006.0486   -7973.6898   -2407.8749    28208.484   0.49931209 
     360    283.46216   -8005.3096    -7973.689    -2324.857    28208.484   0.51138392 
     370    283.31611   -8005.2933    -7973.689   -2223.9029    28208.484   0.52363749 
     380    293.81781   -8006.4657   -7973.6899   -2201.7975    28208.484   0.53571675 
     390    300.79692   -8007.2454   -7973.6911   -2203.1603    28208.484   0.54763687 
     400    296.63974     -8006.78   -7973.6894   -2207.2978    28208.484   0.55946952 
     410     295.9675   -8006.7055   -7973.6899    -2389.454    28208.484   0.57119336 
     420    296.34311   -8006.7466   -7973.6891   -2528.2941    28208.484   0.58115249 
     430    302.08464   -8007.3879   -7973.6899   -2546.6384    28208.484   0.58802692 
     440    300.89773   -8007.2566    -7973.691   -2408.1467    28208.484   0.59313659 
     450    295.75798   -8006.6815   -7973.6893   -2201.4544    28208.484   0.59704421 
     460    298.71554   -8007.0127   -7973.6905   -2097.6901    28208.484   0.60034051 
     470    293.57038   -8006.4367   -7973.6885   -1853.8963    28208.484   0.60455383 
     480    299.68957   -8007.1205   -7973.6897   -1687.1392    28208.484   0.60898733 
     490    304.28303    -8007.634   -7973.6908   -1569.5251    28208.484   0.61372446 
     500    297.76534   -8006.9049   -7973.6887   -1520.9163    28208.484   0.61909997 
     510     298.0343    -8006.936   -7973.6898   -1578.3555    28208.484     0.624484 
     520    298.51386   -8006.9892   -7973.6895   -1617.2528    28208.484   0.63055005 
     530    299.67651    -8007.119   -7973.6896   -1583.6011    28208.484   0.63765456 
     540    301.93935   -8007.3714   -7973.6896    -1486.536    28208.484   0.64551302 
     550    304.04909   -8007.6074   -7973.6903   -1392.2763    28208.484    0.6536082 
     560    304.32541   -8007.6381   -7973.6901   -1287.1967    28208.484   0.66116979 
     570    303.65289   -8007.5627   -7973.6898   -1155.3607    28208.484   0.66831766 
     580    306.61685   -8007.8931   -7973.6895   -1197.3354    28208.484   0.67540713 
     590    314.13334   -8008.7329   -7973.6909   -1349.2051    28208.484   0.68183493 
     600    314.58012   -8008.7816   -7973.6897   -1383.1623    28208.484   0.68848067 
     610    313.36382   -8008.6461   -7973.6899   -1339.6031    28208.484   0.69624527 
     620     312.9428   -8008.5985   -7973.6893   -1300.0364    28208.484   0.70606469 
     630    317.72028    -8009.132   -7973.6899   -1341.7477    28208.484   0.71807814 
     640    322.57063   -8009.6733   -7973.6901   -1410.5145    28208.484   0.73069429 
     650    323.60168   -8009.7886   -7973.6903   -1540.2113    28208.484   0.74223138 
     660    318.39172   -8009.2068   -7973.6897   -1568.6259    28208.484   0.75263353 
     670    316.27474   -8008.9702   -7973.6892   -1586.0839    28208.484    0.7619451 
     680    320.95534   -8009.4935   -7973.6904   -1558.4885    28208.484   0.77150239 
     690    319.85933   -8009.3708     -7973.69    -1459.468    28208.484   0.78296875 
     700    315.81982   -8008.9199   -7973.6897   -1330.2989    28208.484   0.79605918 
     710    316.18394   -8008.9601   -7973.6893   -1285.6029    28208.484   0.80930055 
     720    321.99795   -8009.6098   -7973.6904   -1374.2337    28208.484   0.82124899 
     730    320.60154   -8009.4538   -7973.6902   -1440.5044    28208.484   0.83277534 
     740    316.58517   -8009.0043   -7973.6888   -1452.0725    28208.484    0.8439361 
     750    321.27163   -8009.5293    -7973.691   -1655.1798    28208.484     0.854338 
     760    314.38368   -8008.7598   -7973.6899   -1838.5562    28208.484   0.86584884 
     770     305.9368   -8007.8166   -7973.6889   -1999.9526    28208.484   0.87941766 
     780    305.71483   -8007.7927   -7973.6897   -2140.7584    28208.484   0.89394007 
     790    305.84031   -8007.8065   -7973.6896   -2209.2571    28208.484   0.90782838 
     800    306.48205   -8007.8784   -7973.6899   -2275.1918    28208.484   0.92026204 
     810    304.33355   -8007.6388   -7973.6899   -2343.4421    28208.484   0.93178116 
     820    297.82924   -8006.9125   -7973.6892   -2314.2529    28208.484    0.9431626 
     830    296.11711   -8006.7216   -7973.6893   -2340.1192    28208.484   0.95457823 
     840    299.50491   -8007.0998   -7973.6896   -2406.4366    28208.484   0.96506277 
     850    304.52466   -8007.6597   -7973.6895   -2460.7845    28208.484   0.97329313 
     860     310.8399   -8008.3649   -7973.6902   -2449.0401    28208.484   0.97916609 
     870    310.67413   -8008.3459   -7973.6897   -2327.6881    28208.484   0.98350092 
     880    309.42712   -8008.2065   -7973.6894   -2225.4629    28208.484   0.98651824 
     890    311.26126   -8008.4116   -7973.6899    -2248.854    28208.484   0.98981853 
     900    313.26109   -8008.6341   -7973.6893   -2271.1415    28208.484     0.995508 
     910    320.18937   -8009.4082   -7973.6906   -2399.0494    28208.484    1.0049166 
     920    319.06768   -8009.2826   -7973.6901    -2517.896    28208.484    1.0179539 
     930    311.48412   -8008.4358   -7973.6893   -2630.8665    28208.484    1.0322955 
     940    307.33364   -8007.9728   -7973.6893   -2692.4224    28208.484    1.0452919 
     950    306.79072   -8007.9125   -7973.6895   -2690.0291    28208.484    1.0559933 
     960    307.40028   -8007.9805   -7973.6895    -2685.778    28208.484    1.0648912 
     970    308.12458   -8008.0613   -7973.6895   -2650.3957    28208.484    1.0729687 
     980    308.40186   -8008.0924   -7973.6897   -2580.8757    28208.484    1.0808973 
     990    307.35297   -8007.9752   -7973.6895    -2481.356    28208.484    1.0887898 
    1000    307.21435     -8007.96   -7973.6898   -2353.6684    28208.484    1.0961224 
    1010    306.76152   -8007.9091   -7973.6894   -2248.7956    28208.484    1.1027335 
    1020    309.26646    -8008.189   -7973.6898   -2286.0041    28208.484    1.1099454 
    1030    310.25342   -8008.2989   -7973.6897   -2305.1256    28208.484    1.1183111 
    1040    307.62812   -8008.0062   -7973.6898    -2294.831    28208.484    1.1271276 
    1050    300.85261   -8007.2498   -7973.6892   -2274.7356    28208.484    1.1353455 
    1060    298.03491   -8006.9356   -7973.6894   -2274.0022    28208.484    1.1412949 
    1070     298.1827   -8006.9525   -7973.6898   -2240.2755    28208.484    1.1449307 
    1080    298.32389   -8006.9674   -7973.6889   -2186.0158    28208.484    1.1478628 
    1090    304.12167   -8007.6156   -7973.6903   -2224.5843    28208.484    1.1507358 
    1100    303.21342   -8007.5135   -7973.6896   -2273.1413    28208.484    1.1542182 
    1110    302.55349   -8007.4391   -7973.6888   -2350.8777    28208.484    1.1583885 
    1120    311.89752   -8008.4827   -7973.6901   -2437.4889    28208.484     1.162828 
    1130    317.78566     -8009.14   -7973.6905   -2446.8483    28208.484     1.167408 
    1140    311.56568   -8008.4454   -7973.6898   -2410.0182    28208.484    1.1717043 
    1150    303.07264   -8007.4971   -7973.6889   -2380.3816    28208.484    1.1751291 
    1160    303.70308   -8007.5677   -7973.6892    -2470.872    28208.484    1.1775178 
    1170    310.51899   -8008.3284   -7973.6895   -2617.7569    28208.484    1.1788381 
    1180    316.91994   -8009.0426   -7973.6898   -2682.3818    28208.484    1.1790698 
    1190    320.34041   -8009.4241   -7973.6896   -2666.8258    28208.484    1.1789053 
    1200    321.06279   -8009.5055   -7973.6905   -2603.0061    28208.484    1.1796194 
    1210    314.26027   -8008.7456   -7973.6894   -2485.4053    28208.484    1.1821764 
    1220    309.32884    -8008.196   -7973.6899    -2464.998    28208.484    1.1865082 
    1230    306.19371   -8007.8458   -7973.6895   -2530.8384    28208.484    1.1911967 
    1240    306.63151   -8007.8948   -7973.6896   -2616.4378    28208.484    1.1944331 
    1250    309.06475   -8008.1663   -7973.6897   -2607.8093    28208.484    1.1957913 
    1260    312.48643   -8008.5482   -7973.6898    -2462.899    28208.484    1.1957707 
    1270    312.94072   -8008.5995   -7973.6905   -2234.5909    28208.484    1.1949586 
    1280    309.44145   -8008.2076   -7973.6889   -2027.1289    28208.484    1.1941489 
    1290    314.87458   -8008.8149   -7973.6902   -1974.2087    28208.484    1.1943163 
    1300    319.36818   -8009.3159   -7973.6899   -1982.4404    28208.484     1.195877 
    1310    321.84143   -8009.5922   -7973.6903   -1943.5386    28208.484    1.1987306 
    1320    321.73486     -8009.58     -7973.69    -1845.706    28208.484    1.2036004 
    1330    320.53672   -8009.4466   -7973.6902   -1700.8294    28208.484    1.2106875 
    1340    314.45984   -8008.7682   -7973.6898   -1509.1942    28208.484    1.2186301 
    1350    308.88407   -8008.1459   -7973.6894   -1443.5528    28208.484    1.2257175 
    1360    308.85021   -8008.1421   -7973.6894   -1546.3935    28208.484    1.2310073 
    1370    314.64585   -8008.7893   -7973.6901   -1721.3694    28208.484     1.234708 
    1380    316.29012   -8008.9734   -7973.6908   -1817.9195    28208.484    1.2377498 
    1390    307.32275   -8007.9718   -7973.6895   -1803.5548    28208.484    1.2409119 
    1400    301.76471   -8007.3515   -7973.6892   -1859.1426    28208.484    1.2443267 
    1410    303.86241   -8007.5861   -7973.6897   -1936.9087    28208.484    1.2481193 
    1420    306.88628   -8007.9231   -7973.6894   -1917.1497    28208.484    1.2526965 
    1430    311.21927   -8008.4068   -7973.6898   -1887.7633    28208.484    1.2583105 
    1440    313.42496   -8008.6528   -7973.6898   -1851.4527    28208.484    1.2642026 
    1450     313.3569   -8008.6451   -7973.6897   -1798.7574    28208.484     1.269636 
    1460    313.21275   -8008.6295   -7973.6901   -1825.1156    28208.484    1.2754342 
    1470    309.64761   -8008.2313   -7973.6896   -1804.0626    28208.484    1.2823313 
    1480    309.40126   -8008.2029   -7973.6887   -1783.0935    28208.484    1.2890305 
    1490    320.42565   -8009.4341   -7973.6901   -1893.3186    28208.484    1.2938055 
    1500    328.10175   -8010.2905   -7973.6903   -1974.4184    28208.484    1.2976917 
    1510    327.81197   -8010.2577   -7973.6898    -1937.058    28208.484    1.3022885 
    1520     324.2243   -8009.8576   -7973.6899   -1828.5619    28208.484    1.3070588 
    1530    318.99753   -8009.2739   -7973.6893   -1744.3097    28208.484    1.3111416 
    1540    315.99968   -8008.9401   -7973.6899   -1679.5222    28208.484    1.3147163 
    1550    311.82694   -8008.4737   -7973.6889   -1676.3191    28208.484     1.318865 
    1560    315.99733   -8008.9396   -7973.6896   -1782.1266    28208.484    1.3245612 
    1570    321.70035   -8009.5765   -7973.6904   -1943.6277    28208.484    1.3315419 
    1580    318.91113   -8009.2648   -7973.6898   -1980.5418    28208.484     1.338424 
    1590    316.40503   -8008.9842   -7973.6888   -1871.1257    28208.484    1.3448929 
    1600    323.69059   -8009.7984   -7973.6903   -1863.2593    28208.484    1.3517889 
    1610    324.55521    -8009.895   -7973.6903   -1926.3043    28208.484    1.3589892 
    1620    317.22283   -8009.0757    -7973.689    -2033.451    28208.484    1.3640281 
    1630    315.56944   -8008.8917   -7973.6895   -2189.5743    28208.484    1.3650114 
    1640          316   -8008.9396   -7973.6894   -2246.5115    28208.484     1.363698 
    1650     317.3618   -8009.0917   -7973.6895   -2167.3771    28208.484    1.3628757 
    1660    317.92845   -8009.1553   -7973.6899   -2101.0814    28208.484    1.3639966 
    1670    314.61233   -8008.7852   -7973.6897   -2010.9785    28208.484    1.3669961 
    1680    312.18324   -8008.5133   -7973.6888   -2055.2147    28208.484     1.371293 
    1690    317.45918   -8009.1028   -7973.6897    -2191.224    28208.484    1.3761955 
    1700    321.08797   -8009.5076   -7973.6898   -2266.1824    28208.484    1.3813209 
    1710    322.36089   -8009.6492   -7973.6893   -2262.0514    28208.484    1.3861808 
    1720    325.18317   -8009.9643   -7973.6896   -2258.3202    28208.484    1.3904451 
    1730    326.15411   -8010.0728   -7973.6898    -2317.316    28208.484     1.394947 
    1740     323.8725   -8009.8181   -7973.6896   -2287.8062    28208.484    1.4007384 
    1750    320.41839   -8009.4325   -7973.6894   -2200.4994    28208.484    1.4075406 
    1760     319.2517   -8009.3028   -7973.6898   -2148.7833    28208.484     1.414045 
    1770    317.70647   -8009.1306     -7973.69    -2060.265    28208.484    1.4199919 
    1780    313.91842   -8008.7076   -7973.6895   -1900.1987    28208.484    1.4259827 
    1790    313.00692   -8008.6058   -7973.6894   -1752.6987    28208.484    1.4322179 
    1800     316.3606   -8008.9805     -7973.69   -1656.4741    28208.484    1.4376798 
    1810    317.06323    -8009.059   -7973.6901   -1611.9912    28208.484    1.4414287 
    1820    314.75826    -8008.801   -7973.6892    -1594.078    28208.484    1.4434919 
    1830    319.39788   -8009.3191   -7973.6898   -1580.2478    28208.484    1.4448335 
    1840    326.94741   -8010.1618   -7973.6903   -1586.0007    28208.484    1.4478206 
    1850     328.2751   -8010.3099   -7973.6903   -1510.9657    28208.484    1.4534245 
    1860    325.54844   -8010.0044    -7973.689   -1434.8489    28208.484    1.4597334 
    1870    330.22766   -8010.5276   -7973.6902   -1485.8246    28208.484    1.4649668 
    1880    331.47708   -8010.6665   -7973.6897   -1548.2944    28208.484    1.4702024 
    1890    330.21474   -8010.5256   -7973.6896   -1516.0861    28208.484    1.4764703 
    1900    331.58833   -8010.6782    -7973.689   -1442.8287    28208.484    1.4834549 
    1910    337.92691   -8011.3872    -7973.691   -1475.0881    28208.484    1.4904186 
    1920     332.3277   -8010.7614   -7973.6897   -1417.3686    28208.484    1.4973123 
    1930    326.40875   -8010.1005   -7973.6891    -1294.946    28208.484    1.5028962 
    1940    327.61985   -8010.2367   -7973.6902   -1344.4187    28208.484    1.5071937 
    1950    326.33555   -8010.0933   -7973.6901   -1454.2005    28208.484    1.5117741 
    1960    320.98412   -8009.4961   -7973.6898    -1539.947    28208.484    1.5179832 
    1970    316.38994    -8008.983   -7973.6892   -1494.5471    28208.484    1.5266599 
    1980    318.66568   -8009.2379   -7973.6903    -1430.619    28208.484     1.537506 
    1990    319.09324   -8009.2848   -7973.6895   -1383.3475    28208.484     1.548395 
    2000    324.20331   -8009.8559   -7973.6905   -1553.3118    28208.484     1.556546 
Loop time of 913.146 on 16 procs for 2000 steps with 864 atoms

Performance: 0.189 ns/day, 126.826 hours/ns, 2.190 timesteps/s
97.6% CPU use with 16 MPI tasks x 1 OpenMP threads

MPI task timing breakdown:
Section |  min time  |  avg time  |  max time  |%varavg| %total
---------------------------------------------------------------
Pair    | 501.26     | 710.26     | 903.1      | 460.0 | 77.78
Bond    | 0.00012136 | 0.00034165 | 0.00079107 |   0.0 |  0.00
Neigh   | 0.021027   | 0.034915   | 0.12497    |  14.0 |  0.00
Comm    | 9.105      | 199.1      | 410.67     | 868.5 | 21.80
Output  | 0.32091    | 3.6713     | 12.095     | 197.4 |  0.40
Modify  | 0.0072393  | 0.0087842  | 0.012404   |   1.2 |  0.00
Other   |            | 0.06658    |            |       |  0.01

Nlocal:        54.0000 ave          63 max          48 min
Histogram: 5 0 1 2 2 1 1 2 0 2
Nghost:        409.688 ave         449 max         386 min
Histogram: 3 3 1 3 2 1 1 0 0 2
Neighs:         0.00000 ave           0 max           0 min
Histogram: 16 0 0 0 0 0 0 0 0 0
FullNghs:      1604.62 ave        2106 max        1301 min
Histogram: 5 0 2 2 2 0 2 1 1 1

Total # of neighbors = 25674
Ave neighs/atom = 29.715278
Ave special neighs/atom = 0.0000000
Neighbor list builds = 199
Dangerous builds = 198
unfix   1

velocity    all create 825.0 1312343 dist gaussian
fix     2 all npt temp 825.0 825.0 $(100.0*dt) aniso 0.0 1.01325 $(1000.0*dt)
fix     2 all npt temp 825.0 825.0 0.10000000000000000555 aniso 0.0 1.01325 $(1000.0*dt)
fix     2 all npt temp 825.0 825.0 0.10000000000000000555 aniso 0.0 1.01325 1
run     3000
Per MPI rank memory allocation (min/avg/max) = 8.893 | 8.897 | 8.900 Mbytes
Step Temp PotEng TotEng Press Volume c_msd[4] 
    2000          825   -8009.8559   -7917.8259     562.0089    28208.484     1.556546 
    2010    773.43705   -8004.0878   -7917.8098    825.26616    28209.236    1.5598513 
    2020    691.76067   -7994.8601   -7917.6931    1232.4139    28212.018    1.5672504 
    2030    635.37103   -7988.2346    -7917.358    1616.4167    28217.786    1.5756958 
    2040    598.70222   -7983.5215   -7916.7353     1934.662    28227.476    1.5863485 
    2050    578.64333   -7980.3761   -7915.8276    1999.0257    28241.832    1.6014265 
    2060    574.08171   -7978.7762   -7914.7366    1839.7914    28261.042    1.6213398 
    2070    574.47159    -7977.734   -7913.6509    1460.8569    28284.737    1.6442797 
    2080    583.67472   -7977.7793   -7912.6695    794.55057    28311.992    1.6677834 
    2090    581.44419   -7976.6037   -7911.7428    299.44485    28341.315    1.6914655 
    2100    570.67304   -7974.4544    -7910.795     56.96168    28371.503    1.7157713 
    2110    562.63232    -7972.524   -7909.7615    86.265794    28401.976     1.739435 
    2120    565.02821    -7971.651   -7908.6212    227.23189    28432.764    1.7611536 
    2130    566.82792   -7970.6218   -7907.3912     289.4645    28464.163    1.7809808 
    2140    574.43212   -7970.1852   -7906.1064    142.61885    28496.307    1.7975959 
    2150    599.56263     -7971.64   -7904.7579   -229.34589     28528.82    1.8100261 
    2160    621.22051   -7972.6508   -7903.3527    -406.6487    28560.887    1.8205591 
    2170    634.27777   -7972.6817   -7901.9271   -562.09868    28592.011    1.8319403 
    2180    642.84014   -7972.1975   -7900.4877   -721.72173    28621.789    1.8457773 
    2190    643.67367   -7970.8422   -7899.0394   -753.82694    28649.838    1.8621754 
    2200    646.75631   -7969.7263   -7897.5797   -757.64094    28676.049     1.879733 
    2210    644.28385   -7967.9736   -7896.1028   -772.86226    28700.377    1.8964943 
    2220    634.41323   -7965.3901   -7894.6203   -684.23745    28722.804    1.9097208 
    2230     635.8762   -7964.0569   -7893.1239   -733.92256    28743.489    1.9179605 
    2240    645.04951   -7963.5519   -7891.5956   -785.35265    28762.338    1.9233132 
    2250    656.03316   -7963.2269   -7890.0454   -645.08483    28779.271    1.9292437 
    2260    668.64217   -7963.0744   -7888.4863   -430.55089     28794.61    1.9380261 
    2270    679.81787   -7962.7577    -7886.923   -381.28131    28808.828     1.950766 
    2280    682.79645   -7961.5309   -7885.3639   -378.04962    28822.081    1.9678675 
    2290    691.98063   -7961.0018   -7883.8103   -352.03411    28834.378    1.9887368 
    2300    700.62221   -7960.4068   -7882.2513   -123.78135    28845.844    2.0120715 
    2310    703.46306   -7959.1726   -7880.7003    145.86949    28857.017    2.0358932 
    2320    707.60805   -7958.0943   -7879.1595    293.60297    28868.561    2.0573522 
    2330    719.73426   -7957.9028   -7877.6153    285.36659    28880.853    2.0741545 
    2340    733.92032    -7957.939   -7876.0691    172.79006    28893.885    2.0860236 
    2350    752.04612   -7958.4218   -7874.5299   -89.983463    28907.342    2.0949496 
    2360    755.22343   -7957.2629   -7873.0166   -303.62817    28920.611    2.1053425 
    2370     752.6423   -7955.5083   -7871.5499   -425.82098    28933.149    2.1200145 
    2380    761.30997   -7955.0284   -7870.1031   -492.42755     28944.63    2.1383243 
    2390    760.59127   -7953.5196   -7868.6745   -291.69228    28954.954    2.1598866 
    2400    752.78628   -7951.2504    -7867.276   -36.994509    28964.576    2.1847487 
    2410    755.61133   -7950.1789   -7865.8893     78.62676    28974.107    2.2113939 
    2420    772.80903    -7950.696    -7864.488   -70.237644    28983.809    2.2380178 
    2430    794.10723   -7951.6709    -7863.087   -153.24909    28993.398    2.2628474 
    2440    803.18656   -7951.3164   -7861.7197   -53.654206    29002.673    2.2855733 
    2450     806.1675   -7950.3466   -7860.4174    56.703721    29011.844    2.3074098 
    2460     791.9865   -7947.5221   -7859.1748    315.15827    29021.244    2.3312856 
    2470    778.15287   -7944.7904   -7857.9863     432.8824    29031.462    2.3590895 
    2480    779.97447   -7943.8051   -7856.7978     217.6509    29042.777    2.3904105 
    2490    789.39506   -7943.6494   -7855.5912    14.788076    29054.714    2.4243046 
    2500     804.7413   -7944.1515   -7854.3814    89.179113    29066.839    2.4587334 
    2510    836.59581   -7946.5097   -7853.1862   -10.340004      29079.2    2.4908607 
    2520     841.6033   -7945.9322     -7852.05    160.73736    29091.677    2.5209857 
    2530    844.33262    -7945.202   -7851.0154    118.50459    29104.555    2.5490066 
    2540    852.56573   -7945.1646   -7850.0596    84.312574    29117.832    2.5755638 
    2550    849.54418   -7943.9612   -7849.1933    240.90456    29131.441    2.6026671 
    2560    830.10205   -7941.0093   -7848.4102     542.9152    29145.792    2.6301512 
    2570    827.29331   -7939.9633   -7847.6775    588.97467     29161.57      2.65518 
    2580    838.78604   -7940.5212   -7846.9534    493.99839    29178.965    2.6770154 
    2590    857.36991   -7941.9017   -7846.2608    250.76988    29197.717    2.6992116 
    2600    860.54133   -7941.6314   -7845.6367    43.223212    29217.253    2.7243606 
    2610    861.37723   -7941.1899    -7845.102   -228.52631    29236.995    2.7511423 
    2620    865.20105   -7941.1686   -7844.6541   -587.40095    29256.242    2.7780481 
    2630    849.27864   -7939.0304   -7844.2921    -729.2353    29274.136    2.8058208 
    2640    831.24249   -7936.7188   -7843.9924   -900.87028    29290.227    2.8347177 
    2650    841.22798   -7937.5618   -7843.7216   -1346.9718    29303.983    2.8652808 
    2660    845.42059   -7937.7871   -7843.4791   -1661.6969    29314.329    2.8975238 
    2670    851.10127   -7938.2315   -7843.2899   -1843.6366    29320.409      2.92938 
    2680    853.59422    -7938.384   -7843.1643   -1671.8281    29321.801    2.9604223 
    2690    862.92602   -7939.3777    -7843.117   -1493.6535    29318.811     2.990083 
    2700    859.45147   -7939.0317   -7843.1586   -1260.3317    29311.902    3.0156066 
    2710    842.33632   -7937.2433   -7843.2795   -905.17702    29301.669    3.0355233 
    2720    835.01404   -7936.5896   -7843.4426   -611.71985    29288.986    3.0519497 
    2730     840.0759   -7937.3451   -7843.6334   -495.06236    29274.584     3.069605 
    2740    839.72537   -7937.5273   -7843.8546   -537.78291    29258.755    3.0907233 
    2750     825.3576   -7936.1713   -7844.1014   -631.40042    29241.402      3.11591 
    2760    808.35195   -7934.5115   -7844.3387    -724.3631    29222.278    3.1445183 
    2770    806.81263   -7934.5468   -7844.5456   -763.58093    29201.135    3.1740226 
    2780    801.71358   -7934.1418   -7844.7094   -579.00735    29177.905    3.2037257 
    2790    798.86395   -7933.9398   -7844.8253   -454.43826    29153.002    3.2325264 
    2800    799.14902   -7934.0277   -7844.8814   -519.83801    29126.719    3.2596615 
    2810     814.1752   -7935.7082   -7844.8858   -578.11814    29098.921    3.2851063 
    2820    825.63877   -7936.9601   -7844.8588    -522.5473     29069.47    3.3108322 
    2830    826.30355   -7936.9969   -7844.8215   -270.65616    29038.551    3.3391477 
    2840    829.26399   -7937.2944   -7844.7887   -124.65628    29006.694    3.3693418 
    2850    819.75465   -7936.2038   -7844.7589    143.92719     28974.35    3.3979925 
    2860    811.10875   -7935.1971   -7844.7167    257.58279     28942.13     3.423048 
    2870    815.24407   -7935.5947    -7844.653    15.079467     28910.28    3.4458014 
    2880     819.7889   -7936.0204   -7844.5717   -89.158797    28878.312    3.4673683 
    2890    827.46686   -7936.7856   -7844.4805    58.082302    28845.983     3.488612 
    2900    829.87271   -7936.9623   -7844.3887    290.39392    28813.614    3.5095244 
    2910    839.07422   -7937.9078   -7844.3078    524.85456    28781.775    3.5290057 
    2920    836.61785   -7937.5757   -7844.2497     825.4347    28751.095    3.5493403 
    2930    824.10146   -7936.1407    -7844.211    1030.3797    28722.292     3.572075 
    2940    836.28349   -7937.4716   -7844.1829    967.43765    28695.844    3.5980315 
    2950      852.307   -7939.2618   -7844.1857    933.68026    28671.682    3.6298214 
    2960    850.07882   -7939.0736    -7844.246    1041.7718    28649.745    3.6660252 
    2970    841.82398    -7938.269   -7844.3623    1280.8886     28630.31    3.7025845 
    2980     829.5431   -7937.0468     -7844.51    1618.9947     28613.98     3.737205 
    2990     819.4903   -7936.0819   -7844.6665    1637.0903    28601.503    3.7673061 
    3000    822.64564   -7936.5904   -7844.8231    1537.2776    28593.019    3.7918802 
    3010    822.58806   -7936.7409     -7844.98    1496.5797    28588.341    3.8144903 
    3020    821.66945   -7936.7955    -7845.137    1444.1576    28587.372    3.8392784 
    3030    838.31405   -7938.8222    -7845.307    1080.9819    28589.932      3.86809 
    3040    834.13099   -7938.5505   -7845.5019    877.35203    28595.284    3.9018505 
    3050    821.02078   -7937.2995   -7845.7134     834.1993    28602.911    3.9393764 
    3060    817.68947   -7937.1294   -7845.9149    766.17716    28612.684    3.9778431 
    3070    820.26743   -7937.6039   -7846.1019    828.42824    28624.497    4.0152162 
    3080    810.40552   -7936.6746   -7846.2727     1095.937    28638.549    4.0515455 
    3090    800.25421   -7935.6812   -7846.4116    1168.7246    28655.423      4.08664 
    3100    804.24505   -7936.2213   -7846.5066    1043.7131    28675.342    4.1218057 
    3110    793.85675   -7935.1003   -7846.5444    914.94852    28698.055    4.1597534 
    3120    797.92392   -7935.5362   -7846.5265    684.18298    28723.237    4.1989545 
    3130    806.25214   -7936.3846    -7846.446     431.2692     28750.36    4.2368654 
    3140    808.59932   -7936.5189   -7846.3184    380.85726    28778.832    4.2691907 
    3150    814.58245   -7937.0207   -7846.1528    258.54083     28808.45    4.2935425 
    3160     814.5906   -7936.8198    -7845.951    80.063352     28838.91    4.3122567 
    3170    823.18426   -7937.5528   -7845.7254    14.773627    28869.802     4.329902 
    3180    834.05059   -7938.5287   -7845.4891   -5.3555938    28900.939    4.3524372 
    3190    843.13574   -7939.3211    -7845.268   -49.247364    28932.217    4.3829347 
    3200    855.29261   -7940.4897   -7845.0805   -125.21885    28963.509    4.4199288 
    3210    852.05402   -7939.9926   -7844.9447   -210.42248    28994.605    4.4603047 
    3220    845.10988   -7939.1376   -7844.8643   -376.73791    29025.259    4.4989898 
    3230    855.36039   -7940.2533   -7844.8366   -693.70914    29055.001    4.5311541 
    3240    844.25111   -7939.0506   -7844.8731   -829.30999    29083.091    4.5584537 
    3250    815.39746   -7935.9085   -7844.9497   -702.41318    29109.179    4.5860538 
    3260    818.27593   -7936.3074   -7845.0275   -570.58259    29133.496    4.6175405 
    3270    819.58144   -7936.5168   -7845.0913   -369.86201    29156.412    4.6523896 
    3280    803.52068   -7934.7734   -7845.1394   -250.00266    29178.399    4.6871729 
    3290    798.86215   -7934.2581   -7845.1438   -464.86429    29199.678    4.7194811 
    3300    811.08367   -7935.5712   -7845.0936   -660.87289    29219.766    4.7519705 
    3310    819.52424   -7936.4303   -7845.0112    -560.2323    29238.216    4.7874508 
    3320    806.26764   -7934.8493   -7844.9089   -131.11305    29255.301    4.8265547 
    3330    793.75056   -7933.3127   -7844.7686    155.57426    29272.022    4.8664945 
    3340    809.79261   -7934.9022   -7844.5686   -102.95555    29289.023     4.903404 
    3350    812.29643   -7934.9269    -7844.314    -260.2855    29305.811     4.938109 
    3360    803.24839   -7933.6238   -7844.0202   -536.79196    29321.892    4.9716962 
    3370    810.77325   -7934.1277   -7843.6848   -1113.0557    29336.481    5.0035791 
    3380    808.04822   -7933.4511   -7843.3121   -1427.6409    29348.223    5.0339871 
    3390    799.59765   -7932.1049   -7842.9085   -1485.2782    29356.275    5.0623594 
    3400    804.79276    -7932.238   -7842.4622   -1322.2402    29360.488     5.087515 
    3410     814.0407   -7932.7819   -7841.9744   -1136.5925    29361.223    5.1090596 
    3420    819.47735   -7932.8806   -7841.4667   -881.92875    29358.986    5.1273006 
    3430    804.06718    -7930.643   -7840.9481   -386.40347    29354.489    5.1446638 
    3440    798.38483   -7929.4655   -7840.4045   -69.216627    29348.909    5.1641217 
    3450    818.77273   -7931.1495   -7839.8141   0.51728611      29343.1    5.1856738 
    3460    823.78712   -7931.0995   -7839.2048    10.260432    29337.286    5.2076482 
    3470    821.74775   -7930.2763   -7838.6091   -195.92891    29331.436    5.2278246 
    3480    835.19569   -7931.1965   -7838.0291   -419.74462    29325.058    5.2450441 
    3490    839.19464   -7931.0898   -7837.4763   -208.47441    29317.677    5.2599686 
    3500    833.16227   -7929.9041   -7836.9636    243.00851      29309.8    5.2733058 
    3510     835.3809   -7929.6688   -7836.4808    509.00851    29302.513      5.28474 
    3520    847.36939    -7930.553   -7836.0277    385.45715    29296.461    5.2953927 
    3530    850.01774   -7930.4453   -7835.6245    39.279607    29291.354    5.3100217 
    3540    843.31558   -7929.3567   -7835.2835    -172.7717    29286.384    5.3312571 
    3550    840.72481   -7928.7732   -7834.9891   -170.66263    29280.996    5.3551748 
    3560    850.10419   -7929.5623   -7834.7319   -45.780206    29275.178    5.3798153 
    3570    859.02567   -7930.3526   -7834.5269    114.89335    29269.236     5.406779 
    3580    864.95387   -7930.8791   -7834.3922    252.16903    29263.581    5.4350349 
    3590    883.63284   -7932.9274   -7834.3569    87.212103    29258.496    5.4618995 
    3600    879.22116   -7932.5313   -7834.4529   -67.022206    29253.627    5.4868018 
    3610    853.48478   -7929.8769   -7834.6694     130.2694    29248.669    5.5079337 
    3620    847.81101   -7929.5389   -7834.9643    276.29114    29244.021    5.5227854 
    3630    848.29134   -7929.9472    -7835.319    197.98472    29240.036    5.5347444 
    3640      838.777    -7929.294   -7835.7272   -196.27864    29236.469     5.547531 
    3650    832.77918   -7929.0671   -7836.1693   -602.70405    29232.369    5.5619096 
    3660    835.52528   -7929.8346   -7836.6305   -816.52797    29226.719    5.5769785 
    3670    832.91149    -7930.018   -7837.1054    -872.1015    29218.938     5.594692 
    3680    835.63447   -7930.8183    -7837.602   -854.72856    29208.845    5.6158119 
    3690    829.61865   -7930.6606   -7838.1154   -662.75879    29196.491    5.6397646 
    3700    820.70463   -7930.1784   -7838.6275   -449.05954    29182.331    5.6657588 
    3710     817.6905   -7930.3397   -7839.1251   -289.72209    29166.891    5.6938318 
    3720    818.02441   -7930.8477   -7839.5959   -46.050504    29150.623    5.7241744 
    3730    821.11363   -7931.6317   -7840.0352    210.07729    29134.135     5.754142 
    3740    820.78463   -7932.0124   -7840.4526    494.27652    29118.095    5.7803847 
    3750    810.86517   -7931.2988   -7840.8456    691.24902    29103.231    5.8021837 
    3760    803.81299   -7930.8653   -7841.1987    612.87698        29090    5.8212147 
    3770    800.28045    -7930.772   -7841.4995    480.35399    29078.256    5.8410174 
    3780    801.97275   -7931.2068   -7841.7455    326.46736    29067.675     5.862812 
    3790    813.91943   -7932.7405   -7841.9466    202.68405    29057.879    5.8849179 
    3800    830.48156   -7934.7701   -7842.1287    240.99682    29048.583    5.9048756 
    3810    842.60068   -7936.3225   -7842.3291    216.61223    29039.851    5.9204199 
    3820    835.02547    -7935.715   -7842.5667    62.463728    29031.598    5.9315018 
    3830    826.51545   -7935.0296   -7842.8306   -72.809234    29023.464    5.9406107 
    3840     823.9194    -7935.011   -7843.1015   -123.13501    29015.117    5.9534638 
    3850    824.10492   -7935.3045   -7843.3744   -133.89314    29006.415     5.974545 
    3860    819.45086   -7935.0605   -7843.6495   -89.678792    28997.321    6.0022478 
    3870    800.93565   -7933.2508   -7843.9053     310.6743    28988.032    6.0333407 
    3880    793.88849     -7932.67   -7844.1106    758.98841    28979.515    6.0659533 
    3890    796.30549   -7933.0872   -7844.2581    850.28028    28972.799    6.1020868 
    3900    783.21447   -7931.7075   -7844.3388    866.95623    28968.224    6.1394021 
    3910    787.38403   -7932.1767   -7844.3428    591.35062    28965.774    6.1687059 
    3920    794.60766   -7932.8972   -7844.2575     439.3528     28964.87    6.1883463 
    3930    801.25478   -7933.4818   -7844.1006    532.02375    28965.143    6.2037119 
    3940    799.98666   -7933.1243   -7843.8846    674.15575    28966.792    6.2197038 
    3950    798.19578    -7932.652   -7843.6121    689.49651    28970.158    6.2371097 
    3960    803.46957   -7932.9048   -7843.2766    633.77206    28975.308    6.2569331 
    3970    814.49738   -7933.7414    -7842.883    583.54172    28982.135    6.2819113 
    3980    815.01268    -7933.359   -7842.4431    567.09295    28990.532    6.3119932 
    3990    809.05271   -7932.2232   -7841.9722    645.48358    29000.486    6.3437784 
    4000    813.55835   -7932.2189   -7841.4652    522.58122    29012.137    6.3732197 
    4010    841.52262   -7934.8081    -7840.935     245.6792      29025.2    6.3987923 
    4020    854.91892    -7935.794   -7840.4265     140.7246    29039.051    6.4234912 
    4030    844.35042   -7934.1825    -7839.994    277.42414    29053.451    6.4491304 
    4040    827.39899    -7931.921   -7839.6234    446.00499    29068.702    6.4739445 
    4050    825.10572   -7931.3196   -7839.2778    474.60877    29085.216     6.496703 
    4060    832.60352   -7931.8159   -7838.9378      410.808    29103.088    6.5219126 
    4070    839.31409   -7932.2473   -7838.6205    428.00693    29122.242    6.5530302 
    4080    842.20507   -7932.2828   -7838.3335    394.89831    29142.706    6.5885896 
    4090    832.21982    -7930.916   -7838.0806    446.92105    29164.455    6.6243045 
    4100    833.10494   -7930.7901    -7837.856    396.02586    29187.583    6.6554924 
    4110    839.09279   -7931.2509   -7837.6489    369.12523    29212.019    6.6830963 
    4120    835.04362   -7930.6181   -7837.4677    548.39674     29237.77    6.7129251 
    4130    835.11609   -7930.4716   -7837.3131    546.98909    29265.227    6.7505995 
    4140    840.19999   -7930.9012   -7837.1756    428.06872    29294.427    6.7976808 
    4150    847.61676   -7931.6193   -7837.0664    300.76489    29325.111    6.8525736 
    4160    849.65365   -7931.7807   -7837.0005    171.41388    29356.972    6.9104654 
    4170    842.02151   -7930.9152   -7836.9864    137.34875    29389.733    6.9650905 
    4180    832.25104   -7929.8479   -7837.0091   -19.463542    29423.255    7.0094673 
    4190    835.41985   -7930.2445   -7837.0521   -296.43786     29457.13    7.0402819 
    4200    841.16932   -7930.9529   -7837.1192   -510.67432     29490.69    7.0622016 
    4210    840.62011   -7931.0046   -7837.2321   -725.48752    29523.322    7.0834844 
    4220    823.94912   -7929.2945   -7837.3818    -721.3318    29554.521    7.1096482 
    4230    828.82386   -7930.0213   -7837.5647    -918.1742    29584.145    7.1429263 
    4240    818.12092   -7929.0333   -7837.7707   -1225.9662    29611.674    7.1826208 
    4250    811.01059   -7928.4617   -7837.9922   -1460.5997    29636.311    7.2226873 
    4260    827.36439   -7930.5313   -7838.2376   -1713.6993    29657.333    7.2580272 
    4270    829.92245   -7931.1104   -7838.5313   -1654.0653    29674.104    7.2880523 
    4280    842.58847   -7932.9017   -7838.9097   -1590.8599    29686.624    7.3111156 
    4290     851.0739   -7934.3429   -7839.4043   -1434.0866     29695.04    7.3273355 
    4300    851.75812   -7935.0549     -7840.04   -1210.5792    29699.721    7.3380844 
    4310    854.14151   -7936.1057   -7840.8249   -1053.3913    29701.182    7.3486571 
    4320    840.24374   -7935.4593   -7841.7288   -936.58491    29699.807    7.3631313 
    4330     823.4265   -7934.5261   -7842.6717   -861.06668    29695.876     7.377472 
    4340    809.75087   -7933.8959    -7843.567   -758.36195    29689.573    7.3898499 
    4350    804.34697   -7934.0786   -7844.3525     -667.931    29681.133    7.4012451 
    4360    809.05017   -7935.2692   -7845.0185    -624.7608    29670.755    7.4112965 
    4370    801.77223   -7935.0032   -7845.5643   -510.07886    29658.567     7.420564 
    4380    793.12949    -7934.465   -7845.9902   -522.94702    29644.785    7.4292715 
    4390    787.67635   -7934.1668   -7846.3003   -517.62319     29629.39    7.4367833 
    4400    777.14651   -7933.1867   -7846.4948   -323.21655    29612.419    7.4417311 
    4410    781.29023   -7933.7302   -7846.5761   -235.73011    29594.297    7.4425776 
    4420    810.22159   -7936.9539   -7846.5725    -536.1517    29575.173    7.4375621 
    4430      829.183    -7939.026   -7846.5294   -693.80967    29554.383    7.4262128 
    4440    832.98582   -7939.4087   -7846.4878   -691.32588    29531.478    7.4126069 
    4450    829.59345   -7939.0021   -7846.4597   -651.27413    29506.428     7.400292 
    4460    819.30183   -7937.8292   -7846.4348   -584.18003    29479.329    7.3918323 
    4470    810.78781   -7936.8382   -7846.3936   -469.73783    29450.358     7.388436 
    4480    806.77488   -7936.3187   -7846.3217   -151.53544    29419.844    7.3893402 
    4490    797.70944   -7935.1875   -7846.2018    207.65869    29388.602    7.3951688 
    4500    808.70444   -7936.2433   -7846.0312    382.15727    29357.536    7.4033911 
    4510    828.82436   -7938.2793   -7845.8227    619.12845    29327.177    7.4094314 
    4520    824.97413   -7937.6264   -7845.5993    920.19475    29298.164    7.4163809 
    4530    819.80002   -7936.8183   -7845.3684    1027.2901    29271.239    7.4282071 
    4540    831.61039   -7937.8919   -7845.1245    808.55357    29246.678     7.444093 
    4550    831.55889   -7937.6408   -7844.8791    551.40193    29224.008    7.4627752 
    4560     823.4167   -7936.4942   -7844.6408    319.66604    29202.595    7.4833032 
    4570    818.18926   -7935.6639   -7844.3937    124.16129    29181.824    7.5050005 
    4580    828.35814   -7936.5315   -7844.1269   -12.525734    29161.199    7.5277686 
    4590    832.62363   -7936.7235   -7843.8431   -117.93125     29140.37    7.5491901 
    4600    822.50858   -7935.3001    -7843.548   -144.33187    29119.062    7.5691891 
    4610    823.02756   -7935.0368   -7843.2268   -246.34285    29097.173    7.5910102 
    4620     818.7432   -7934.1981   -7842.8661   -333.16651    29074.461    7.6176707 
    4630    804.35843   -7932.1816   -7842.4542   -311.24268    29050.722    7.6471145 
    4640    805.58972   -7931.8227   -7841.9579   -320.12168    29025.971     7.674564 
    4650    829.62764   -7933.9038   -7841.3576   -459.14499    29000.129    7.6990459 
    4660    839.27485   -7934.3036   -7840.6812   -276.71043    28972.951    7.7226001 
    4670    835.07957   -7933.1225   -7839.9682    193.36049    28944.882    7.7462811 
    4680    840.27089   -7932.9665    -7839.233    575.81108    28917.042    7.7708546 
    4690    846.69635   -7932.9539   -7838.5037    803.25562     28890.42    7.7981491 
    4700    849.43569   -7932.5713   -7837.8155    940.97476    28865.628    7.8293791 
    4710    857.88692   -7932.8966    -7837.198    964.39369    28843.015    7.8623014 
    4720    865.85496   -7933.2607   -7836.6732    1070.3169    28822.719    7.8953805 
    4730    868.50404    -7933.148    -7836.265     1214.464    28805.006    7.9268738 
    4740    858.62826   -7931.7584   -7835.9771    1532.4135    28790.314    7.9539479 
    4750    835.77369   -7929.0153   -7835.7835    1736.0977    28779.359    7.9790491 
    4760    813.57873   -7926.3922   -7835.6362    1971.1025    28772.725    8.0062459 
    4770    811.49442   -7926.0064    -7835.483    2076.5359    28771.005    8.0358199 
    4780    833.72421   -7928.3228   -7835.3196    1780.6364    28774.431    8.0668784 
    4790    851.85073   -7930.2049   -7835.1797    1455.0258    28782.406     8.100425 
    4800    863.95954    -7931.486     -7835.11    1256.0067    28794.158    8.1373073 
    4810    864.30166    -7931.545   -7835.1309    1096.8721    28809.203    8.1774638 
    4820    858.88089   -7931.0463   -7835.2368    839.51535    28827.129    8.2180701 
    4830    849.24857   -7930.1438   -7835.4089    772.00697    28847.387    8.2590654 
    4840    837.41831   -7929.0354   -7835.6201    771.46955    28869.824    8.3013322 
    4850    839.45725   -7929.4892   -7835.8464     575.2931    28894.367    8.3413406 
    4860     842.3951    -7930.056   -7836.0856     596.4127    28920.642    8.3753559 
    4870    845.12107   -7930.6207   -7836.3462    781.03424    28948.699    8.4013542 
    4880    854.20962     -7931.92   -7836.6316    1048.2775    28979.026    8.4206064 
    4890    869.20113   -7933.9223   -7836.9617    1170.3703    29012.261    8.4378011 
    4900    865.14691   -7933.8505   -7837.3421     1266.626    29048.802    8.4584136 
    4910    851.44199   -7932.7246    -7837.745    1189.1175    29088.882     8.486038 
    4920    857.20853   -7933.7672   -7838.1443    738.61374    29132.258    8.5183984 
    4930    859.93827   -7934.4537   -7838.5263    275.06845    29177.875     8.550123 
    4940    859.96375   -7934.8267   -7838.8964   -155.28227    29224.533    8.5767226 
    4950    842.15373   -7933.1858   -7839.2423   -451.32778    29271.113     8.597803 
    4960    813.49534   -7930.2756    -7839.529   -395.23297    29316.887    8.6116242 
    4970    827.30983   -7932.0382   -7839.7505   -614.77929    29361.781    8.6150468 
    4980    826.22502   -7932.0876    -7839.921   -783.18718    29405.293    8.6162529 
    4990    818.67435   -7931.3864    -7840.062   -911.01214    29446.938    8.6231924 
    5000    822.23717   -7931.8951   -7840.1733   -1087.9393    29486.309    8.6351753 
Loop time of 1429.64 on 16 procs for 3000 steps with 864 atoms

Performance: 0.181 ns/day, 132.374 hours/ns, 2.098 timesteps/s
97.4% CPU use with 16 MPI tasks x 1 OpenMP threads

MPI task timing breakdown:
Section |  min time  |  avg time  |  max time  |%varavg| %total
---------------------------------------------------------------
Pair    | 865.33     | 1151.7     | 1391.4     | 556.5 | 80.56
Bond    | 0.0001893  | 0.00062087 | 0.0012686  |   0.0 |  0.00
Neigh   | 0.032197   | 0.035087   | 0.03783    |   0.8 |  0.00
Comm    | 19.545     | 251.5      | 539.03     |1194.6 | 17.59
Output  | 0.27196    | 0.27589    | 0.33378    |   2.8 |  0.02
Modify  | 14.129     | 26.109     | 46.244     | 187.5 |  1.83
Other   |            | 0.01159    |            |       |  0.00

Nlocal:        54.0000 ave          60 max          48 min
Histogram: 1 1 1 1 3 6 0 1 0 2
Nghost:        404.500 ave         417 max         389 min
Histogram: 1 1 2 2 1 0 2 3 2 2
Neighs:         0.00000 ave           0 max           0 min
Histogram: 16 0 0 0 0 0 0 0 0 0
FullNghs:      1534.62 ave        1784 max        1310 min
Histogram: 1 1 3 2 3 1 1 2 1 1

Total # of neighbors = 24554
Ave neighs/atom = 28.418981
Ave special neighs/atom = 0.0000000
Neighbor list builds = 300
Dangerous builds = 300
unfix   2

fix     3 all npt temp 825.0 825.0 $(100.0*dt) aniso 1.01325 1.01325 $(1000.0*dt)
fix     3 all npt temp 825.0 825.0 0.10000000000000000555 aniso 1.01325 1.01325 $(1000.0*dt)
fix     3 all npt temp 825.0 825.0 0.10000000000000000555 aniso 1.01325 1.01325 1
run     20000
Per MPI rank memory allocation (min/avg/max) = 8.897 | 8.899 | 8.901 Mbytes
Step Temp PotEng TotEng Press Volume c_msd[4] 
    5000    822.23717   -7931.8951   -7840.1733   -1087.9393    29486.309    8.6351753 
    5010    821.62426   -7931.8242   -7840.1708   -892.43012    29484.949    8.6470186 
    5020    827.92447   -7932.5218   -7840.1656   -715.93362    29481.229    8.6621678 
    5030    847.00129   -7934.6561   -7840.1719   -748.35531    29475.575    8.6768677 
    5040    860.58215    -7936.232   -7840.2328   -871.48619    29467.919    8.6877638 
    5050    851.51354   -7935.3606    -7840.373    -708.9351    29458.041    8.6939679 
    5060     844.0168   -7934.7356   -7840.5843   -446.57861    29446.314    8.6954541 
    5070    850.44252   -7935.7294   -7840.8613   -252.42781    29433.392    8.6956405 
    5080    841.81088    -7935.114   -7841.2087    32.742396    29419.845    8.7001362 
    5090    825.58956   -7933.7078    -7841.612    138.82043    29406.337    8.7108924 
    5100     827.5929    -7934.377   -7842.0578   -59.998747    29393.115    8.7266165 
    5110    831.26276   -7935.2811   -7842.5525   -328.90417    29379.721    8.7462141 
    5120    828.84841   -7935.5638   -7843.1045   -649.26823     29365.44    8.7683632 
    5130    815.20738    -7934.637   -7843.6993   -1014.1743    29349.419    8.7916931 
    5140    800.34437   -7933.5829   -7844.3033   -1187.0773    29330.771    8.8135356 
    5150    796.38511   -7933.7178   -7844.8798   -1133.5336    29309.047    8.8317705 
    5160    801.91231   -7934.8711   -7845.4166   -1014.4762    29284.356    8.8461303 
    5170     797.0831   -7934.8225   -7845.9066   -805.51323    29257.039    8.8554279 
    5180    790.63031   -7934.5309   -7846.3349   -588.38162    29227.623    8.8606621 
    5190    798.80327   -7935.8127    -7846.705   -394.46741    29196.693    8.8678021 
    5200    809.39145   -7937.3211   -7847.0322   -109.84327    29164.804    8.8825743 
    5210    814.07837   -7938.1448   -7847.3331    315.90146    29132.699    8.9052264 
    5220    812.42941   -7938.2402   -7847.6125    848.09982    29101.477    8.9290971 
    5230    808.29507   -7938.0353   -7847.8688    1253.7936    29072.449    8.9479061 
    5240    804.86431   -7937.8899   -7848.1061    1383.0242    29046.637     8.961872 
    5250    799.81587    -7937.549   -7848.3284    1269.3694    29024.373     8.971621 
    5260    795.46304   -7937.2661    -7848.531    1144.4842    29005.396    8.9756362 
    5270    795.15109   -7937.3966   -7848.6963     1146.299    28989.423    8.9754816 
    5280     807.7638   -7938.9409   -7848.8336    1194.1283    28976.411    8.9754058 
    5290     807.7053   -7939.0547   -7848.9539    1304.8789    28966.503    8.9769642 
    5300    803.14968   -7938.6563   -7849.0637    1196.1123    28959.892    8.9810394 
    5310    795.40682   -7937.8814   -7849.1526    923.75623    28956.308     8.990894 
    5320    785.92447   -7936.8664   -7849.1953    651.91391    28955.099    9.0068389 
    5330    779.32082   -7936.0951   -7849.1607    537.69143    28955.592    9.0277036 
    5340    781.90404    -7936.234   -7849.0115    465.55017    28957.458    9.0524379 
    5350    795.11606   -7937.4202   -7848.7239    362.90655    28960.501    9.0756964 
    5360    796.81365   -7937.1803   -7848.2946    449.32308    28964.522    9.0910932 
    5370    804.79899     -7937.51   -7847.7335     515.3767     28969.68    9.0976276 
    5380    818.22073   -7938.3352   -7847.0614    391.01526    28976.096    9.0982921 
    5390    815.35764   -7937.2775   -7846.3231    436.34657    28983.564    9.0976049 
    5400     806.9194   -7935.5717   -7845.5587     544.8719    28992.163    9.0984293 
    5410    814.56654   -7935.6432    -7844.777    438.83743    29002.094    9.1000347 
    5420    826.53228   -7936.2012   -7844.0003    428.60269    29013.195    9.1024126 
    5430    839.24764   -7936.8919   -7843.2726    390.99738    29025.391    9.1067503 
    5440    838.46548   -7936.1539   -7842.6218    395.83219    29038.618    9.1165581 
    5450    821.89607   -7933.7401   -7842.0563     463.3583    29052.886    9.1321085 
    5460    807.12369   -7931.5785   -7841.5427     386.7586    29068.317    9.1502454 
    5470    808.36927   -7931.2157   -7841.0409    207.22342    29084.727    9.1695057 
    5480    809.30462   -7930.8167   -7840.5376    229.58734    29101.734    9.1927422 
    5490    812.90122   -7930.7201   -7840.0397    87.648871      29119.3    9.2227106 
    5500    822.81201   -7931.3316   -7839.5457    15.853906    29137.138    9.2571772 
    5510    827.51689   -7931.3871   -7839.0764   -4.3506897    29155.046    9.2917635 
    5520    821.72927   -7930.3065   -7838.6413   -140.88353    29172.948    9.3258126 
    5530    803.64425   -7927.8673   -7838.2196   -371.24956    29190.486    9.3576276 
    5540    818.81655   -7929.1306   -7837.7904   -532.41101    29207.097    9.3830833 
    5550    835.23254    -7930.526   -7837.3546   -313.30656    29222.451    9.4057011 
    5560    846.72335   -7931.4121   -7836.9589   -37.066627    29237.015    9.4295796 
    5570    855.52096   -7932.0605   -7836.6258    161.29923    29251.491    9.4553761 
    5580    852.98163    -7931.522   -7836.3706    429.69269    29266.436    9.4848823 
    5590    853.00762   -7931.3525   -7836.1982    897.87708    29282.594    9.5182535 
    5600    837.92773   -7929.5627   -7836.0906    1410.4428    29301.185    9.5515092 
    5610    832.24729   -7928.8656   -7836.0272    1522.8318    29323.451     9.580263 
    5620    841.97646   -7929.9123   -7835.9885    1165.5563    29349.672    9.6043961 
    5630     836.0587   -7929.2413   -7835.9777    846.76513    29379.058    9.6272331 
    5640    822.68374   -7927.7543   -7835.9826     472.2662    29410.761     9.651418 
    5650    838.27319   -7929.4969   -7835.9863   -227.05075    29443.735    9.6790101 
    5660     829.6456   -7928.5384   -7835.9902   -511.84688    29476.329    9.7109315 
    5670    812.86155   -7926.6765   -7836.0006   -614.25367     29507.71    9.7442711 
    5680    819.26313   -7927.3785   -7835.9884   -1036.4299    29537.458    9.7772139 
    5690    830.73319   -7928.6267   -7835.9571   -1319.9051    29564.572    9.8091435 
    5700    833.74444   -7928.9392   -7835.9338   -1506.0358     29588.27    9.8376522 
    5710    835.23998   -7929.1057   -7835.9335   -1725.5806    29607.993    9.8592473 
    5720    831.96339   -7928.7681   -7835.9613   -1648.9989    29623.244    9.8730076 
    5730    833.56295   -7929.0046   -7836.0194   -1511.7139    29634.142      9.88349 
    5740    843.15938   -7930.1729   -7836.1172   -1529.6278    29640.985    9.8962792 
    5750    841.50474   -7930.1432   -7836.2721    -1640.252    29643.719    9.9134139 
    5760    824.13747   -7928.4217   -7836.4879     -1560.97    29642.107    9.9344398 
    5770      798.041   -7925.7463   -7836.7236   -1223.3634    29636.378    9.9586439 
    5780    799.02228   -7926.0693   -7836.9372   -954.31522    29627.349    9.9838247 
    5790    820.94676   -7928.7046   -7837.1268   -908.97139      29615.7    10.008797 
    5800    841.95959   -7931.2618     -7837.34   -1088.3499    29601.509    10.034498 
    5810    840.30635   -7931.3571   -7837.6197   -1106.1517    29584.403    10.060164 
    5820    819.98183   -7929.4371   -7837.9669   -996.36659    29564.297    10.083284 
    5830     803.7968   -7928.0039   -7838.3392   -901.18363    29541.448    10.103831 
    5840    815.80159   -7929.7262   -7838.7223   -991.60442    29516.053    10.126505 
    5850    816.16564   -7930.1684   -7839.1239   -884.03589    29487.981    10.150752 
    5860    810.64334   -7929.9685     -7839.54   -610.41661    29457.512    10.172829 
    5870     816.9249   -7931.0933   -7839.9641   -446.78644    29425.281    10.193275 
    5880    821.45923   -7932.0361   -7840.4011   -294.16721    29391.762    10.213077 
    5890    830.14461    -7933.471   -7840.8671   -283.53017    29357.309    10.230436 
    5900    831.96421   -7934.1757   -7841.3688     53.17103    29322.085    10.244438 
    5910     832.1268   -7934.7284   -7841.9034    565.54762    29286.925    10.261095 
    5920    819.92298   -7933.9157    -7842.452    1225.4705    29253.172    10.285454 
    5930    812.20423   -7933.5836    -7842.981    1724.6247    29222.466    10.311838 
    5940    826.46475   -7935.6865   -7843.4931    1827.4791    29196.063    10.334859 
    5950    836.95196   -7937.3828   -7844.0196    1612.6419    29174.244    10.356104 
    5960    831.60049    -7937.329   -7844.5627    1350.9635    29156.506    10.377374 
    5970     829.7477   -7937.6634   -7845.1038    1070.5797    29142.198    10.399202 
    5980    834.68885   -7938.7515   -7845.6407    684.33123    29130.575    10.421442 
    5990    827.17991   -7938.4339   -7846.1607    636.04009    29120.772    10.444602 
    6000    824.06024   -7938.5754   -7846.6502    585.90795    29112.566    10.471538 
    6010    815.03755   -7938.0119   -7847.0932    324.51828    29105.782    10.498953 
    6020    805.80787   -7937.3634   -7847.4743    55.827538    29099.805    10.518977 
    6030    793.18577   -7936.2566   -7847.7755    -70.50367    29093.976    10.531317 
    6040     785.8854   -7935.6483   -7847.9816    -161.0497    29087.919    10.542283 
    6050    793.16833   -7936.5739   -7848.0948   -285.24689    29081.374    10.556717 
    6060    798.28461   -7937.1834   -7848.1336   -315.08938    29074.066    10.575224 
    6070    791.45557   -7936.3995   -7848.1115   -45.409244    29065.968    10.595647 
    6080    787.57667   -7935.8756   -7848.0203    246.16734    29057.684    10.611027 
    6090    800.63917   -7937.1781   -7847.8656    341.04923    29049.915    10.615151 
    6100    798.15186    -7936.696   -7847.6609    299.96934    29042.927    10.610599 
    6110     791.5928   -7935.7178   -7847.4144    201.08981    29036.637    10.602538 
    6120    790.34559   -7935.2776   -7847.1133    175.05837    29030.832    10.600128 
    6130    801.48336   -7936.1685   -7846.7618   -75.044651    29025.365    10.612908 
    6140    800.97255   -7935.7246   -7846.3749   -187.80499    29019.692    10.641623 
    6150    792.97291    -7934.418   -7845.9607   -79.206018    29013.545    10.677594 
    6160    814.80605   -7936.4164   -7845.5236   -356.74551    29007.022    10.711031 
    6170    828.03363   -7937.4585   -7845.0901   -612.30071    28999.525    10.739658 
    6180    820.70689   -7936.2543   -7844.7032   -594.07543    28990.421    10.765862 
    6190    813.82966   -7935.1387   -7844.3548   -328.87602    28979.738    10.794092 
    6200    820.72774   -7935.5822   -7844.0288    -105.0947    28968.062    10.828819 
    6210    820.53575   -7935.2619   -7843.7299    126.23305    28955.973    10.869886 
    6220    811.64454   -7933.9991   -7843.4589    240.21572    28944.019    10.911507 
    6230    812.82823   -7933.8761   -7843.2039    211.84625    28932.486    10.951454 
    6240     809.2477   -7933.2304   -7842.9576    290.69573    28921.369     10.98978 
    6250     807.4338   -7932.7843   -7842.7138    387.41552    28910.848    11.026323 
    6260    814.30048   -7933.3046   -7842.4682    459.77967    28901.168    11.062149 
    6270    817.52644   -7933.4208   -7842.2245    431.36026     28892.49    11.097912 
    6280     829.7388   -7934.5551   -7841.9965    417.84096    28884.796    11.131455 
    6290    833.78351    -7934.812   -7841.8022    523.08781    28878.079    11.159595 
    6300    825.34167   -7933.7136   -7841.6455    569.08672    28872.563    11.180218 
    6310    829.56419   -7934.0537   -7841.5146    430.36261    28868.383    11.197726 
    6320    837.99455   -7934.8877   -7841.4081    166.85991    28865.224    11.222552 
    6330    831.11923   -7934.0464   -7841.3338     111.5277    28862.498    11.261435 
    6340    809.87443   -7931.6155   -7841.2728    335.51767    28860.073    11.308115 
    6350    808.23705   -7931.3505   -7841.1905    251.54971    28858.396    11.348015 
    6360    820.25797   -7932.5838   -7841.0828   -99.097425    28857.273    11.376053 
    6370    824.85296   -7932.9775   -7840.9639   -250.83439    28855.937     11.39576 
    6380    842.53687   -7934.8411   -7840.8548   -298.59707    28853.935    11.409021 
    6390     848.2431   -7935.3974   -7840.7746    4.3937411    28851.216    11.421312 
    6400    852.02125   -7935.7905   -7840.7463    287.10389    28848.448    11.439483 
    6410    856.09837   -7936.2806   -7840.7816     374.4605    28846.318    11.464527 
    6420    846.81143   -7935.3486   -7840.8855    271.21246    28845.068    11.491814 
    6430    834.17037   -7934.0932   -7841.0403    133.96429    28844.492    11.518357 
    6440    843.68293    -7935.344   -7841.2299   -19.154155    28844.261    11.544571 
    6450    852.84833   -7936.6046   -7841.4681   -325.23103    28843.944    11.569699 
    6460    839.66118   -7935.4374   -7841.7719   -579.05293    28842.816    11.591764 
    6470    828.44968   -7934.5347   -7842.1199   -814.98931    28840.189    11.609969 
    6480     821.6384   -7934.1456   -7842.4906   -844.86083    28835.453    11.625451 
    6490     814.3589    -7933.711    -7842.868   -541.98892    28828.535     11.63906 
    6500    815.57403    -7934.228   -7843.2495   -366.84032    28820.017     11.65183 
    6510    814.35662   -7934.4732   -7843.6305    50.687038     28810.41    11.664624 
    6520    819.48557   -7935.4397   -7844.0249    282.36041    28800.638    11.675088 
    6530    812.61073   -7935.0806   -7844.4327    353.59028    28791.299    11.682306 
    6540    803.89925   -7934.5223   -7844.8462    466.68328    28782.608    11.688109 
    6550    804.79408   -7935.0322   -7845.2562    742.40804    28774.925    11.695659 
    6560    797.88507   -7934.6677   -7845.6624    1121.5766    28768.955    11.705358 
    6570    781.66163   -7933.2392   -7846.0437    1432.9056    28765.673    11.712124 
    6580    792.10542   -7934.7575   -7846.3969    1316.0697    28765.857    11.710484 
    6590    802.87425   -7936.2951   -7846.7332    1108.9271    28769.407    11.702421 
    6600    812.68122   -7937.7402   -7847.0844    913.23567    28775.906    11.697218 
    6610    818.52424   -7938.7877   -7847.4801    808.42334    28784.963    11.703738 
    6620    807.86539   -7938.0547   -7847.9361     911.4525    28796.398     11.72238 
    6630    788.70699   -7936.4194    -7848.438    1134.0849    28810.552    11.746748 
    6640    783.80891   -7936.3913   -7848.9563    1017.6593    28827.973    11.774408 
    6650    778.96049   -7936.3667   -7849.4725    802.93683    28848.539    11.805111 
    6660    776.29615   -7936.5626   -7849.9656    659.24168     28871.84    11.835066 
    6670    796.29021    -7939.265   -7850.4376    403.31724    28897.532    11.863459 
    6680     802.2855   -7940.4005   -7850.9043    370.73917    28925.121    11.892285 
    6690    798.10132   -7940.3979   -7851.3685     213.1386    28954.472    11.920321 
    6700    797.54477   -7940.7833    -7851.816   -234.01191    28985.201     11.94538 
    6710    789.41789   -7940.2932   -7852.2325   -542.17949    29016.302    11.966119 
    6720    778.14715   -7939.3962   -7852.5927   -784.47782    29046.956    11.982558 
    6730    783.23774   -7940.2581   -7852.8867   -1159.2324     29076.42     11.99927 
    6740    766.05156   -7938.5536   -7853.0994    -1125.135    29103.817    12.019566 
    6750    760.36481   -7938.0336   -7853.2138   -1001.2078    29129.049    12.039303 
    6760     771.8961   -7939.3126   -7853.2065   -973.18361    29152.326    12.056241 
    6770    771.66845   -7939.1531   -7853.0724   -863.28634    29173.712    12.072258 
    6780    767.43826   -7938.4138   -7852.8049   -663.68218    29193.414    12.086404 
    6790     779.8342   -7939.3797    -7852.388   -542.41869    29211.865    12.097609 
    6800    791.93128   -7940.1637   -7851.8226   -548.11513    29229.317    12.108298 
    6810    788.49697   -7939.0924   -7851.1344   -346.78078    29245.822    12.120303 
    6820     790.8578   -7938.5689   -7850.3475   -359.31315    29261.721    12.133078 
    6830    784.78276   -7937.0295   -7849.4858   -257.62583    29277.071    12.148107 
    6840    780.13394   -7935.6203   -7848.5952   -165.77594    29292.051    12.166986 
    6850    777.39158   -7934.4227   -7847.7035    -148.8719     29306.89    12.191449 
    6860    785.58232   -7934.4776   -7846.8447   -448.87939    29321.556     12.21798 
    6870     802.1066   -7935.5225   -7846.0463    -636.0674    29335.358    12.245227 
    6880    812.07036   -7935.9365   -7845.3488   -617.44715    29347.771    12.272656 
    6890    809.81228   -7935.0996   -7844.7639   -482.97716     29358.81    12.296108 
    6900    803.58609   -7933.9069   -7844.2657   -350.90572    29368.779     12.31561 
    6910    793.90368   -7932.3776   -7843.8165   -315.90727    29377.972    12.338288 
    6920    774.34762   -7929.7542   -7843.3745   -265.21054    29386.498    12.364636 
    6930    765.58436   -7928.2998   -7842.8977   -292.32512    29394.442    12.386784 
    6940     775.7905   -7928.8995   -7842.3589   -524.51042    29401.693    12.401119 
    6950    789.07752   -7929.7892   -7841.7664   -881.61694    29407.655    12.411698 
    6960    809.40707   -7931.4445   -7841.1539   -1218.4608    29411.384    12.420832 
    6970    816.39405   -7931.6231   -7840.5531   -1128.9737    29412.055    12.429335 
    6980    822.37108   -7931.7289   -7839.9922   -965.96717    29409.762    12.437005 
    6990    832.56294   -7932.3447   -7839.4711    -930.9589    29404.847    12.441342 
    7000    829.42074   -7931.5246   -7839.0015   -673.89853    29397.445    12.442878 
    7010    821.80072   -7930.2498   -7838.5767   -257.69843    29388.187     12.44392 
    7020     829.5768   -7930.7177   -7838.1772   -3.1599922    29378.075    12.445455 
    7030    845.67367   -7932.1431   -7837.8069   -6.9459153    29367.745    12.448834 
    7040    853.37591   -7932.6896   -7837.4943    58.302329    29357.278    12.454464 
    7050    855.94717   -7932.7372    -7837.255     334.1976    29346.873      12.4583 
    7060    861.50408   -7933.1928   -7837.0907    653.70846    29337.228    12.454874 
    7070    861.35074   -7933.0966   -7837.0117    688.99691    29329.099    12.443058 
    7080    852.03672   -7932.0604   -7837.0144    807.95081    29322.717    12.430425 
    7090    850.24399   -7931.9201   -7837.0741    1006.4064    29318.409    12.429183 
    7100    866.98392   -7933.9121   -7837.1988     980.2551    29316.655    12.445135 
    7110     868.6519    -7934.308   -7837.4086    614.02959    29317.396    12.474219 
    7120    852.03791   -7932.7618   -7837.7157    117.44227    29319.738    12.509457 
    7130    820.65669   -7929.6212   -7838.0757   -266.74756    29322.448    12.547548 
    7140    810.49834   -7928.8519   -7838.4396    -597.8374      29324.5     12.58526 
    7150    812.33826   -7929.4055    -7838.788   -944.99968    29325.004    12.621054 
    7160    813.83772   -7929.9124   -7839.1276   -1178.2737    29323.062     12.65463 
    7170    807.16585   -7929.4823   -7839.4417   -1152.6428    29318.077    12.687757 
    7180    800.69186   -7929.0269   -7839.7086    -1035.926    29310.064    12.719604 
    7190    802.94423   -7929.4938   -7839.9242   -996.76051    29299.267    12.748843 
    7200    800.98364   -7929.4445   -7840.0936   -699.24205    29285.848    12.778456 
    7210    799.94265   -7929.4523   -7840.2175   -363.77617    29270.523    12.807552 
    7220    813.69626   -7931.0732   -7840.3042   -358.71939    29254.082    12.833021 
    7230    814.03066   -7931.1721   -7840.3658   -297.10061    29236.633    12.856558 
    7240    805.43961   -7930.2503   -7840.4023   -36.027666    29218.385    12.876898 
    7250    809.95686   -7930.7456   -7840.3937    91.773469    29199.945    12.892954 
    7260    841.65899   -7934.2464   -7840.3581    109.39946    29181.647    12.906231 
    7270    845.46162   -7934.6517   -7840.3391    465.42005    29163.672    12.922055 
    7280    835.49396    -7933.565   -7840.3644    760.44074    29146.839    12.945968 
    7290    837.10052    -7933.808   -7840.4282    804.77892     29131.87    12.976822 
    7300    833.58457    -7933.509   -7840.5214    894.23231    29118.964    13.005807 
    7310    837.76492   -7934.1049   -7840.6509    987.76625    29108.352    13.027816 
    7320    839.64588   -7934.4992   -7840.8354    883.30835    29100.216    13.047822 
    7330    829.01798   -7933.5627   -7841.0845    861.81016     29094.38    13.071197 
    7340    818.35967   -7932.6704   -7841.3812    884.31953    29090.781    13.099917 
    7350    826.01931   -7933.8674   -7841.7237    798.56315    29089.447    13.134997 
    7360    821.13667   -7933.7156   -7842.1166    828.34112    29090.207    13.176942 
    7370     805.9198   -7932.4432   -7842.5417    991.47169    29093.155     13.22308 
    7380    805.58092   -7932.8352   -7842.9715    991.04053    29098.632    13.268188 
    7390    805.90851   -7933.3031   -7843.4028    1144.0383    29106.731    13.305379 
    7400    796.14297   -7932.6401   -7843.8291     1322.978    29117.816    13.329724 
    7410    797.60863   -7933.2049   -7844.2304    1317.9279    29132.327    13.338982 
    7420    820.89898   -7936.1915    -7844.619    943.67815    29150.191    13.339588 
    7430    823.09406    -7936.836   -7845.0186    732.89796    29170.617    13.342235 
    7440    813.68241   -7936.2059   -7845.4384    481.56812    29192.996    13.354429 
    7450    803.54364   -7935.4837   -7845.8472    209.19019    29216.696    13.377441 
    7460    800.60887   -7935.5383   -7846.2292    59.337188    29241.052    13.409291 
    7470    793.73099   -7935.1127   -7846.5708   -95.282668    29265.656    13.444485 
    7480    789.06736   -7934.8797    -7846.858   -455.73634    29290.039    13.475421 
    7490     781.4697   -7934.2482    -7847.074   -607.62574    29313.384    13.496199 
    7500    786.85025   -7934.9869   -7847.2126   -868.79002    29335.194    13.505047 
    7510    796.62315   -7936.1427   -7847.2782   -1104.8103    29354.824    13.505925 
    7520    795.09729   -7935.9762   -7847.2819   -1326.8877    29371.624    13.506513 
    7530    792.26552   -7935.5999   -7847.2215   -1544.1941    29384.996    13.511055 
    7540    789.42025   -7935.1458   -7847.0848   -1702.4858    29394.359    13.521029 
    7550    791.11201   -7935.1084   -7846.8587    -1710.812    29399.326    13.539701 
    7560    798.18831   -7935.5737   -7846.5346   -1658.8649    29399.821    13.571634 
    7570    791.47924   -7934.3927    -7846.102   -1412.3996    29396.002    13.614121 
    7580    797.05108   -7934.4607   -7845.5484   -1133.8032    29388.471    13.652404 
    7590    818.38474   -7936.1603   -7844.8682   -1059.2443    29377.894    13.676066 
    7600    820.77485   -7935.6651   -7844.1064   -1013.8256    29364.494    13.687845 
    7610    811.44369   -7933.8258   -7843.3081   -763.15575    29348.452    13.689796 
    7620    829.16347   -7934.9868   -7842.4924   -751.16217    29330.281    13.681043 
    7630    845.24263   -7935.9897   -7841.7016   -598.15386    29310.119    13.668205 
    7640    836.01687   -7934.2701   -7841.0111   -223.80073    29288.371    13.658458 
    7650    823.38104   -7932.2783   -7840.4289    123.86807    29265.974    13.653097 
    7660    829.37094   -7932.4421   -7839.9245    222.21692    29243.787    13.652256 
    7670    843.24447   -7933.5578   -7839.4926    70.907868    29222.076    13.657464 
    7680     854.9514   -7934.5292   -7839.1581   -100.23834    29200.489    13.669963 
    7690    848.96079   -7933.6255   -7838.9226    8.2411008    29178.659    13.690858 
    7700     840.8502   -7932.5637   -7838.7656    196.30506    29156.825    13.722263 
    7710    834.29511   -7931.7292   -7838.6623    294.30154    29135.424     13.76075 
    7720    817.93884   -7929.8298   -7838.5875    477.72973     29114.77    13.802144 
    7730    808.15909   -7928.6625   -7838.5111    607.62436    29095.292    13.839351 
    7740     794.0333   -7926.9803   -7838.4047    769.05537    29077.351    13.864765 
    7750    798.69985   -7927.3382    -7838.242    702.06137    29061.304    13.877914 
    7760    823.76198   -7929.9296   -7838.0377    575.62334    29047.023    13.888642 
    7770    824.62181   -7929.8181   -7837.8303    759.05407    29034.265    13.904002 
    7780    827.35803   -7929.9314   -7837.6384    1015.5655    29023.438    13.922578 
    7790    839.91194    -7931.153   -7837.4595    1179.2258     29015.19    13.943584 
    7800    859.03341   -7933.1503   -7837.3238    1027.2116    29009.875    13.968658 
    7810    870.29422   -7934.3463   -7837.2637    761.57773    29007.163    13.996328 
    7820    864.83154   -7933.7771   -7837.3039    748.94075    29006.475    14.020648 
    7830    847.89755   -7932.0145   -7837.4303    763.40999    29007.726    14.037736 
    7840     834.8714    -7930.743   -7837.6119    659.70204    29010.906    14.047338 
    7850    829.39872   -7930.3379   -7837.8172    677.19053    29015.826    14.051022 
    7860    827.57588   -7930.3563    -7838.039    630.81386    29022.496    14.047358 
    7870    817.15563   -7929.4222   -7838.2672    524.66472    29030.805    14.032623 
    7880    819.83147   -7929.9462   -7838.4928    419.55038    29040.512    14.011796 
    7890    822.02314   -7930.4166   -7838.7187    384.65573    29051.368    13.996998 
    7900    810.39792   -7929.3476   -7838.9465    530.23395    29063.316    13.995482 
    7910    794.85288   -7927.8201    -7839.153    662.75932    29076.712    14.011761 
    7920    794.21114   -7927.9026   -7839.3072    486.55754    29091.842    14.047921 
    7930    808.48972   -7929.5964   -7839.4081    203.06292    29108.285    14.099262 
    7940    814.80163   -7930.3624     -7839.47    271.84084    29125.456    14.150471 
    7950     844.8632   -7933.7779   -7839.5321    174.61872    29143.387    14.188627 
    7960    866.42123   -7936.3003   -7839.6497    16.131108    29161.876    14.214343 
    7970    866.98821   -7936.6113   -7839.8975    9.4319655    29180.572    14.232869 
    7980    855.41576   -7935.7244   -7840.3015    85.277116    29199.453    14.250766 
    7990     844.5696   -7935.0786   -7840.8656     152.0785    29218.692    14.272132 
    8000    834.40504   -7934.6666   -7841.5875    236.94609    29238.471    14.292439 
    8010     816.2746   -7933.4898   -7842.4332    289.62481    29259.009    14.302849 
    8020    795.32505   -7932.0468   -7843.3271    211.72047    29280.418     14.30567 
    8030    776.31857   -7930.7677   -7844.1682     53.37762    29302.533    14.310205 
    8040    781.61833   -7932.0949   -7844.9042   -235.14185    29324.931    14.316316 
    8050    791.00818   -7933.7604   -7845.5223   -383.48401     29346.93    14.316623 
    8060    794.93267   -7934.7178   -7846.0419   -504.82659    29368.077    14.312001 
    8070    785.44732   -7934.0667   -7846.4489   -614.07106    29388.066    14.312011 
    8080    797.44297   -7935.7136   -7846.7576   -1003.0152    29406.508    14.322758 
    8090    786.60464   -7934.7207   -7846.9738   -1126.4352    29422.523    14.344114 
    8100    772.64978   -7933.2821   -7847.0918   -1095.3029    29435.718    14.367241 
    8110    777.28062   -7933.8116   -7847.1047   -1215.4392    29446.068    14.381122 
    8120    778.61541   -7933.8731   -7847.0174   -1303.1865    29453.306     14.38364 
    8130    791.59217   -7935.1515   -7846.8482   -1602.9721    29457.089    14.380574 
    8140    798.85739   -7935.7228   -7846.6091   -1860.4205    29456.675    14.377545 
    8150    813.86125   -7937.1165   -7846.3291   -2081.2276    29451.329    14.376334 
    8160    824.62436   -7938.0187   -7846.0306   -2082.5892     29440.48    14.373227 
    8170     823.9924   -7937.6614   -7845.7438   -1781.3359    29424.092    14.369059 
    8180    814.45831   -7936.3102   -7845.4561   -1126.6496     29402.97     14.36887 
    8190    825.42654   -7937.2411   -7845.1635   -693.23706    29378.644    14.375604 
    8200     814.3303   -7935.7026   -7844.8628   -318.86599    29352.308    14.387712 
    8210    803.01518   -7934.1308   -7844.5533   -105.12229    29324.915    14.393369 
    8220    798.36447   -7933.2664   -7844.2077    84.660427    29297.072    14.390836 
    8230    803.76274   -7933.4807   -7843.8198    278.03618    29269.267    14.390095 
    8240    810.50495   -7933.8079   -7843.3949    328.50148    29241.961    14.396866 
    8250    821.85532   -7934.6371   -7842.9579    441.48884    29215.351    14.410414 
    8260    836.75262   -7935.8746   -7842.5336    651.20167    29189.735    14.426862 
    8270    844.10313   -7936.3175   -7842.1565    882.38916    29165.631    14.442233 
    8280    838.19332   -7935.3476   -7841.8458    1156.5232    29143.676    14.453983 
    8290    825.63286   -7933.6948   -7841.5942    1084.0335    29124.489    14.459098 
    8300    817.86881   -7932.6121   -7841.3776    853.59263    29107.942    14.457069 
    8310    818.44455   -7932.4712   -7841.1725    818.30524    29093.531    14.454112 
    8320    841.73631   -7934.8838   -7840.9869    767.60926    29081.112    14.456521 
    8330    856.87385     -7936.44   -7840.8544    743.92115    29070.586     14.47141 
    8340    847.34566   -7935.3216   -7840.7989    946.39214    29061.963    14.501259 
    8350    826.17211   -7932.9553   -7840.7945    1221.1685    29055.732    14.541965 
    8360    821.27524   -7932.4176   -7840.8031    1263.7126    29052.558    14.586798 
    8370    821.67243   -7932.4622   -7840.8034     1075.326    29052.602    14.627877 
    8380    825.28542   -7932.8634   -7840.8015    798.13269     29055.41    14.658771 
    8390    826.47759   -7932.9938    -7840.799    668.84044    29060.346    14.678539 
    8400    821.33197   -7932.4159   -7840.7951    633.92234    29067.091      14.6919 
    8410    820.19086   -7932.2795    -7840.786    526.72202    29075.535     14.70537 
    8420    819.64371   -7932.1986   -7840.7661    376.76407    29085.438    14.723983 
    8430    824.50227   -7932.7165    -7840.742    179.54934    29096.422    14.747294 
    8440    824.25673   -7932.6613   -7840.7142   -24.225612    29108.003    14.772293 
    8450    833.86779   -7933.7118   -7840.6926   -314.25953    29119.628    14.798336 
    8460    832.69769   -7933.5767    -7840.688   -457.90485    29130.614    14.823787 
    8470    815.83036   -7931.7011    -7840.694   -438.92364     29140.59    14.846572 
[...]
   22890    806.35121   -7931.1682   -7841.2185   -643.80437    29285.916    48.736889 
   22900    811.57252   -7931.5597   -7841.0276   -529.21841    29305.816    48.759089 
   22910    812.70876   -7931.4623   -7840.8035   -268.26752    29324.173    48.795617 
   22920     821.8112   -7932.2224   -7840.5481   -159.95406    29341.616    48.853968 
   22930    850.36669   -7935.1375   -7840.2778   -302.65915    29358.414    48.930472 
   22940    863.64109   -7936.3765    -7840.036   -492.54228    29374.264    49.014728 
   22950    867.56869   -7936.6471   -7839.8685   -896.25397    29388.612    49.089713 
   22960    867.72451   -7936.5865   -7839.7905   -1113.2499    29400.512    49.146719 
   22970    860.15813   -7935.7616   -7839.8097   -988.02391    29409.468     49.20145 
   22980    847.08553   -7934.4146   -7839.9209   -841.93405    29415.752    49.266288 
   22990     821.7533    -7931.763   -7840.0951   -696.65864    29419.776    49.333887 
   23000    818.61838   -7931.6221    -7840.304   -767.15522    29421.885    49.402098 
   23010    828.77811   -7932.9953   -7840.5438    -837.2606    29421.968    49.467839 
   23020    830.99759   -7933.5422   -7840.8432   -605.52528    29419.938    49.512184 
   23030    829.25212   -7933.7293    -7841.225   -454.16777    29416.313    49.518432 
   23040    824.11401   -7933.6401   -7841.7089    -430.4867    29411.505    49.496617 
   23050    814.79223   -7933.1807   -7842.2894   -226.27931    29405.672     49.46728 
   23060    803.76423   -7932.6068   -7842.9457    15.357957    29399.319    49.440476 
   23070    784.15718   -7931.0882   -7843.6142    178.91638    29393.084     49.42719 
   23080    788.43923   -7932.2129   -7844.2613    80.678009    29387.328     49.43541 
   23090    781.38036   -7932.0178   -7844.8536    143.75097    29381.917    49.454084 
   23100    781.59452   -7932.5565   -7845.3684    122.65654    29376.931    49.464562 
   23110    787.49446   -7933.6462      -7845.8   -45.890345    29372.293    49.459091 
   23120    800.97868   -7935.5115   -7846.1611   -343.44045    29367.559    49.437412 
   23130    815.54302   -7937.4635   -7846.4885   -576.19132    29362.018    49.410721 
   23140    798.94545   -7935.9126    -7846.789   -517.72826    29355.119    49.395827 
   23150    787.46991   -7934.8749   -7847.0314   -414.84818    29346.972    49.396458 
   23160    805.47742   -7937.0632    -7847.211   -540.75081    29337.784     49.40361 
   23170    806.15657   -7937.2733   -7847.3453   -499.03769    29327.359    49.418566 
   23180      798.155    -7936.477   -7847.4416    -511.2501    29315.748    49.445816 
   23190    795.84934   -7936.2631   -7847.4849   -635.69973    29302.938     49.48152 
   23200     791.2517   -7935.7336   -7847.4682   -755.57969     29288.62    49.518209 
   23210    777.60744   -7934.1134   -7847.3701   -628.15183    29272.576     49.54952 
   23220    775.49675   -7933.6753   -7847.1674   -451.57932     29255.11    49.574248 
   23230    772.64285   -7933.0232   -7846.8337   -252.59919    29236.705    49.595939 
   23240    778.13244    -7933.163   -7846.3612   -128.66697    29217.867    49.620126 
   23250    774.14217   -7932.1063   -7845.7496    71.178969    29198.957    49.641402 
   23260    762.54855   -7930.0711   -7845.0076    230.17848    29180.473    49.647197 
   23270    771.84152   -7930.2425   -7844.1424    223.23179    29162.787    49.631309 
   23280    782.84474   -7930.5271   -7843.1996     315.2192    29145.921    49.601406 
   23290    800.40452   -7931.5526   -7842.2663    561.33967    29130.115    49.572347 
   23300    818.19323   -7932.6928   -7841.4222    841.57098    29115.972    49.557088 
   23310    844.05376   -7934.8844   -7840.7289    813.91924    29104.085    49.555887 
   23320    847.79757   -7934.7857   -7840.2126    907.59205    29094.464    49.558576 
   23330     829.8077   -7932.4127   -7839.8464    1255.8553     29087.36    49.556504 
   23340     833.9811   -7932.6039   -7839.5721    1481.9645    29083.545    49.552255 
   23350    850.35291   -7934.2225   -7839.3643    1375.2081    29083.502    49.555221 
   23360     851.6492   -7934.2342   -7839.2314    1161.3578    29086.969    49.570447 
   23370    849.66257   -7933.9526   -7839.1715    742.80012    29093.328    49.606251 
   23380    844.54354   -7933.3785   -7839.1684    188.92094    29101.489    49.671176 
   23390    835.79522    -7932.439   -7839.2048   -92.398921    29110.121    49.752129 
   23400    830.09156   -7931.8599   -7839.2619   -141.42863    29118.496     49.83019 
   23410    841.33971   -7933.1915   -7839.3388   -241.81678    29126.406    49.893195 
   23420     848.9718   -7934.1571    -7839.453   -244.57829    29133.626    49.935499 
   23430    836.78904   -7932.9621    -7839.617    16.546102    29140.214    49.958202 
   23440     822.8915   -7931.6011   -7839.8063    24.319742     29146.72    49.977151 
   23450    814.46817   -7930.8523   -7839.9972   -161.10542    29153.186    50.002267 
   23460    795.38107   -7928.8839    -7840.158   -225.91011    29159.227     50.03324 
   23470    794.41051   -7928.8839   -7840.2662   -425.03831    29164.597    50.078831 
   23480    794.88678   -7928.9751   -7840.3043   -379.40427      29168.9    50.138032 
   23490    803.99795    -7929.968   -7840.2808    -249.6549    29172.197    50.205385 
   23500    810.08658   -7930.5726   -7840.2062   -105.04194    29174.822    50.278706 
   23510     807.3152   -7930.1515   -7840.0943    186.53753      29177.2    50.348862 
   23520    799.78793   -7929.1537   -7839.9362    414.49415    29180.041    50.406883 
   23530    800.18692   -7928.9801    -7839.718    366.69401    29183.875    50.448397 
   23540    807.34245   -7929.4918   -7839.4316    232.21074     29188.61    50.484375 
   23550    818.30997   -7930.3676   -7839.0839     55.09624    29193.904    50.525003 
   23560    824.68509   -7930.6885   -7838.6936   -168.98578    29199.297    50.573238 
   23570    827.38591   -7930.5772    -7838.281   -318.65343    29204.228    50.629931 
   23580     827.8906   -7930.2064    -7837.854   -401.23171    29208.322    50.683398 
   23590    838.98652   -7931.0088   -7837.4186   -440.40055    29211.383    50.718408 
   23600    849.29592   -7931.7316   -7836.9913   -378.12555    29213.317    50.734523 
   23610    843.98703   -7930.7459   -7836.5979   -96.762173    29214.325    50.740525 
   23620    822.86569   -7928.0293   -7836.2374    167.17777    29215.074    50.744772 
   23630    807.27151   -7925.9222   -7835.8699    180.30505    29216.203    50.754002 
   23640     812.8597   -7926.1357     -7835.46    110.13511    29217.794     50.77955 
   23650    820.43842   -7926.5284   -7835.0073   -8.6124994    29219.649    50.832516 
   23660     826.5483   -7926.7302   -7834.5275    20.351844    29221.524    50.915512 
   23670    828.06021   -7926.4108   -7834.0394    81.331634    29223.455     51.01552 
   23680    818.12663   -7924.8135   -7833.5503   -42.438075    29225.545     51.11849 
   23690    818.70463     -7924.38   -7833.0523   -311.98949    29227.483    51.216743 
   23700    834.12686   -7925.5911    -7832.543   -373.66678    29228.676    51.300114 
   23710    847.92455   -7926.6441   -7832.0568   -285.47778    29228.934    51.364708 
   23720    849.58505    -7926.404   -7831.6315    -81.71338    29228.493    51.415604 
   23730    831.08065   -7923.9819   -7831.2736    185.23245    29227.869    51.455805 
   23740    833.17781   -7923.9017   -7830.9594    362.52293    29227.718    51.487436 
   23750    844.21146   -7924.8462   -7830.6731    410.38182    29228.495    51.510853 
   23760    852.40737    -7925.523   -7830.4356    584.55354    29230.382    51.525512 
   23770    859.82536   -7926.1829   -7830.2681     730.4777    29233.787    51.541678 
   23780     872.6491   -7927.5304    -7830.185    547.65978    29239.014    51.571304 
   23790    884.34645   -7928.8637   -7830.2135    445.27676    29245.689    51.616016 
   23800    890.45031   -7929.7099   -7830.3789    626.04418    29253.599    51.663043 
   23810    898.21343   -7930.9019   -7830.7049    797.64617    29263.132    51.698182 
   23820    890.46805   -7930.5235   -7831.1904    827.54759    29274.706    51.717478 
   23830    882.54491   -7930.2581   -7831.8089    802.53986    29288.411     51.72961 
   23840    872.17623   -7929.8114   -7832.5188    947.72946    29304.253     51.75319 
   23850    850.31523    -7928.102   -7833.2481    1016.9901    29322.547    51.789243 
   23860    846.87757   -7928.3972   -7833.9267    704.98923    29343.409    51.832052 
   23870    852.03671   -7929.5737   -7834.5278    231.71683    29366.066    51.893394 
   23880    836.07929   -7928.3016   -7835.0356    234.29386    29389.449    51.985033 
   23890    821.97293   -7927.1255   -7835.4332    290.79969    29413.436    52.100741 
   23900    818.58464   -7927.0389   -7835.7245    78.310236    29438.098    52.218627 
   23910    813.66289   -7926.6893    -7835.924   -91.002866    29462.983    52.321376 
   23920    830.15962   -7928.6745   -7836.0689   -258.96511    29487.611    52.405589 
   23930    835.24416   -7929.3674   -7836.1947   -385.02606    29511.556     52.47856 
   23940    832.04364   -7929.1346   -7836.3189    -384.0023    29534.513    52.553991 
   23950    839.38487   -7930.0876    -7836.453   -457.74717    29556.416    52.638068 
   23960    832.28319     -7929.44   -7836.5975    -533.8997    29577.083    52.731571 
   23970    822.67745   -7928.5166   -7836.7457   -574.54597    29596.317    52.834977 
   23980    818.78537   -7928.2181   -7836.8814   -706.72238    29613.984    52.933998 
   23990    819.97096   -7928.4667   -7836.9977   -807.10219    29629.747    53.019946 
   24000    826.13394   -7929.2612   -7837.1047    -702.5156    29643.373    53.098881 
   24010    833.32481   -7930.1761   -7837.2174   -449.03707    29655.136     53.17172 
   24020    845.90402   -7931.7195   -7837.3576   -368.54697    29665.634    53.238514 
   24030    848.01023   -7932.1424   -7837.5456   -485.46821    29675.084    53.302191 
   24040    837.31932   -7931.1894   -7837.7852   -445.10306     29683.27    53.362518 
   24050    828.91166   -7930.5254    -7838.059   -503.15941     29690.22    53.421815 
   24060    820.68991   -7929.8985   -7838.3493   -637.14184    29695.796    53.485983 
   24070    812.03513   -7929.2206   -7838.6369   -643.25694    29699.693     53.54897 
   24080    811.62296   -7929.4456   -7838.9078   -601.80315    29701.873    53.600859 
   24090    817.23738   -7930.3243   -7839.1602   -687.93114    29702.413    53.636765 
   24100    833.12863   -7932.3466   -7839.4098   -944.08653     29701.08    53.655979 
   24110    839.92305   -7933.3745   -7839.6798   -1095.8623    29697.271    53.665326 
   24120    840.23914   -7933.7225   -7839.9926   -1292.0214    29690.518     53.66961 
   24130     831.9442   -7933.1436    -7840.339   -1248.4739    29680.397    53.672351 
   24140    822.11509   -7932.4144   -7840.7062   -1054.4418    29667.002    53.676048 
   24150     810.8451   -7931.5213   -7841.0703   -956.70514    29650.812    53.676907 
   24160    807.60613   -7931.5058   -7841.4161   -978.86229    29632.106    53.670208 
   24170     805.2521   -7931.5674   -7841.7403   -946.83195    29610.877    53.652968 
   24180    800.55174   -7931.3348    -7842.032   -883.41296     29587.22    53.624965 
   24190    796.09418   -7931.0823   -7842.2768   -788.23254    29561.312    53.593296 
   24200    791.52901   -7930.7584   -7842.4622   -457.08098    29533.493    53.567916 
   24210    788.91801   -7930.5835   -7842.5785   -154.22736    29504.576    53.556331 
   24220    789.55692   -7930.6971   -7842.6208    94.719779    29475.365    53.559423 
   24230    793.65322   -7931.1243   -7842.5911    315.36412    29446.545    53.572787 
   24240    788.12516   -7930.4004   -7842.4839    606.63103    29418.748    53.583607 
   24250    797.14167   -7931.2133    -7842.291    561.26708    29392.607    53.576759 
   24260    824.31044   -7933.9743   -7842.0212    373.84859    29368.038    53.553968 
   24270    837.81873   -7935.1683   -7841.7083    423.69707    29344.643    53.532335 
   24280    840.57886   -7935.1467   -7841.3789    568.19639    29322.513    53.523549 
   24290     852.7212   -7936.1694   -7841.0471     617.0369     29301.97    53.529588 
   24300    848.99043   -7935.4342   -7840.7281    755.64587    29283.189    53.543388 
   24310    828.34501   -7932.8278   -7840.4247    828.71991    29266.481    53.556911 
   24320     804.8085   -7929.8719   -7840.0943    568.38322     29251.95     53.56863 
   24330    787.14941   -7927.4878   -7839.6801    212.10505    29238.966    53.579126 
   24340    787.05833   -7926.9287   -7839.1312   -26.188005    29226.649    53.588798 
   24350    814.76437   -7929.3204   -7838.4322   -135.88492    29214.355    53.597566 
   24360    831.16372   -7930.3377   -7837.6201    46.793415    29201.854    53.603071 
   24370    835.29157   -7929.9562   -7836.7782    277.47699     29189.56    53.601418 
   24380    845.77029   -7930.3028   -7835.9558    171.17173    29177.971    53.597107 
   24390    871.38103   -7932.4112   -7835.2073   -182.39763    29166.841    53.602581 
   24400    880.77881     -7932.85   -7834.5978   -408.71862    29155.329    53.616723 
   24410    866.85975   -7930.8647   -7834.1652   -268.05823    29142.925    53.624536 
   24420    850.74465   -7928.7769   -7833.8751   -49.926036    29129.907    53.609623 
   24430    838.05654   -7927.1577   -7833.6712    233.59727    29116.846    53.569275 
   24440    841.64466   -7927.4088   -7833.5221    343.64918    29104.417    53.515045 
   24450    845.41366   -7927.7281   -7833.4209    344.64955    29092.923    53.460667 
   24460     844.6627    -7927.596   -7833.3726    352.66307    29082.393    53.412854 
   24470    852.26347   -7928.4513     -7833.38    277.40592    29072.816    53.380251 
   24480    856.27962   -7928.9715   -7833.4523    321.31377    29064.046    53.367225 
   24490    853.77606   -7928.8295   -7833.5895    591.38054    29056.219    53.364386 
   24500    857.33841     -7929.42   -7833.7826    853.13618    29049.971    53.365933 
   24510    865.38303   -7930.5748     -7834.04    848.26199    29045.893    53.368958 
   24520    854.08047   -7929.6411   -7834.3671     798.9027    29044.018    53.369555 
   24530    841.31869   -7928.5805   -7834.7301    609.89469    29044.169    53.377733 
   24540    846.77315   -7929.5673   -7835.1085    289.65846    29045.856    53.406894 
   24550    849.77753   -7930.3034   -7835.5095    223.31607    29048.346    53.451524 
   24560    843.10136    -7929.981   -7835.9317    242.04894    29051.401    53.485892 
   24570    839.31731   -7929.9942   -7836.3671    300.93794    29055.063    53.490214 
   24580    833.46065   -7929.7713   -7836.7975    247.45669    29059.443    53.475239 
   24590    841.52273   -7931.0869   -7837.2138   -126.27942    29064.352    53.462175 
   24600    848.14462   -7932.2368    -7837.625   -484.48449    29068.891     53.46446 
   24610    836.22427   -7931.3103   -7838.0282   -442.01654    29072.236    53.486271 
   24620    822.68264   -7930.1618   -7838.3903   -266.54458    29074.445    53.525776 
   24630    813.79942   -7929.4698   -7838.6892    -1.135737    29075.981    53.575328 
   24640    804.38002    -7928.642   -7838.9122    190.38205    29077.486    53.629602 
   24650    800.54583   -7928.3613   -7839.0592    216.76279    29079.439    53.688964 
   24660    803.29083   -7928.7501   -7839.1418    247.18408    29081.957    53.750638 
   24670    812.51861   -7929.8112   -7839.1735    133.46117    29085.064    53.803444 
   24680    828.55204    -7931.608   -7839.1818    -169.4316    29088.441    53.845469 
   24690    847.26326   -7933.7144   -7839.2009   -382.67822    29091.379    53.878661 
   24700    855.73579   -7934.7163   -7839.2577   -303.18046     29093.39    53.900261 
   24710    845.10345   -7933.6367   -7839.3641   -133.53153     29094.61    53.915071 
   24720     824.3763   -7931.4591   -7839.4987    113.52165    29095.496    53.935266 
   24730    809.32761   -7929.9073   -7839.6256     225.0301    29096.624    53.968393 
   24740    793.46636   -7928.2162   -7839.7038    227.89532    29098.294    54.023993 
   24750    787.92187   -7927.6062   -7839.7124    84.941701    29100.516    54.103805 
   24760    796.81621   -7928.5322   -7839.6462   -248.32821    29102.887    54.196789 
   24770    808.35924   -7929.6939   -7839.5202   -344.07538    29104.667    54.291478 
   24780    815.14355   -7930.2874   -7839.3569   -337.10836    29105.562    54.376836 
   24790    818.87574   -7930.5232   -7839.1764   -283.23051    29105.604    54.447076 
   24800    814.11748   -7929.7985   -7838.9825   -357.30676    29104.905    54.503036 
   24810    823.81314   -7930.6753   -7838.7777    -627.0567    29103.273    54.545869 
   24820    830.28483   -7931.1866   -7838.5671   -851.31303    29100.061    54.579926 
   24830    830.41381   -7931.0031   -7838.3692   -712.24521    29094.804    54.606273 
   24840    829.02717   -7930.6632    -7838.184   -455.95651    29087.818    54.622748 
   24850    819.85001   -7929.4566   -7838.0011   -77.251169    29079.797    54.634205 
   24860    820.74736   -7929.3638   -7837.8082    150.84196    29071.648    54.647835 
   24870    820.34168   -7929.1028   -7837.5925    185.03996    29063.948    54.671016 
   24880    822.53094    -7929.112   -7837.3574    126.96906    29056.809    54.703075 
   24890    825.06787    -7929.134   -7837.0965     57.66198    29050.092    54.739649 
   24900    845.21469   -7931.1014   -7836.8165   -56.510444    29043.602    54.777508 
   24910    854.58944   -7931.8761   -7836.5453   -81.755966    29037.081    54.815391 
   24920    835.81398   -7929.5463   -7836.3099    157.08023    29030.534    54.850231 
   24930    830.59921     -7928.74   -7836.0854    181.26339    29024.435    54.880625 
   24940    837.54621   -7929.2772   -7835.8477    73.879057    29018.849     54.91219 
   24950    832.16029   -7928.4304   -7835.6016    324.20186    29013.633    54.953018 
   24960    823.36516   -7927.1787   -7835.3311    627.75984    29009.335     55.00144 
   24970     832.8377   -7927.9163    -7835.012    702.86686    29006.646    55.053283 
   24980    842.99381    -7928.679   -7834.6418    776.65135    29005.819    55.105323 
   24990    837.45347   -7927.6476   -7834.2284    815.31538    29006.987    55.144438 
   25000    840.70662   -7927.5493   -7833.7672    777.23641    29010.213    55.153241 
Loop time of 9328.68 on 16 procs for 20000 steps with 864 atoms

Performance: 0.185 ns/day, 129.565 hours/ns, 2.144 timesteps/s
97.4% CPU use with 16 MPI tasks x 1 OpenMP threads

MPI task timing breakdown:
Section |  min time  |  avg time  |  max time  |%varavg| %total
---------------------------------------------------------------
Pair    | 5875.2     | 7683       | 8941       |1180.6 | 82.36
Bond    | 0.0019348  | 0.004468   | 0.0085409  |   2.5 |  0.00
Neigh   | 0.22867    | 0.23677    | 0.24474    |   1.0 |  0.00
Comm    | 252.34     | 1478.7     | 3296.9     |2686.0 | 15.85
Output  | 3.3806     | 3.4073     | 3.8035     |   5.5 |  0.04
Modify  | 104.9      | 163.18     | 217.64     | 265.0 |  1.75
Other   |            | 0.1167     |            |       |  0.00

Nlocal:        54.0000 ave          57 max          49 min
Histogram: 2 0 1 1 0 2 3 1 2 4
Nghost:        414.500 ave         447 max         399 min
Histogram: 3 2 2 6 1 0 0 1 0 1
Neighs:         0.00000 ave           0 max           0 min
Histogram: 16 0 0 0 0 0 0 0 0 0
FullNghs:      1569.12 ave        1716 max        1360 min
Histogram: 1 1 1 2 2 2 0 2 1 4

Total # of neighbors = 25106
Ave neighs/atom = 29.057870
Ave special neighs/atom = 0.0000000
Neighbor list builds = 2000
Dangerous builds = 2000
unfix   3
                
Total wall time: 3:14:41
