LAMMPS (2 Aug 2023)
OMP_NUM_THREADS environment is not set. Defaulting to 1 thread. (src/comm.cpp:98)
  using 1 OpenMP thread(s) per MPI task
units          metal
atom_style     full

read_data      initial-solid.data
Reading data file ...
  orthogonal box = (0 0 0) to (25.13497 25.13497 75.404911)
  1 by 1 by 1 MPI processor grid
  reading atoms ...
  1536 atoms
Finding 1-2 1-3 1-4 neighbors ...
  special bond factors lj:    0        0        0       
  special bond factors coul:  0        0        0       
     0 = max # of 1-2 neighbors
     0 = max # of 1-3 neighbors
     0 = max # of 1-4 neighbors
     1 = max # of special neighbors
  special bonds CPU = 0.001 seconds
  read_data CPU = 0.032 seconds
velocity       all create 300.0 1312343 dist gaussian

pair_style     chgnet/gpu /ocean/projects/cts180021p/wuziqi/clease/lammps-ASC/potentials/CHGNET
pair_coeff     * * /ocean/projects/cts180021p/wuziqi/chgnet/fine-tunning2/04-12-2024/epoch999_e52_f152_s406_mNA.pth.tar Cl K

variable myZlo equal zlo
variable myZhi equal zhi
variable myMid equal (${myZlo}+${myZhi})/2
variable myMid equal (0+${myZhi})/2
variable myMid equal (0+75.4049112000531)/2

region   solid block INF INF INF INF ${myZlo} ${myMid}
region   solid block INF INF INF INF 0 ${myMid}
region   solid block INF INF INF INF 0 37.7024556000266
region   liquid block INF INF INF INF ${myMid} ${myZhi}
region   liquid block INF INF INF INF 37.7024556000266 ${myZhi}
region   liquid block INF INF INF INF 37.7024556000266 75.4049112000531
group    gSolid region solid
832 atoms in group gSolid
group    gLiquid region liquid
704 atoms in group gLiquid

neighbor        0.3 bin
neigh_modify    delay 10

timestep        0.0005
compute msd all msd
thermo_style    custom step temp pe etotal press vol c_msd[4]
thermo          10
dump            1 all custom 10 xyz-npt.dump type id x y z
#dump           2 all custom 10 force-npt.dump type id fx fy fz

fix             1 all npt temp 300.0 300.0 $(100.0*dt) aniso 1.01325 1.01325 $(1000.0*dt)
fix             1 all npt temp 300.0 300.0 0.050000000000000002776 aniso 1.01325 1.01325 $(1000.0*dt)
fix             1 all npt temp 300.0 300.0 0.050000000000000002776 aniso 1.01325 1.01325 0.5
run             10000
Neighbor list info ...
  update: every = 1 steps, delay = 10 steps, check = yes
  max neighbors/atom: 2000, page size: 100000
  master list distance cutoff = 6.3
  ghost atom cutoff = 6.3
  binsize = 3.15, bins = 8 8 24
  1 neighbor lists, perpetual/occasional/extra = 1 0 0
  (1) pair chgnet/gpu, perpetual
      attributes: full, newton on
      pair build: full/bin
      stencil: full/bin/3d
      bin: standard
Per MPI rank memory allocation (min/avg/max) = 6.609 | 6.609 | 6.609 Mbytes
   Step          Temp          PotEng         TotEng         Press          Volume        c_msd[4]   
         0   300           -5701.6146     -5642.0903      10034.991      47638.315      0            
        10   296.06911     -5701.1869     -5642.4425      9946.032       47691.992      0.00059114157
        20   284.37106     -5699.8315     -5643.4083      9670.8677      47852.375      0.0033417207 
        30   266.53501     -5697.7471     -5644.8627      8918.603       48115.997      0.011016554  
        40   244.61739     -5695.0518     -5646.5162      7700.9228      48471.181      0.027517719  
        50   220.48797     -5691.7562     -5648.0083      6208.8143      48894.569      0.056372882  
        60   195.81823     -5687.9073     -5649.0542      4667.3175      49352.652      0.09878023   
        70   171.73835     -5683.6714     -5649.596       3237.8854      49808.826      0.15252819   
        80   148.88274     -5679.3018     -5649.7613      2016.8801      50232.77       0.21280659   
        90   128.14098     -5675.0925     -5649.6675      1019.042       50606.677      0.27431184   
       100   110.53483     -5671.2938     -5649.3621      214.19471      50925.117      0.33297358   
       110   96.680788     -5668.0891     -5648.9063     -434.31505      51190.565      0.38640423   
       120   86.752822     -5665.5831     -5648.3701     -965.84286      51408.514      0.43346537   
       130   80.689365     -5663.8158     -5647.8059     -1409.7892      51584.286      0.47364084   
       140   78.29557      -5662.7725     -5647.2375     -1785.8809      51721.76       0.50661684   
       150   79.234831     -5662.3868     -5646.6655     -2095.9297      51823.278      0.53211325   
       160   83.038403     -5662.5685     -5646.0925     -2343.5656      51890.129      0.54987962   
       170   89.123728     -5663.2064     -5645.523      -2520.401       51923.063      0.55976706   
       180   96.857271     -5664.1677     -5644.9499     -2625.8603      51922.79       0.56181202   
       190   105.58518     -5665.3217     -5644.372      -2656.5467      51890.31       0.55628831   
       200   114.65676     -5666.5345     -5643.785      -2615.8901      51827.156      0.54374242   
       210   123.49895     -5667.6848     -5643.1809     -2491.1631      51735.561      0.52499334   
       220   131.66533     -5668.674      -5642.5497     -2283.3745      51618.672      0.50114202   
       230   138.85752     -5669.4375     -5641.8862     -1990.0248      51480.62       0.47352939   
       240   144.92836     -5669.9242     -5641.1683     -1614.1492      51326.528      0.44364725   
       250   149.89086     -5670.1289     -5640.3884     -1165.3593      51162.402      0.41304024   
       260   153.85519     -5670.0619     -5639.5348     -659.47469      50994.868      0.38319016   
       270   157.03601     -5669.7645     -5638.6063     -125.82781      50830.773      0.35539279   
       280   159.71541     -5669.2932     -5637.6034      408.48358      50676.706      0.33066131   
       290   162.18811     -5668.7205     -5636.54        924.21485      50538.57       0.30969829   
       300   164.74026     -5668.1202     -5635.4334      1391.629       50421.322      0.29290911   
       310   167.62543     -5667.564      -5634.3047      1795.3851      50328.799      0.28047184   
       320   171.02647     -5667.1018     -5633.1677      2119.5846      50263.68       0.2724199    
       330   175.0473      -5666.7737     -5632.0418      2350.0775      50227.518      0.26871864   
       340   179.71472     -5666.5876     -5630.9297      2484.0877      50220.776      0.26929817   
       350   184.96078     -5666.5382     -5629.8393      2514.5555      50242.912      0.27407944   
       360   190.64782     -5666.5961     -5628.7688      2438.6346      50292.387      0.28296856   
       370   196.59563     -5666.7169     -5627.7095      2265.7016      50366.666      0.2958253    
       380   202.5716      -5666.8363     -5626.6432      2015.1703      50462.302      0.31243643   
       390   208.34727     -5666.903      -5625.5639      1707.1991      50575.143      0.33248484   
       400   213.75056     -5666.8722     -5624.461       1353.1011      50700.517      0.35550442   
       410   218.62684     -5666.699      -5623.3203      982.28957      50833.422      0.3808653    
       420   222.90125     -5666.3727     -5622.1459      607.82234      50968.852      0.40779564   
       430   226.57396     -5665.8918     -5620.9363      237.57518      51102.013      0.43541179   
       440   229.67322     -5665.266      -5619.6955     -109.05519      51228.496      0.46276927   
       450   232.24199     -5664.5116     -5618.4315     -414.49792      51344.511      0.48891439   
       460   234.38096     -5663.6576     -5617.1531     -671.29421      51447.053      0.51298391   
       470   236.17666     -5662.7307     -5615.8699     -867.6899       51533.988      0.53426941   
       480   237.71841     -5661.7577     -5614.591      -1007.9179      51604.091      0.55224407   
       490   239.09227     -5660.7601     -5613.3208     -1091.0233      51656.924      0.56657465   
       500   240.38396     -5659.756      -5612.0604     -1117.9473      51692.774      0.57715041   
       510   241.7102      -5658.772      -5610.8132     -1097.8322      51712.55       0.5840717    
       520   243.15103     -5657.8231     -5609.5785     -1040.6526      51717.632      0.58758717   
       530   244.7391      -5656.9113     -5608.3515     -934.93503      51709.755      0.58810018   
       540   246.49341     -5656.0382     -5607.1304     -792.14341      51691.063      0.58614639   
       550   248.43962     -5655.2091     -5605.9151     -625.71396      51663.984      0.58232048   
       560   250.61554     -5654.4203     -5604.6946     -439.68634      51631.062      0.57723771   
       570   253.05455     -5653.686      -5603.4764     -253.8654       51594.882      0.57149762   
       580   255.74316     -5652.9983     -5602.2552     -73.294619      51557.879      0.56567671   
       590   258.67883     -5652.3582     -5601.0326      92.220043      51522.248      0.56029314   
       600   261.8313      -5651.7631     -5599.812       243.57909      51489.887      0.55577704   
       610   265.12688     -5651.205      -5598.6         377.19642      51462.388      0.55248064   
       620   268.56029     -5650.6816     -5597.3954      486.02591      51441.034      0.55070877   
       630   272.13113     -5650.2004     -5596.2057      568.75171      51426.767      0.55069224   
       640   275.73283     -5649.7419     -5595.0326      623.57133      51420.168      0.5525749    
       650   279.26442     -5649.2933     -5593.8833      640.66499      51421.443      0.55644332   
       660   282.62711     -5648.837      -5592.7598      627.4539       51430.392      0.56231788   
       670   285.66438     -5648.3408     -5591.6609      587.07664      51446.451      0.5701437    
       680   288.30252     -5647.8007     -5590.5973      547.75784      51468.805      0.57978708   
       690   290.39854     -5647.184      -5589.5647      493.96572      51496.655      0.59109106   
       700   291.85261     -5646.4706     -5588.5628      427.32245      51529.103      0.60385125   
       710   292.7391      -5645.6796     -5587.5959      355.61745      51565.139      0.61782745   
       720   293.15886     -5644.8259     -5586.659       283.47525      51603.745      0.63274315   
       730   293.23505     -5643.9287     -5585.7467      212.98018      51643.945      0.64830366   
       740   293.12167     -5643.0165     -5584.8569      150.65496      51684.836      0.66418549   
       750   292.96672     -5642.1152     -5583.9864      91.117963      51725.628      0.68007289   
       760   292.8751      -5641.2418     -5583.1312      44.380175      51765.62       0.69565976   
       770   292.98387     -5640.4226     -5582.2904      2.743024       51804.279      0.71067336   
       780   293.40221     -5639.6752     -5581.46       -30.812775      51841.177      0.72487863   
       790   294.19448     -5639.0134     -5580.641      -65.772308      51875.974      0.73805734   
       800   295.37555     -5638.4388     -5579.8321     -92.72249       51908.365      0.75001063   
       810   296.98315     -5637.9606     -5579.0349     -107.12515      51938.151      0.76058375   
       820   299.05525     -5637.5929     -5578.256      -123.34533      51965.253      0.76968791   
       830   301.48659     -5637.3157     -5577.4964     -133.54741      51989.618      0.77729385   
       840   304.19429     -5637.1227     -5576.7662     -142.02874      52011.247      0.78342159   
       850   306.94763     -5636.9711     -5576.0683     -151.88607      52030.149      0.78812016   
       860   309.53378     -5636.826      -5575.4101     -157.64118      52046.342      0.79144696   
       870   311.70745     -5636.651      -5574.8038     -151.05997      52059.899      0.79348891   
       880   313.33156     -5636.4221     -5574.2526     -141.14941      52070.993      0.79438014   
       890   314.34528     -5636.1317     -5573.7611     -126.60593      52079.856      0.79428646   
       900   314.83008     -5635.8029     -5573.3361     -115.98242      52086.752      0.79338155   
       910   314.88622     -5635.452      -5572.9741     -102.28767      52091.916      0.79182549   
       920   314.66588     -5635.1093     -5572.675      -89.495236      52095.595      0.78979369   
       930   314.2721      -5634.7958     -5572.4397     -87.828457      52097.993      0.78746298   
       940   313.88626     -5634.5435     -5572.2639     -95.313317      52099.192      0.78496229   
       950   313.61902     -5634.3717     -5572.1452     -109.938        52099.135      0.78234669   
       960   313.59748     -5634.3069     -5572.0847     -126.66979      52097.689      0.77963047   
       970   313.94836     -5634.3739     -5572.0821     -148.76139      52094.695      0.7768214    
       980   314.71076     -5634.579      -5572.1359     -175.44301      52089.942      0.77391538   
       990   315.8154      -5634.9152     -5572.2529     -209.47775      52083.148      0.77090067   
      1000   317.13967     -5635.3597     -5572.4347     -242.84129      52073.966      0.76774879   
      1010   318.47806     -5635.8801     -5572.6895     -269.8398       52062.075      0.76443425   
      1020   319.5863      -5636.4364     -5573.0259     -294.92653      52047.228      0.76093325   
      1030   320.24907     -5636.9872     -5573.4452     -313.66516      52029.223      0.7572064    
      1040   320.28461     -5637.4944     -5573.9453     -311.7822       52007.955      0.75323221   
      1050   319.55629     -5637.9287     -5574.5242     -296.54229      51983.549      0.74902427   
      1060   318.05477     -5638.2766     -5575.17       -265.94834      51956.301      0.74459732   
      1070   315.81618     -5638.5348     -5575.8723     -208.70555      51926.708      0.73997329   
      1080   312.96152     -5638.7065     -5576.6105     -143.36774      51895.54       0.73520854   
      1090   309.66266     -5638.8087     -5577.3672     -66.900215      51863.672      0.73039308   
      1100   306.14283     -5638.8695     -5578.1264      18.271603      51832.061      0.72561551   
      1110   302.60149     -5638.912      -5578.8715      103.7426       51801.745      0.72097557   
      1120   299.1911      -5638.9548     -5579.591       186.99962      51773.736      0.71656528   
      1130   296.06968     -5639.0197     -5580.2752      267.31182      51748.984      0.71246008   
      1140   293.3615      -5639.1218     -5580.9147      332.37392      51728.355      0.70872936   
      1150   291.09774     -5639.2643     -5581.5063      380.43465      51712.506      0.70541636   
      1160   289.30018     -5639.4485     -5582.0472      410.60663      51701.87       0.70254079   
      1170   288.01051     -5639.6814     -5582.536       429.99458      51696.649      0.70008731   
      1180   287.30978     -5639.9821     -5582.9757      434.26731      51696.903      0.69803953   
      1190   287.2476      -5640.356      -5583.3619      414.4042       51702.511      0.69637297   
      1200   287.84447     -5640.8071     -5583.6947      380.83796      51713.078      0.69500999   
      1210   289.06399     -5641.34       -5583.9855      328.90032      51728.029      0.69386304   
      1220   290.82332     -5641.9391     -5584.2356      251.35576      51746.59       0.69283259   
      1230   292.9926      -5642.5829     -5584.449       163.19486      51767.729      0.69180037   
      1240   295.47059     -5643.2618     -5584.6362      57.070369      51790.257      0.69062392   
      1250   298.09074     -5643.9521     -5584.8067     -43.444876      51812.857      0.68911985   
      1260   300.68309     -5644.6271     -5584.9672     -136.36954      51834.276      0.68712779   
      1270   303.11765     -5645.2767     -5585.1339     -225.41892      51853.384      0.68454093   
      1280   305.22692     -5645.87       -5585.3086     -305.11708      51869.141      0.68128987   
      1290   306.87294     -5646.3951     -5585.5072     -375.72036      51880.647      0.67736462   
      1300   307.93905     -5646.835      -5585.7354     -430.56523      51887.143      0.67280259   
      1310   308.37538     -5647.181      -5585.9949     -463.94755      51888.09       0.66767694   
      1320   308.1471      -5647.4279     -5586.2871     -477.62097      51883.226      0.66208869   
      1330   307.24185     -5647.5762     -5586.615      -461.52227      51872.552      0.65616182   
      1340   305.70243     -5647.6267     -5586.971      -425.55942      51856.412      0.65006981   
      1350   303.61623     -5647.5872     -5587.3453     -362.63334      51835.422      0.64401621   
      1360   301.07826     -5647.4681     -5587.7299     -293.12956      51810.472      0.63823144   
      1370   298.24713     -5647.2894     -5588.1129     -217.28778      51782.53       0.63292977   
      1380   295.27967     -5647.0701     -5588.4824     -122.96617      51752.637      0.62830823   
      1390   292.37151     -5646.835      -5588.8243     -26.244343      51721.996      0.62453698   
      1400   289.73495     -5646.62       -5589.1324      76.33109       51691.832      0.62175224   
      1410   287.55762     -5646.4512     -5589.3956      175.17829      51663.39       0.62007311   
      1420   285.99998     -5646.3523     -5589.6058      272.19183      51637.861      0.6195865    
      1430   285.0746      -5646.3237     -5589.7608      350.17242      51616.341      0.62034501   
      1440   284.74835     -5646.3574     -5589.8593      407.4199       51599.687      0.62236336   
      1450   284.97236     -5646.4453     -5589.9027      443.22191      51588.477      0.62560258   
      1460   285.68196     -5646.5709     -5589.8875      469.80387      51583.028      0.62998944   
      1470   286.77812     -5646.7192     -5589.8184      474.43561      51583.491      0.63541784   
      1480   288.10584     -5646.8668     -5589.7025      455.24136      51589.79       0.64174885   
      1490   289.51779     -5646.9855     -5589.541       419.474        51601.557      0.64879264   
      1500   290.83146     -5647.0426     -5589.3375      379.48448      51618.241      0.65632004   
      1510   291.93463     -5647.0232     -5589.0992      321.17777      51639.213      0.66409783   
      1520   292.80722     -5646.9269     -5588.8297      252.99788      51663.668      0.67186448   
      1530   293.45271     -5646.7603     -5588.535       180.83577      51690.693      0.67934596   
      1540   293.94902     -5646.5343     -5588.2106      109.72092      51719.35       0.68628609   
      1550   294.40729     -5646.2845     -5587.8699      40.437602      51748.731      0.69248011   
      1560   294.93308     -5646.0249     -5587.506      -29.657027      51777.951      0.69776495   
      1570   295.61347     -5645.7803     -5587.1263     -96.60818       51806.149      0.70201844   
      1580   296.48177     -5645.5558     -5586.7296     -158.61523      51832.514      0.70515393   
      1590   297.5853      -5645.3668     -5586.3216     -211.60437      51856.319      0.70713914   
      1600   298.97112     -5645.2262     -5585.906      -266.86352      51876.942      0.70796812   
      1610   300.64688     -5645.1427     -5585.4901     -312.10238      51893.776      0.70761911   
      1620   302.57423     -5645.1119     -5585.0769     -345.82741      51906.343      0.70609229   
      1630   304.64761     -5645.1251     -5584.6787     -366.87271      51914.315      0.70343008   
      1640   306.80293     -5645.1716     -5584.2975     -377.48523      51917.512      0.69969273   
      1650   308.90774     -5645.2397     -5583.948      -370.19941      51915.914      0.6949526    
      1660   310.82529     -5645.3075     -5583.6353     -354.05388      51909.702      0.68931187   
      1670   312.41242     -5645.3518     -5583.3647     -333.61843      51899.169      0.68286899   
      1680   313.47419     -5645.3452     -5583.1474     -289.86984      51884.688      0.67574814   
      1690   313.86114     -5645.2606     -5582.9861     -230.36186      51866.878      0.66814398   
      1700   313.50525     -5645.0863     -5582.8824     -157.24306      51846.555      0.66026885   
      1710   312.42707     -5644.8234     -5582.8334     -70.962722      51824.681      0.65234676   
      1720   310.80265     -5644.504      -5582.8363      20.788758      51802.344      0.64461074   
      1730   308.86776     -5644.1653     -5582.8815      112.76448      51780.695      0.63729583   
      1740   306.87249     -5643.8503     -5582.9624      190.7299       51760.858      0.63062813   
      1750   305.04231     -5643.5958     -5583.0711      253.56397      51743.783      0.6247832    
      1760   303.5524      -5643.4281     -5583.199       303.14586      51730.194      0.61988673   
      1770   302.52828     -5643.3677     -5583.3417      347.78574      51720.655      0.61605646   
      1780   302.01419     -5643.4182     -5583.4943      364.26912      51715.607      0.61339733   
      1790   301.92576     -5643.5614     -5583.655       365.33665      51715.188      0.61194591   
      1800   302.12211     -5643.7683     -5583.823       337.16922      51719.3        0.61169497   
      1810   302.47218     -5644.0159     -5584.0011      297.44523      51727.539      0.61257042   
      1820   302.8339      -5644.274      -5584.1875      244.60339      51739.327      0.6144654    
      1830   303.06235     -5644.5187     -5584.3868      184.25481      51753.959      0.61725231   
      1840   303.007       -5644.7175     -5584.5966      110.81725      51770.626      0.62079068   
      1850   302.58582     -5644.856      -5584.8186      47.774612      51788.413      0.62491753   
      1860   301.75663     -5644.92       -5585.0472     -15.860425      51806.491      0.62947729   
      1870   300.52532     -5644.9124     -5585.2838     -69.350099      51824.085      0.63431839   
      1880   298.91065     -5644.8263     -5585.5181     -119.77591      51840.529      0.63928409   
      1890   296.94859     -5644.6681     -5585.7492     -164.54729      51855.211      0.6442084    
      1900   294.69604     -5644.4366     -5585.9647     -195.62287      51867.599      0.64893356   
      1910   292.26401     -5644.147      -5586.1576     -214.30615      51877.344      0.65332023   
      1920   289.79294     -5643.8203     -5586.3212     -227.45535      51884.254      0.65723234   
      1930   287.4838      -5643.4849     -5586.444      -240.79566      51888.193      0.66054681   
      1940   285.51177     -5643.1677     -5586.5181     -238.99969      51889.055      0.66313962   
      1950   283.99953     -5642.8909     -5586.5413     -226.07925      51886.908      0.66491713   
      1960   283.02522     -5642.6558     -5586.4995     -206.00987      51881.95       0.66581609   
      1970   282.66426     -5642.4844     -5586.3997     -172.5942       51874.478      0.66580007   
      1980   282.96583     -5642.3752     -5586.2308     -136.84821      51864.935      0.66487712   
      1990   283.97496     -5642.3423     -5585.9976     -102.51826      51853.798      0.66308128   
      2000   285.7137      -5642.3965     -5585.7068     -60.584734      51841.537      0.66047172   
      2010   288.13229     -5642.5312     -5585.3617     -32.37332       51828.651      0.65714804   
      2020   291.06794     -5642.7235     -5584.9715     -7.3689509      51815.523      0.65322058   
      2030   294.37539     -5642.9524     -5584.5441      20.081957      51802.474      0.64881593   
      2040   297.89016     -5643.204      -5584.0983      48.455918      51789.843      0.64408123   
      2050   301.49549     -5643.4673     -5583.6463      79.174845      51777.983      0.63918983   
      2060   305.08794     -5643.7343     -5583.2004      105.03195      51767.256      0.63434499   
      2070   308.54308     -5643.995      -5582.7756      122.16274      51757.957      0.62974908   
      2080   311.76171     -5644.2444     -5582.3864      124.12598      51750.273      0.62557419   
      2090   314.61064     -5644.47       -5582.0467      116.23187      51744.231      0.62196026   
      2100   316.97005     -5644.656      -5581.7646      104.84217      51739.71       0.61900988   
      2110   318.77129     -5644.8058     -5581.557       91.140031      51736.546      0.61678837   
      2120   319.9971      -5644.9189     -5581.4269      75.478414      51734.553      0.61531044   
      2130   320.63135     -5644.9955     -5581.3776      61.51892       51733.536      0.61457069   
      2140   320.68336     -5645.0482     -5581.42        48.396328      51733.303      0.61454146   
      2150   320.11089     -5645.064      -5581.5494      44.08545       51733.687      0.61518659   
      2160   318.92692     -5645.0427     -5581.7631      39.619681      51734.61       0.61646171   
      2170   317.15965     -5644.9808     -5582.0518      32.479605      51736.024      0.61831274   
      2180   314.8525      -5644.8838     -5582.4125      24.458258      51737.841      0.62065962   
      2190   311.97435     -5644.7285     -5582.8283      20.503565      51739.958      0.62336884   
      2200   308.6527      -5644.5216     -5583.2805      11.5026        51742.311      0.62628466   
      2210   304.98954     -5644.2682     -5583.7539      15.969007      51744.811      0.62922311   
      2220   301.12462     -5643.9814     -5584.234       36.513287      51747.51       0.63202245   
      2230   297.25419     -5643.6852     -5584.7057      47.250021      51750.629      0.63457579   
      2240   293.57105     -5643.3992     -5585.1505      53.76524       51754.322      0.63676924   
      2250   290.21921     -5643.1421     -5585.5584      56.409761      51758.656      0.6384985    
      2260   287.39083     -5642.9429     -5585.9204      54.545334      51763.659      0.63968984   
      2270   285.23919     -5642.8246     -5586.229       47.627963      51769.315      0.64030053   
      2280   283.83813     -5642.7979     -5586.4803      48.381965      51775.553      0.64032598   
      2290   283.17011     -5642.8495     -5586.6645      48.538487      51782.361      0.63979924   
      2300   283.22598     -5642.9875     -5586.7915      39.606169      51789.738      0.63878658   
      2310   283.92367     -5643.1897     -5586.8552      24.729143      51797.582      0.63734726   
      2320   285.1591      -5643.4376     -5586.858      -2.9026974      51805.685      0.63553874   
      2330   286.80081     -5643.7097     -5586.8043     -31.979659      51813.703      0.63339637   
      2340   288.68959     -5643.9785     -5586.6984     -50.162012      51821.288      0.63097103   
      2350   290.71063     -5644.2297     -5586.5486     -65.242006      51828.212      0.62834426   
      2360   292.76857     -5644.452      -5586.3625     -79.110898      51834.286      0.6256029    
      2370   294.86246     -5644.6498     -5586.1448     -87.176801      51839.341      0.6228193    
      2380   296.96447     -5644.8303     -5585.9083     -86.047456      51843.281      0.62006035   
      2390   299.01862     -5644.9885     -5585.6589     -90.184796      51846.099      0.61739275   
      2400   300.93772     -5645.1141     -5585.4038     -88.859973      51847.771      0.61485329   
      2410   302.63983     -5645.1995     -5585.1514     -85.321052      51848.313      0.61246375   
      2420   304.05039     -5645.2379     -5584.91       -80.924803      51847.777      0.61022799   
      2430   305.18338     -5645.2368     -5584.6841     -81.297348      51846.213      0.60813803   
      2440   305.99434     -5645.1943     -5584.4807     -74.725821      51843.634      0.60617543   
      2450   306.47839     -5645.1079     -5584.2982     -65.561315      51840.116      0.60431765   
      2460   306.66095     -5644.9904     -5584.1444     -57.630861      51835.775      0.60256224   
      2470   306.57831     -5644.8453     -5584.0158     -52.026451      51830.706      0.60091188   
      2480   306.30365     -5644.6868     -5583.9117     -38.217154      51824.996      0.59934188   
      2490   305.83328     -5644.5157     -5583.834      -32.454625      51818.797      0.59784372   
      2500   305.20109     -5644.3381     -5583.7819     -31.415827      51812.174      0.59640636   
      2510   304.42402     -5644.1499     -5583.7478     -22.93235       51805.157      0.59501548   
      2520   303.55291     -5643.9613     -5583.7321     -12.352112      51797.852      0.59367233   
      2530   302.64706     -5643.7793     -5583.7298     -12.772819      51790.378      0.59237588   
      2540   301.71003     -5643.6042     -5583.7407     -21.84746       51782.725      0.59108751   
      2550   300.72481     -5643.427      -5583.7589     -17.772693      51774.813      0.58976036   
      2560   299.66373     -5643.2351     -5583.7775     -2.1521788      51766.689      0.58838631   
      2570   298.50523     -5643.0245     -5583.7968      10.057781      51758.522      0.58697932   
      2580   297.16617     -5642.7693     -5583.8073      27.425943      51750.473      0.58555075   
      2590   295.5903      -5642.4587     -5583.8094      43.682521      51742.741      0.58412098   
      2600   293.81507     -5642.09       -5583.7928      70.053442      51735.551      0.58271847   
      2610   291.95028     -5641.6805     -5583.7534      90.359624      51729.211      0.58139353   
      2620   290.10186     -5641.2433     -5583.6829      114.93282      51723.994      0.58020593   
      2630   288.38741     -5640.7947     -5583.5745      149.2373       51720.228      0.57923474   
      2640   286.97262     -5640.3615     -5583.422       167.13721      51718.308      0.57859455   
      2650   286.08809     -5639.9868     -5583.2228      187.79424      51718.487      0.57836711   
      2660   285.90337     -5639.6971     -5582.9698      215.72459      51721.043      0.57863071   
      2670   286.55068     -5639.5254     -5582.6696      232.13081      51726.317      0.57946839   
      2680   288.09458     -5639.48       -5582.3179      240.44031      51734.547      0.58095274   
      2690   290.50198     -5639.5653     -5581.9256      231.19992      51745.838      0.58315219   
      2700   293.61424     -5639.7535     -5581.4963      199.60477      51760.079      0.58609835   
      2710   297.17219     -5640.0139     -5581.0507      151.63711      51776.909      0.58977067   
      2720   300.84157     -5640.2842     -5580.5929      103.22853      51795.772      0.59410207   
      2730   304.37093     -5640.5336     -5580.142       60.470552      51816.069      0.5989984    
      2740   307.49908     -5640.724      -5579.7118      13.701236      51837.235      0.60435503   
      2750   310.07005     -5640.8368     -5579.3145     -33.728094      51858.702      0.61005026   
      2760   312.03914     -5640.8723     -5578.9593     -76.413846      51879.888      0.61593412   
      2770   313.4408      -5640.8423     -5578.6511     -119.85052      51900.226      0.62183357   
      2780   314.34011     -5640.7709     -5578.4013     -161.36661      51919.169      0.62753801   
      2790   314.81546     -5640.6727     -5578.2088     -197.97009      51936.191      0.63281851   
      2800   315.01921     -5640.5815     -5578.0772     -231.14183      51950.809      0.63744886   
      2810   315.06409     -5640.5193     -5578.0061     -267.08175      51962.573      0.64119242   
      2820   314.97356     -5640.4962     -5578.001      -288.81929      51971.028      0.64381211   
      2830   314.79938     -5640.5193     -5578.0586     -305.12828      51975.857      0.64511418   
      2840   314.5633      -5640.5958     -5578.182      -310.74423      51976.835      0.64494023   
      2850   314.23001     -5640.7115     -5578.3638     -302.70089      51973.86       0.64317707   
      2860   313.79165     -5640.8676     -5578.6068     -284.07082      51967          0.63978399   
      2870   313.20877     -5641.054      -5578.9088     -251.37094      51956.459      0.6348214    
      2880   312.45064     -5641.2579     -5579.2633     -218.78584      51942.604      0.62842692   
      2890   311.48156     -5641.4667     -5579.6643     -180.86072      51925.845      0.62075735   
      2900   310.31612     -5641.6765     -5580.1054     -128.1559       51906.651      0.61200562   
      2910   308.90937     -5641.8688     -5580.5767     -81.876609      51885.634      0.60241888   
      2920   307.20469     -5642.0295     -5581.0757     -38.293952      51863.377      0.59224121   
      2930   305.16659     -5642.1324     -5581.583       14.689415      51840.444      0.58170281   
      2940   302.82989     -5642.1793     -5582.0935      61.13277       51817.466      0.57104481   
      2950   300.27185     -5642.1757     -5582.5974      110.71563      51795.063      0.56051267   
      2960   297.59428     -5642.1299     -5583.0829      165.96628      51773.879      0.55034995   
      2970   294.94187     -5642.0588     -5583.5381      220.26285      51754.607      0.54080259   
      2980   292.48512     -5641.9951     -5583.9619      263.96213      51737.939      0.53209553   
      2990   290.416       -5641.9655     -5584.3428      294.24055      51724.444      0.52440714   
      3000   288.82156     -5641.9867     -5584.6804      315.37013      51714.545      0.5178719    
      3010   287.78105     -5642.0698     -5584.9699      320.13639      51708.533      0.51259686   
      3020   287.36057     -5642.2277     -5585.2112      308.20571      51706.499      0.50864096   
      3030   287.51664     -5642.4507     -5585.4033      276.4591       51708.319      0.50603779   
      3040   288.12936     -5642.7213     -5585.5523      228.60821      51713.638      0.50479642   
      3050   289.05754     -5643.0117     -5585.6586      176.84922      51721.915      0.50489765   
      3060   290.15627     -5643.2955     -5585.7244      117.64253      51732.511      0.50630276   
      3070   291.28325     -5643.5475     -5585.7527      60.874091      51744.714      0.50895484   
      3080   292.39958     -5643.7668     -5585.7506      9.7472722      51757.838      0.51278747   
      3090   293.50714     -5643.9554     -5585.7194     -43.457512      51771.226      0.5177159    
      3100   294.60882     -5644.1177     -5585.6631     -93.39448       51784.215      0.52364424   
      3110   295.68172     -5644.2546     -5585.5872     -145.44841      51796.165      0.53044824   
      3120   296.67187     -5644.3557     -5585.4918     -184.98199      51806.425      0.53795596   
      3130   297.61333     -5644.4326     -5585.3819     -216.68038      51814.461      0.54597057   
      3140   298.51745     -5644.4941     -5585.264      -241.91522      51819.837      0.55427019   
      3150   299.38618     -5644.5352     -5585.1327     -256.66226      51822.204      0.56261487   
      3160   300.21603     -5644.5667     -5584.9995     -252.71061      51821.339      0.57076391   
      3170   300.99502     -5644.5872     -5584.8654     -226.39574      51817.264      0.57850456   
      3180   301.72203     -5644.5981     -5584.7322     -198.45737      51810.258      0.58565838   
      3190   302.31737     -5644.5857     -5584.6016     -158.04517      51800.659      0.59204946   
      3200   302.78135     -5644.5579     -5584.4817     -101.11243      51788.965      0.59753569   
      3210   303.14952     -5644.5172     -5584.368      -44.938918      51775.834      0.60202838   
      3220   303.41655     -5644.47       -5584.2678      17.518818      51761.981      0.60546999   
      3230   303.6005      -5644.4194     -5584.1807      79.707662      51748.195      0.60787108   
      3240   303.67976     -5644.3641     -5584.1097      135.53706      51735.254      0.60929024   
      3250   303.64521     -5644.3        -5584.0525      191.13043      51723.887      0.60980194   
      3260   303.56339     -5644.244      -5584.0127      239.8047       51714.798      0.60951794   
      3270   303.50204     -5644.2089     -5583.9897      283.39426      51708.637      0.60857608   
      3280   303.49061     -5644.2001     -5583.9832      314.91872      51705.982      0.607117     
      3290   303.56993     -5644.2239     -5583.9913      320.53791      51707.244      0.60528798   
      3300   303.75324     -5644.2858     -5584.0168      309.28033      51712.565      0.60319437   
      3310   303.99456     -5644.3737     -5584.0568      290.85681      51721.872      0.6009272    
      3320   304.26174     -5644.485      -5584.1151      250.74493      51734.97       0.59857737   
      3330   304.51329     -5644.611      -5584.1912      201.41085      51751.428      0.5961937    
      3340   304.7129      -5644.7428     -5584.2834      140.94557      51770.661      0.59377864   
      3350   304.81999     -5644.8776     -5584.3969      72.671435      51791.946      0.59129534   
      3360   304.78131     -5644.9991     -5584.5262      4.4695254      51814.452      0.5886906    
      3370   304.60434     -5645.1105     -5584.6726     -71.020907      51837.321      0.58592231   
      3380   304.28282     -5645.2108     -5584.8367     -151.32252      51859.6        0.58293092   
      3390   303.76252     -5645.2874     -5585.0165     -230.6178       51880.251      0.57962355   
      3400   303.0762      -5645.3427     -5585.208      -298.69356      51898.257      0.57589504   
      3410   302.2431      -5645.3796     -5585.4103     -348.15927      51912.713      0.57164858   
      3420   301.2432      -5645.3899     -5585.6189     -380.72985      51922.928      0.56683899   
      3430   300.11733     -5645.3848     -5585.8372     -401.73658      51928.425      0.56146706   
      3440   298.82089     -5645.3416     -5586.0512     -398.53134      51928.888      0.55554969   
      3450   297.34862     -5645.2599     -5586.2617     -384.52315      51924.265      0.54915334   
      3460   295.71309     -5645.1321     -5586.4584     -347.20531      51914.686      0.54237334   
      3470   293.91837     -5644.96       -5586.6423     -291.46682      51900.547      0.53534542   
      3480   292.07256     -5644.7509     -5586.7995     -230.45841      51882.484      0.52822909   
      3490   290.31794     -5644.5293     -5586.9261     -152.88386      51861.241      0.52120532   
      3500   288.76256     -5644.3074     -5587.0127     -61.985591      51837.768      0.51449256   
      3510   287.50255     -5644.1023     -5587.0577      28.883762      51813.173      0.50832542   
      3520   286.6366      -5643.9291     -5587.0563      117.50175      51788.596      0.50292651   
      3530   286.18033     -5643.7837     -5587.0014      193.04813      51765.147      0.49851673   
      3540   286.1647      -5643.6775     -5586.8983      262.64617      51743.811      0.4952891    
      3550   286.57942     -5643.6024     -5586.741       325.49694      51725.492      0.49341548   
      3560   287.42212     -5643.5599     -5586.5313      371.89251      51711.011      0.49306387   
      3570   288.66853     -5643.5537     -5586.2777      403.45862      51701.02       0.49439713   
      3580   290.37244     -5643.5977     -5585.9836      411.45512      51695.965      0.49754477   
      3590   292.57509     -5643.7035     -5585.6524      403.77473      51696.039      0.5025752    
      3600   295.21744     -5643.8752     -5585.2999      375.0481       51701.218      0.50950533   
      3610   298.2294      -5644.1019     -5584.9289      334.70935      51711.235      0.51830875   
      3620   301.48192     -5644.3715     -5584.5531      273.23079      51725.638      0.52890433   
      3630   304.74409     -5644.6523     -5584.1868      204.6015       51743.735      0.54113038   
      3640   307.81648     -5644.9138     -5583.8386      136.86839      51764.72       0.55475119   
      3650   310.47602     -5645.1229     -5583.52        69.075986      51787.767      0.56947023   
      3660   312.55062     -5645.2566     -5583.2421     -2.528525       51812.03       0.5849498    
      3670   313.90233     -5645.298      -5583.0153     -57.240624      51836.655      0.60081499   
      3680   314.4462      -5645.2284     -5582.8378     -112.43775      51860.909      0.61667252   
      3690   314.17739     -5645.061      -5582.7237     -157.71143      51884.092      0.63209603   
      3700   313.16179     -5644.8018     -5582.666      -195.53508      51905.592      0.6466364    
      3710   311.50902     -5644.4681     -5582.6603     -223.81333      51924.902      0.65987427   
      3720   309.40745     -5644.0953     -5582.7045     -238.92585      51941.635      0.67144337   
      3730   307.0533      -5643.7119     -5582.7881     -248.03978      51955.553      0.6810508    
      3740   304.63192     -5643.3468     -5582.9035     -254.21063      51966.504      0.68849154   
      3750   302.32184     -5643.0253     -5583.0403     -258.09826      51974.358      0.69362086   
      3760   300.30085     -5642.7733     -5583.1893     -253.66033      51979.027      0.69637422   
      3770   298.62768     -5642.5931     -5583.3411     -249.38689      51980.509      0.69674631   
      3780   297.35398     -5642.4866     -5583.4873     -244.73169      51978.817      0.69478183   
      3790   296.42699     -5642.4415     -5583.6262     -230.74415      51973.964      0.69056521   
      3800   295.84624     -5642.4543     -5583.7542     -217.27216      51966.059      0.68422819   
      3810   295.64815     -5642.5272     -5583.8664     -196.22834      51955.254      0.67595305   
      3820   295.85862     -5642.6646     -5583.962      -177.99293      51941.763      0.66595518   
      3830   296.46195     -5642.8623     -5584.04       -164.96004      51925.772      0.65443346   
      3840   297.41498     -5643.1183     -5584.1069     -144.51475      51907.432      0.64158598   
      3850   298.63743     -5643.4156     -5584.1617     -110.8781       51886.981      0.62764789   
      3860   300.00906     -5643.7372     -5584.2111     -71.321185      51864.82       0.61290976   
      3870   301.37626     -5644.0529     -5584.2555     -42.496861      51841.421      0.59768272   
      3880   302.60383     -5644.3455     -5584.3045     -4.2314083      51817.176      0.58224988   
      3890   303.57933     -5644.5945     -5584.36        36.572607      51792.555      0.56690456   
      3900   304.20626     -5644.7889     -5584.4301      86.480415      51768.093      0.55194164   
      3910   304.44956     -5644.9178     -5584.5107      139.21706      51744.431      0.53766364   
      3920   304.25235     -5644.9768     -5584.6088      189.71315      51722.252      0.52435096   
      3930   303.6047      -5644.96       -5584.7204      234.75714      51702.213      0.51226368   
      3940   302.56096     -5644.879      -5584.8466      279.8463       51684.921      0.50162972   
      3950   301.21299     -5644.7468     -5584.9819      329.83396      51670.986      0.49264663   
      3960   299.65473     -5644.5787     -5585.1229      364.12604      51661.043      0.48548295   
      3970   297.95226     -5644.3846     -5585.2666      388.34779      51655.583      0.48026849   
      3980   296.16678     -5644.1675     -5585.4038      399.06477      51654.959      0.47711125   
      3990   294.37476     -5643.9401     -5585.5319      397.11871      51659.359      0.47608437   
      4000   292.56888     -5643.6892     -5585.6394      385.27995      51668.82       0.47723839   
      4010   290.79671     -5643.4237     -5585.7255      365.91334      51683.265      0.48062405   
      4020   289.14006     -5643.1479     -5585.7784      336.39055      51702.513      0.48628158   
      4030   287.72033     -5642.8843     -5585.7964      278.65223      51726.225      0.49423825   
      4040   286.67426     -5642.6473     -5585.7671      217.56189      51753.775      0.50447473   
      4050   286.14        -5642.4624     -5585.6881      154.62545      51784.441      0.51694077   
      4060   286.19505     -5642.3423     -5585.5571      69.688686      51817.434      0.53154429   
      4070   286.87454     -5642.2892     -5585.3692     -23.308927      51851.701      0.54808363   
      4080   288.20433     -5642.3104     -5585.1266     -108.7906       51886.082      0.56627102   
      4090   290.18568     -5642.413      -5584.836      -203.55757      51919.425      0.58575339   
      4100   292.71063     -5642.5803     -5584.5023     -298.19647      51950.494      0.60609554   
      4110   295.68983     -5642.8052     -5584.1361     -389.71379      51978.032      0.62677945   
      4120   298.95503     -5643.0707     -5583.7537     -463.79573      52000.822      0.64722117   
      4130   302.34696     -5643.3582     -5583.3682     -523.20969      52017.87       0.66683655   
      4140   305.72447     -5643.6566     -5582.9965     -570.11965      52028.35       0.6850541    
      4150   308.90126     -5643.9412     -5582.6507     -595.78295      52031.615      0.70130654   
      4160   311.7062      -5644.1891     -5582.3421     -594.48351      52027.299      0.71508308   
      4170   314.02791     -5644.3956     -5582.088      -557.06924      52015.401      0.72596549   
      4180   315.78624     -5644.5505     -5581.894      -496.70154      51996.353      0.73367803   
      4190   316.86502     -5644.6403     -5581.7697     -423.67799      51970.883      0.73808488   
      4200   317.23003     -5644.66       -5581.7171     -333.471        51939.916      0.73916784   
      4210   316.82941     -5644.6033     -5581.7398     -225.58188      51904.582      0.7370436    
      4220   315.71756     -5644.4762     -5581.8333     -98.250248      51866.251      0.73196612   
      4230   313.92727     -5644.2832     -5581.9955      28.106995      51826.509      0.72430431   
      4240   311.54738     -5644.0309     -5582.2154      147.01876      51786.96       0.71446987   
      4250   308.69802     -5643.7295     -5582.4794      262.0668       51749.115      0.70287818   
      4260   305.58617     -5643.4109     -5582.7782      370.35282      51714.424      0.68997323   
      4270   302.45907     -5643.1062     -5583.094       455.18148      51684.247      0.67620206   
      4280   299.5221      -5642.8429     -5583.4134      514.80031      51659.678      0.66197439   
      4290   296.97884     -5642.6521     -5583.7272      558.39466      51641.498      0.64766193   
      4300   294.90843     -5642.5382     -5584.0242      575.9129       51630.253      0.63361943   
      4310   293.35574     -5642.5027     -5584.2967      565.19555      51626.185      0.62016181   
      4320   292.30807     -5642.5353     -5584.5372      514.92926      51629.162      0.60754077   
      4330   291.70335     -5642.6221     -5584.7439      449.70534      51638.601      0.59592955   
      4340   291.42921     -5642.7374     -5584.9137      375.96543      51653.677      0.58544909   
      4350   291.3891      -5642.8608     -5585.0451      293.07651      51673.46       0.57620854   
      4360   291.5415      -5642.9846     -5585.1386      191.14845      51696.882      0.56826859   
      4370   291.80699     -5643.0897     -5585.191       82.801009      51722.667      0.56160252   
      4380   292.13625     -5643.1718     -5585.2077     -22.173408      51749.436      0.55612862   
      4390   292.48236     -5643.2256     -5585.1929     -114.12887      51775.852      0.55176146   
      4400   292.82755     -5643.2428     -5585.1416     -196.50819      51800.73       0.54842444   
      4410   293.15833     -5643.2333     -5585.0665     -263.97618      51823.037      0.54603389   
      4420   293.45448     -5643.1926     -5584.9671     -314.62727      51841.923      0.54452696   
      4430   293.7568      -5643.1289     -5584.8433     -346.15756      51856.76       0.54387397   
      4440   294.08261     -5643.0524     -5584.7022     -351.33772      51867.183      0.54407268   
      4450   294.46512     -5642.974      -5584.5479     -345.90945      51873.119      0.54514585   
      4460   294.95505     -5642.8989     -5584.3756     -321.29412      51874.665      0.54710425   
      4470   295.59628     -5642.8422     -5584.1916     -273.32577      51872.161      0.54998367   
      4480   296.43949     -5642.8158     -5583.998      -214.05731      51866.215      0.55386259   
      4490   297.47393     -5642.818      -5583.7949     -157.84366      51857.571      0.55885028   
      4500   298.64417     -5642.8425     -5583.5872     -101.47432      51846.961      0.56503901   
      4510   299.86504     -5642.8718     -5583.3743     -35.780023      51835.124      0.57249386   
      4520   300.97759     -5642.877      -5583.1587      34.088563      51822.896      0.58128445   
      4530   301.91236     -5642.8469     -5582.9432      91.762598      51811.147      0.59145615   
      4540   302.67221     -5642.7869     -5582.7324      145.91519      51800.63       0.60301695   
      4550   303.31378     -5642.7063     -5582.5245      195.42522      51792.025      0.61595158   
      4560   303.93098     -5642.6276     -5582.3233      235.42156      51785.945      0.63020235   
      4570   304.58139     -5642.5657     -5582.1324      263.13721      51782.864      0.64563701   
      4580   305.25448     -5642.5192     -5581.9523      274.82934      51783.095      0.66204649   
      4590   305.90031     -5642.4825     -5581.7875      268.00524      51786.749      0.67917405   
      4600   306.48726     -5642.4562     -5581.6447      246.5472       51793.699      0.69669167   
      4610   306.98764     -5642.4364     -5581.5257      206.0007       51803.623      0.71421465   
      4620   307.38226     -5642.4243     -5581.4353      166.64628      51816.005      0.73130215   
      4630   307.66818     -5642.4221     -5581.3763      121.19196      51830.298      0.74750873   
      4640   307.78814     -5642.4221     -5581.3525      67.712478      51845.907      0.76242153   
      4650   307.69423     -5642.4137     -5581.3628      5.2862747      51862.138      0.77562821   
      4660   307.38597     -5642.4009     -5581.4111     -58.178578      51878.2        0.78672543   
      4670   306.81187     -5642.3683     -5581.4924     -116.6997       51893.31       0.79540161   
      4680   305.93912     -5642.3101     -5581.6074     -175.95943      51906.728      0.80142431   
      4690   304.75689     -5642.2156     -5581.7474     -213.38539      51917.764      0.8046352    
      4700   303.25534     -5642.0793     -5581.9091     -233.71955      51925.971      0.80499791   
      4710   301.46004     -5641.9006     -5582.0866     -241.26627      51931.13       0.80257238   
      4720   299.51735     -5641.6959     -5582.2674     -243.15531      51933.174      0.79747056   
      4730   297.62562     -5641.4996     -5582.4464     -232.93276      51932.134      0.78984501   
      4740   295.92974     -5641.3334     -5582.6167     -205.61605      51928.183      0.77994059   
      4750   294.56623     -5641.2133     -5582.7671     -171.92232      51921.69       0.76809633   
      4760   293.60539     -5641.1532     -5582.8977     -128.58671      51913.128      0.7546846    
      4770   293.04362     -5641.1429     -5582.9989     -82.692546      51903.071      0.74009262   
      4780   292.85224     -5641.1799     -5583.0739     -27.9976        51892.14       0.72472325   
      4790   292.96722     -5641.2495     -5583.1206      20.69434       51881.016      0.70897628   
      4800   293.30776     -5641.3337     -5583.1373      73.926382      51870.329      0.69321094   
      4810   293.82219     -5641.4268     -5583.1282      121.42917      51860.731      0.67777651   
      4820   294.44319     -5641.5139     -5583.0922      151.96661      51852.799      0.66299094   
      4830   295.1185      -5641.5912     -5583.0355      181.44663      51846.913      0.64908769   
      4840   295.82034     -5641.6509     -5582.9559      205.24213      51843.397      0.63625643   
      4850   296.54436     -5641.6989     -5582.8602      222.80384      51842.512      0.62464808   
      4860   297.32107     -5641.7413     -5582.7486      224.65538      51844.415      0.61436284   
      4870   298.22339     -5641.8007     -5582.6289      218.33088      51849.103      0.60547688   
      4880   299.32643     -5641.8871     -5582.4964      192.38147      51856.433      0.59803678   
      4890   300.66072     -5642.0182     -5582.3628      145.83817      51866.033      0.59201157   
      4900   302.2257      -5642.1929     -5582.227       80.962136      51877.281      0.58730613   
      4910   303.917       -5642.4034     -5582.102       8.9530041      51889.35       0.5838063    
      4920   305.65834     -5642.636      -5581.989      -63.191424      51901.323      0.58139925   
      4930   307.36256     -5642.8857     -5581.9006     -130.38723      51912.31       0.5799855    
      4940   308.89189     -5643.1293     -5581.8407     -195.79864      51921.481      0.57945953   
      4950   310.13499     -5643.3512     -5581.816      -247.92312      51928.048      0.57971826   
      4960   311.03406     -5643.5526     -5581.839      -287.71261      51931.388      0.58067281   
      4970   311.53486     -5643.7192     -5581.9063     -306.94774      51931.069      0.58224931   
      4980   311.62723     -5643.8569     -5582.0256     -317.94101      51926.887      0.58441903   
      4990   311.31687     -5643.9679     -5582.1982     -319.25179      51918.771      0.58716239   
      5000   310.57476     -5644.0419     -5582.4194     -294.61774      51906.79       0.59045397   
      5010   309.42646     -5644.0789     -5582.6842     -260.84047      51891.289      0.59428929   
      5020   307.90491     -5644.0785     -5582.9857     -214.5489       51872.746      0.59866006   
      5030   306.05131     -5644.0371     -5583.3121     -152.50213      51851.805      0.60356643   
      5040   303.91566     -5643.9492     -5583.648      -74.434348      51829.298      0.60905205   
      5050   301.57461     -5643.8258     -5583.9891      13.89732       51806.228      0.61518116   
      5060   299.10941     -5643.6636     -5584.316       98.921462      51783.706      0.62200573   
      5070   296.70616     -5643.494      -5584.6233      190.81005      51762.81       0.6295344    
      5080   294.51636     -5643.3358     -5584.8996      273.53555      51744.639      0.63775052   
      5090   292.65665     -5643.208      -5585.1407      347.75175      51730.201      0.64660167   
      5100   291.26737     -5643.1381     -5585.3464      401.06381      51720.339      0.6560014    
      5110   290.45754     -5643.145      -5585.5141      439.88063      51715.652      0.66581248   
      5120   290.31257     -5643.2435     -5585.6414      448.71655      51716.511      0.67587056   
      5130   290.82269     -5643.4376     -5585.7342      433.684        51722.931      0.68596581   
      5140   291.95341     -5643.7203     -5585.7926      391.08361      51734.625      0.69586629   
      5150   293.52527     -5644.0646     -5585.825       330.26783      51750.992      0.70534248   
      5160   295.34267     -5644.4366     -5585.8364      261.58334      51771.205      0.71415977   
      5170   297.20959     -5644.7996     -5585.8289      176.6074       51794.332      0.72210062   
      5180   299.00643     -5645.1394     -5585.8122      79.838222      51819.273      0.72894765   
      5190   300.64498     -5645.4423     -5585.79       -8.4691892      51844.814      0.73449704   
      5200   302.06004     -5645.7004     -5585.7674     -104.22645      51869.809      0.73859891   
      5210   303.21639     -5645.915      -5585.7526     -193.64664      51893.084      0.74109886   
      5220   304.07803     -5646.0831     -5585.7497     -278.75359      51913.536      0.74188089   
      5230   304.64609     -5646.2095     -5585.7633     -353.23818      51930.149      0.74086137   
      5240   304.88825     -5646.2886     -5585.7944     -405.23439      51942.057      0.73796343   
      5250   304.75587     -5646.3164     -5585.8485     -434.0277       51948.682      0.73316405   
      5260   304.23835     -5646.2845     -5585.9193     -442.94104      51949.733      0.72652538   
      5270   303.30844     -5646.193      -5586.0123     -426.3703       51945.202      0.71817938   
      5280   302.0069      -5646.0443     -5586.1218     -377.30717      51935.406      0.70830486   
      5290   300.4411      -5645.8528     -5586.241      -313.62278      51921.025      0.69715571   
      5300   298.72496     -5645.6334     -5586.3621     -243.77885      51902.932      0.68503392   
      5310   297.00858     -5645.41       -5586.4793     -169.12602      51882.076      0.67224912   
      5320   295.38739     -5645.1947     -5586.5856     -88.585547      51859.452      0.65911537   
      5330   293.96056     -5644.9995     -5586.6735     -9.8383354      51836.08       0.6459505    
      5340   292.83719     -5644.8435     -5586.7404      81.423803      51812.99       0.63305423   
      5350   292.18006     -5644.7505     -5586.7778      169.81082      51791.296      0.62074435   
      5360   292.08233     -5644.7391     -5586.7858      234.40783      51772.045      0.60931571   
      5370   292.58185     -5644.8168     -5586.7643      284.78903      51756.03       0.59900793   
      5380   293.69117     -5644.9838     -5586.7112      317.55436      51743.834      0.59003561   
      5390   295.34013     -5645.2328     -5586.6331      320.671        51735.776      0.5825577    
      5400   297.39474     -5645.5404     -5586.533       321.40462      51731.858      0.57666147   
      5410   299.71901     -5645.8905     -5586.422       298.86076      51731.988      0.57241584   
      5420   302.13152     -5646.2487     -5586.3014      258.49994      51735.836      0.56983685   
      5430   304.4333      -5646.5947     -5586.1908      210.85905      51742.861      0.56889659   
      5440   306.44829     -5646.8972     -5586.0935      150.64753      51752.411      0.56955084   
      5450   307.98714     -5647.1261     -5586.017       92.578172      51763.722      0.57172317   
      5460   308.92109     -5647.2667     -5585.9724      35.853327      51776.033      0.5753026    
      5470   309.1667      -5647.3096     -5585.9665     -16.413727      51788.616      0.58014498   
      5480   308.6389      -5647.2345     -5585.9961     -65.396021      51800.814      0.58610014   
      5490   307.35485     -5647.0448     -5586.0612     -98.601682      51812.04       0.59299178   
      5500   305.49897     -5646.7775     -5586.1621     -131.23579      51821.874      0.60064169   
      5510   303.27379     -5646.464      -5586.2901     -151.44757      51829.948      0.60885108   
      5520   300.89454     -5646.1351     -5586.4333     -166.63312      51836.019      0.61740939   
      5530   298.55913     -5645.8231     -5586.5847     -173.70219      51839.931      0.6261047    
      5540   296.43216     -5645.5488     -5586.7324     -178.55082      51841.593      0.6347133    
      5550   294.67736     -5645.3368     -5586.8686     -166.22955      51840.999      0.64299058   
      5560   293.45524     -5645.2148     -5586.9891     -156.61493      51838.312      0.6507195    
      5570   292.89083     -5645.1984     -5587.0846     -139.53136      51833.701      0.65766547   
      5580   293.01629     -5645.2925     -5587.1539     -116.65764      51827.4        0.66360448   
      5590   293.7635      -5645.4847     -5587.1979     -94.950028      51819.702      0.66836775   
      5600   294.91177     -5645.7349     -5587.2201     -77.125191      51810.896      0.6718401    
      5610   296.20847     -5645.9934     -5587.2214     -49.562162      51801.251      0.67394117   
      5620   297.46882     -5646.2347     -5587.2127     -29.402301      51791.091      0.67464915   
      5630   298.56935     -5646.4307     -5587.1902     -11.344469      51780.683      0.67395797   
      5640   299.36009     -5646.5599     -5587.1626      10.573383      51770.265      0.67189954   
      5650   299.77846     -5646.6116     -5587.1312      19.766672      51760.083      0.66855158   
      5660   299.79156     -5646.5782     -5587.0953      37.055574      51750.282      0.66403703   
      5670   299.42655     -5646.4688     -5587.0582      52.848746      51741.043      0.65853313   
      5680   298.71885     -5646.2867     -5587.0166      78.770987      51732.578      0.65227817   
      5690   297.73983     -5646.0359     -5586.96        97.874089      51725.182      0.64556504   
      5700   296.59085     -5645.7363     -5586.8885      125.67271      51719.117      0.63868586   
      5710   295.36425     -5645.4053     -5586.8008      151.85304      51714.689      0.63194255   
      5720   294.18852     -5645.0486     -5586.6774      167.24572      51712.199      0.62562899   
      5730   293.21223     -5644.697      -5586.5195      179.6219       51711.829      0.61999687   
      5740   292.58104     -5644.3704     -5586.3181      186.72705      51713.708      0.61526759   
      5750   292.39841     -5644.0851     -5586.0691      182.05057      51717.89       0.61163624   
      5760   292.69083     -5643.843      -5585.769       167.52387      51724.303      0.60924339   
      5770   293.51096     -5643.6639     -5585.4272      148.33258      51732.752      0.60816636   
      5780   294.83269     -5643.5486     -5585.0496      121.90904      51742.969      0.60844521   
      5790   296.54137     -5643.498      -5584.66        92.021954      51754.625      0.6100581    
      5800   298.4704      -5643.4984     -5584.2776      61.696552      51767.34       0.61293457   
      5810   300.49073     -5643.5435     -5583.9218      36.868062      51780.734      0.61696496   
      5820   302.46991     -5643.6226     -5583.6082      15.177715      51794.489      0.62201142   
      5830   304.24506     -5643.7119     -5583.3453     -3.505336       51808.327      0.62790655   
      5840   305.63919     -5643.7764     -5583.1332     -19.018871      51822.024      0.63447243   
      5850   306.56634     -5643.7987     -5582.9716     -34.679831      51835.38       0.64151345   
      5860   307.00246     -5643.7683     -5582.8546     -50.194801      51848.194      0.64880805   
      5870   306.91988     -5643.6738     -5582.7765     -47.7694        51860.298      0.65612881   
      5880   306.32826     -5643.5123     -5582.7324     -47.781416      51871.697      0.66329046   
      5890   305.23747     -5643.2787     -5582.7152     -41.701184      51882.421      0.67012034   
      5900   303.72267     -5642.9835     -5582.7206     -29.832224      51892.549      0.67645664   
      5910   301.94507     -5642.6517     -5582.7415     -14.726177      51902.233      0.68217275   
      5920   300.02495     -5642.2958     -5582.7665     -8.5730688      51911.644      0.6871604    
      5930   298.18654     -5641.957      -5582.7926     -5.6117679      51920.878      0.69134808   
      5940   296.62697     -5641.6663     -5582.8112     -22.074816      51929.954      0.69467179   
      5950   295.50398     -5641.4484     -5582.8161     -46.021626      51938.691      0.6970423    
      5960   294.88311     -5641.3147     -5582.8057     -79.773126      51946.786      0.69837971   
      5970   294.7601      -5641.2583     -5582.7737     -117.8077       51953.816      0.69860548   
      5980   295.09576     -5641.2751     -5582.7239     -147.05268      51959.333      0.69766379   
      5990   295.82195     -5641.3491     -5582.6538     -171.22062      51962.965      0.69558735   
      6000   296.8239      -5641.4561     -5582.5619     -192.54637      51964.407      0.6924506    
      6010   297.96105     -5641.5718     -5582.452      -204.88711      51963.401      0.68833743   
      6020   299.13218     -5641.6853     -5582.3332     -220.69859      51959.778      0.68336033   
      6030   300.17902     -5641.76       -5582.2002     -221.45143      51953.382      0.67763334   
      6040   301.0288      -5641.7875     -5582.0591     -209.38504      51944.212      0.67129438   
      6050   301.66392     -5641.7692     -5581.9147     -191.32094      51932.425      0.66450555   
      6060   302.11648     -5641.7069     -5581.7627     -163.58049      51918.262      0.65740771   
      6070   302.40627     -5641.6102     -5581.6085     -128.72571      51902.079      0.65013607   
      6080   302.5911      -5641.4843     -5581.4458     -76.717368      51884.333      0.64282323   
      6090   302.74305     -5641.3491     -5581.2806     -18.104521      51865.672      0.63564121   
      6100   302.99666     -5641.2257     -5581.1068      36.531573      51846.831      0.62876629   
      6110   303.44489     -5641.1312     -5580.9234      91.140766      51828.511      0.62235073   
      6120   304.18378     -5641.0876     -5580.7332      149.46048      51811.393      0.61651028   
      6130   305.2745      -5641.1074     -5580.5366      206.21734      51796.195      0.61133724   
      6140   306.6972      -5641.1862     -5580.333       249.39068      51783.617      0.60690345   
      6150   308.36726     -5641.3151     -5580.1306      280.1598       51774.191      0.60323851   
      6160   310.1215      -5641.4645     -5579.9319      293.44744      51768.286      0.60032413   
      6170   311.73208     -5641.6036     -5579.7515      298.41813      51766.08       0.59811094   
      6180   313.02992     -5641.7047     -5579.5951      293.46026      51767.625      0.5965381    
      6190   313.88906     -5641.7512     -5579.4711      292.02545      51772.881      0.59555323   
      6200   314.15151     -5641.723      -5579.3909      298.61664      51781.842      0.59513345   
      6210   313.75633     -5641.6135     -5579.3598      286.85204      51794.552      0.59527423   
      6220   312.70109     -5641.4304     -5579.386       264.91882      51810.895      0.59596894   
      6230   311.01597     -5641.1825     -5579.4725      225.79068      51830.586      0.59719388   
      6240   308.7654      -5640.884      -5579.6206      186.69191      51853.16       0.59888347   
      6250   306.08793     -5640.5614     -5579.8292      138.96051      51878.117      0.60098802   
      6260   303.14797     -5640.2413     -5580.0924      91.603846      51904.888      0.60347654   
      6270   300.14721     -5639.9484     -5580.3949      31.716097      51932.863      0.60633198   
      6280   297.29712     -5639.7089     -5580.7209     -41.03485       51961.284      0.60948893   
      6290   294.81445     -5639.543      -5581.0476     -115.90451      51989.247      0.61285844   
      6300   292.85668     -5639.4683     -5581.3613     -186.08691      52015.808      0.61633115   
      6310   291.5291      -5639.488      -5581.6445     -262.14902      52040.051      0.61977498   
      6320   290.88148     -5639.6034     -5581.8883     -340.17949      52061.001      0.62303233   
      6330   290.86694     -5639.8022     -5582.0901     -409.58687      52077.666      0.62591945   
      6340   291.42064     -5640.0765     -5582.2545     -478.38049      52089.13       0.62825281   
      6350   292.43669     -5640.405      -5582.3814     -529.41118      52094.521      0.62982569   
      6360   293.76174     -5640.7661     -5582.4796     -556.31918      52093.171      0.63047076   
      6370   295.27821     -5641.1444     -5582.557      -564.73627      52084.702      0.6300681    
      6380   296.88112     -5641.5223     -5582.6169     -550.64557      52068.992      0.62854603   
      6390   298.44973     -5641.8838     -5582.6671     -504.17921      52046.21       0.62586091   
      6400   299.82809     -5642.2006     -5582.7104     -433.44471      52016.921      0.62201044   
      6410   300.96503     -5642.4712     -5582.7554     -345.658        51982.01       0.61707256   
      6420   301.80278     -5642.6858     -5582.8038     -253.6097       51942.572      0.61120172   
      6430   302.32419     -5642.8422     -5582.8567     -146.94491      51899.793      0.60456775   
      6440   302.5795      -5642.9579     -5582.9218     -23.906859      51855.022      0.59737538   
      6450   302.61769     -5643.0403     -5582.9966      97.095313      51809.808      0.58987781   
      6460   302.49966     -5643.1036     -5583.0834      222.89063      51765.703      0.5823293    
      6470   302.25855     -5643.1604     -5583.188       352.87777      51724.305      0.57499922   
      6480   301.93677     -5643.219      -5583.3104      454.60084      51687.22       0.56816908   
      6490   301.55135     -5643.2867     -5583.4546      539.6198       51655.752      0.56207645   
      6500   301.12714     -5643.3761     -5583.6282      597.93646      51630.952      0.55690408   
      6510   300.62504     -5643.4779     -5583.8296      635.83231      51613.573      0.55280061   
      6520   299.98482     -5643.5878     -5584.0665      642.06342      51604.09       0.54988794   
      6530   299.16155     -5643.6932     -5584.3353      620.74517      51602.61       0.54822216   
      6540   298.13375     -5643.7896     -5584.6355      569.65296      51608.89       0.54780368   
      6550   296.9604      -5643.8811     -5584.9599      500.04276      51622.348      0.54856234   
      6560   295.65636     -5643.9591     -5585.2966      413.73264      51642.166      0.55038505   
      6570   294.26053     -5644.0177     -5585.6322      311.14191      51667.291      0.55310306   
      6580   292.83719     -5644.0569     -5585.9538      204.44405      51696.491      0.55650594   
      6590   291.446       -5644.0723     -5586.2452      84.906482      51728.432      0.56034823   
      6600   290.19966     -5644.0774     -5586.4976     -35.325585      51761.646      0.56433117   
      6610   289.14976     -5644.0734     -5586.7019     -147.77551      51794.631      0.56814589   
      6620   288.37817     -5644.0756     -5586.8572     -244.32307      51825.968      0.57150996   
      6630   287.97003     -5644.1027     -5586.9653     -327.78492      51854.415      0.57419858   
      6640   287.92598     -5644.147      -5587.0183     -397.31576      51878.889      0.57601609   
      6650   288.23961     -5644.2198     -5587.029      -446.61819      51898.494      0.57679901   
      6660   288.91335     -5644.3191     -5586.9945     -480.22717      51912.56       0.57643713   
      6670   289.94738     -5644.4517     -5586.9219     -499.58966      51920.612      0.57486602   
      6680   291.30117     -5644.6102     -5586.8119     -495.13221      51922.372      0.572069     
      6690   292.88413     -5644.782      -5586.6696     -474.38081      51917.83       0.56807637   
      6700   294.60755     -5644.9548     -5586.5005     -429.92371      51907.227      0.56298794   
      6710   296.38893     -5645.1174     -5586.3096     -367.99002      51891.086      0.5569569    
      6720   298.12429     -5645.2573     -5586.1052     -294.55274      51870.138      0.5501893    
      6730   299.79877     -5645.3774     -5585.8931     -205.48244      51845.287      0.5429322    
      6740   301.40291     -5645.484      -5585.6814     -97.659292      51817.649      0.53546607   
      6750   302.90119     -5645.5759     -5585.476       12.028847      51788.548      0.52810702   
      6760   304.26474     -5645.6609     -5585.2904      118.55306      51759.363      0.52117579   
      6770   305.41107     -5645.722      -5585.1241      220.82303      51731.443      0.51496787   
      6780   306.28928     -5645.7616     -5584.9894      306.24441      51706.073      0.50975666   
      6790   306.85788     -5645.7678     -5584.8828      373.377        51684.35       0.50577005   
      6800   307.14986     -5645.7594     -5584.8165      426.3905       51667.15       0.50318205   
      6810   307.11842     -5645.7169     -5584.7802      462.49846      51655.157      0.50212069   
      6820   306.71984     -5645.6375     -5584.7798      490.52597      51648.879      0.50269555   
      6830   305.97972     -5645.5188     -5584.808       503.3285       51648.713      0.50496484   
      6840   305.01067     -5645.3741     -5584.8557      497.29854      51654.884      0.50894786   
      6850   303.95856     -5645.2233     -5584.9135      470.31893      51667.382      0.51463672   
      6860   302.90178     -5645.0775     -5584.9775      424.32457      51685.945      0.52196125   
      6870   301.95021     -5644.953      -5585.0418      359.28454      51710.072      0.53079244   
      6880   301.17668     -5644.8545     -5585.0967      272.33834      51739.003      0.54095859   
      6890   300.59202     -5644.7827     -5585.141       168.125        51771.701      0.55222702   
      6900   300.13437     -5644.73       -5585.179       61.044631      51806.903      0.56430739   
      6910   299.73692     -5644.6787     -5585.2066     -44.740391      51843.276      0.57688022   
      6920   299.33428     -5644.6172     -5585.225      -139.66         51879.502      0.58960453   
      6930   298.91996     -5644.5439     -5585.2339     -227.47039      51914.356      0.60211598   
      6940   298.52958     -5644.4689     -5585.2363     -313.33722      51946.682      0.61403807   
      6950   298.1848      -5644.3938     -5585.2297     -382.72249      51975.372      0.62500142   
      6960   297.92453     -5644.3297     -5585.2172     -439.72656      51999.482      0.63467283   
      6970   297.76031     -5644.2795     -5585.1996     -472.79325      52018.243      0.64276083   
      6980   297.7363      -5644.2484     -5585.1733     -498.40565      52031.15       0.64905323   
      6990   297.85375     -5644.2404     -5585.1419     -509.35691      52037.813      0.65338085   
      7000   298.09244     -5644.2491     -5585.1033     -490.40761      52038.047      0.65563905   
      7010   298.47905     -5644.2825     -5585.06       -461.71982      52031.999      0.65582028   
      7020   299.05161     -5644.3495     -5585.0134     -426.16028      52019.96       0.65396676   
      7030   299.80147     -5644.4465     -5584.9616     -374.21883      52002.337      0.65017412   
      7040   300.68222     -5644.5699     -5584.9103     -311.51159      51979.718      0.64459771   
      7050   301.63057     -5644.7069     -5584.8591     -225.04985      51952.873      0.63745232   
      7060   302.571       -5644.8464     -5584.812      -146.67475      51922.808      0.62900735   
      7070   303.4225      -5644.975      -5584.7716     -59.052874      51890.522      0.61953318   
      7080   304.15942     -5645.0889     -5584.7393      26.801122      51857.089      0.6093251    
      7090   304.77505     -5645.194      -5584.7222      107.70306      51823.59       0.59869081   
      7100   305.22775     -5645.2855     -5584.724       186.74451      51791.055      0.58792496   
      7110   305.46778     -5645.3544     -5584.7452      258.11125      51760.483      0.57729466   
      7120   305.48155     -5645.4034     -5584.7915      315.36103      51732.8        0.56706482   
      7130   305.24526     -5645.4287     -5584.8637      347.69828      51708.74       0.55747711   
      7140   304.75536     -5645.4327     -5584.9649      371.40849      51688.778      0.54871536   
      7150   303.99573     -5645.413      -5585.0959      393.34719      51673.272      0.54091242   
      7160   303.00446     -5645.3789     -5585.2585      405.23094      51662.54       0.53418254   
      7170   301.76255     -5645.3236     -5585.4496      404.89594      51656.784      0.52862757   
      7180   300.2595      -5645.2408     -5585.6651      387.8748       51656.054      0.52431598   
      7190   298.57266     -5645.1405     -5585.8994      355.36         51660.204      0.52126857   
      7200   296.76192     -5645.0248     -5586.143       306.26579      51668.889      0.51946296   
      7210   294.91996     -5644.9043     -5586.388       250.25334      51681.56       0.518846     
      7220   293.13825     -5644.786      -5586.6232      191.22896      51697.578      0.51934144   
      7230   291.5195      -5644.6809     -5586.8393      128.08285      51716.239      0.52086833   
      7240   290.14296     -5644.5981     -5587.0296      58.784843      51736.788      0.5233244    
      7250   289.05263     -5644.5392     -5587.187      -15.245083      51758.381      0.52657958   
      7260   288.24025     -5644.4941     -5587.3031     -76.768232      51780.115      0.53047833   
      7270   287.72028     -5644.4689     -5587.381      -134.42073      51801.195      0.53487482   
      7280   287.51432     -5644.4601     -5587.4131     -181.2741       51820.897      0.53963488   
      7290   287.58028     -5644.4586     -5587.3986     -232.36474      51838.573      0.54462753   
      7300   287.9012      -5644.4575     -5587.3338     -272.39692      51853.565      0.54971075   
      7310   288.46866     -5644.4513     -5587.215      -289.48877      51865.336      0.55475504   
      7320   289.27201     -5644.4348     -5587.0391     -299.47638      51873.597      0.55968401   
      7330   290.31169     -5644.4015     -5586.7995     -300.53389      51878.168      0.56443207   
      7340   291.59142     -5644.3491     -5586.4932     -287.53475      51878.981      0.56894878   
      7350   293.05192     -5644.2722     -5586.1265     -251.76921      51876.156      0.57320891   
      7360   294.65771     -5644.1785     -5585.7142     -201.53188      51870.077      0.57723015   
      7370   296.29168     -5644.0576     -5585.2691     -152.82329      51861.322      0.58106327   
      7380   297.81146     -5643.9243     -5584.8343     -92.098007      51850.487      0.58474971   
      7390   299.11658     -5643.78       -5584.431      -21.91854       51838.307      0.58835914   
      7400   300.14439     -5643.6379     -5584.085       48.181571      51825.655      0.59197808   
      7410   300.86932     -5643.4977     -5583.8009      112.57119      51813.409      0.59569602   
      7420   301.31406     -5643.3618     -5583.5768      173.01569      51802.392      0.59958545   
      7430   301.52233     -5643.23       -5583.4036      228.758        51793.389      0.60371843   
      7440   301.48345     -5643.0872     -5583.2685      274.94948      51787.133      0.60816915   
      7450   301.24599     -5642.9323     -5583.1607      307.1285       51784.259      0.6129965    
      7460   300.80831     -5642.7601     -5583.0755      323.98111      51785.237      0.61824067   
      7470   300.20489     -5642.5686     -5583.0037      322.22808      51790.34       0.62389359   
      7480   299.50494     -5642.3635     -5582.9375      309.02678      51799.619      0.62989907   
      7490   298.80519     -5642.1665     -5582.8793      294.65936      51812.999      0.63616524   
      7500   298.20679     -5641.9849     -5582.8164      262.41608      51830.347      0.64258988   
      7510   297.84998     -5641.8508     -5582.7531      214.6946       51851.337      0.64903348   
      7520   297.82636     -5641.7783     -5582.6853      140.99781      51875.412      0.65531839   
      7530   298.18012     -5641.7728     -5582.6096      57.832202      51901.715      0.66122395   
      7540   298.9352      -5641.8398     -5582.5268     -37.207504      51929.226      0.66650404   
      7550   300.0794      -5641.9801     -5582.4401     -130.67101      51956.77       0.6708786    
[...]
     18200   1266.1334     -5343.5457     -5092.3267      2829.8192      61544.38       29.906981    
     18210   1273.0535     -5343.9199     -5091.3279      2960.0619      61528.421      29.873598    
     18220   1277.7258     -5343.9181     -5090.399       3133.0611      61514.209      29.846948    
     18230   1279.8091     -5343.4794     -5089.5469      3285.4675      61502.756      29.831444    
     18240   1281.1505     -5342.9626     -5088.764       3422.3137      61494.782      29.830258    
     18250   1283.5193     -5342.7085     -5088.0399      3505.1911      61490.707      29.845282    
     18260   1286.865      -5342.6979     -5087.3654      3545.381       61490.552      29.876741    
     18270   1290.651      -5342.8195     -5086.7358      3563.2227      61494.041      29.923664    
     18280   1295.2269     -5343.1458     -5086.1542      3542.4409      61500.901      29.985152    
     18290   1302.5915     -5344.0697     -5085.6169      3448.5168      61510.879      30.060442    
     18300   1313.9458     -5345.8407     -5085.135       3324.8257      61523.352      30.147182    
     18310   1327.3059     -5348.0929     -5084.7364      3172.9789      61537.418      30.241743    
     18320   1338.5996     -5350.0514     -5084.4541      3050.5021      61551.899      30.339199    
     18330   1344.7957     -5351.1431     -5084.3163      2964.3216      61565.544      30.434165    
     18340   1345.1059     -5351.2288     -5084.3405      2869.0718      61577.265      30.521831    
     18350   1340.1583     -5350.426      -5084.5194      2831.0905      61586.29       30.598651    
     18360   1331.7276     -5349.0663     -5084.8324      2823.0807      61592.52       30.663848    
     18370   1322.1132     -5347.5743     -5085.2481      2821.9712      61596.258      30.718325    
     18380   1314.8796     -5346.6171     -5085.7261      2821.312       61598.121      30.76429     
     18390   1311.2709     -5346.42       -5086.2451      2758.1928      61598.864      30.80464     
     18400   1309.2207     -5346.5585     -5086.7903      2660.4222      61598.886      30.840857    
     18410   1305.4033     -5346.3589     -5087.3482      2586.2942      61598.204      30.872957    
     18420   1298.9163     -5345.6294     -5087.9058      2565.2234      61596.805      30.900888    
     18430   1289.8896     -5344.3678     -5088.4352      2602.2733      61594.697      30.92474     
     18440   1278.8433     -5342.644      -5088.9032      2655.6379      61591.99       30.944935    
     18450   1267.1827     -5340.6969     -5089.2697      2733.2528      61589.064      30.962982    
     18460   1258.7359     -5339.2445     -5089.4933      2779.3396      61586.482      30.981086    
     18470   1257.1311     -5338.9735     -5089.5407      2751.0428      61584.609      31.000611    
     18480   1261.8499     -5339.762      -5089.3929      2707.1825      61583.512      31.021822    
     18490   1269.7152     -5340.9657     -5089.036       2649.7867      61582.991      31.044027    
     18500   1276.6741     -5341.7754     -5088.465       2631.7884      61582.616      31.065682    
     18510   1280.4432     -5341.7256     -5087.6673      2671.2899      61581.908      31.085077    
     18520   1280.5854     -5340.7104     -5086.624       2722.4007      61580.281      31.100038    
     18530   1279.6256     -5339.2156     -5085.3195      2794.6847      61576.936      31.107429    
     18540   1280.6133     -5337.8496     -5083.7576      2890.6967      61571.12       31.104253    
     18550   1285.8525     -5337.1183     -5081.9867      2927.6694      61562.26       31.08828     
     18560   1295.2211     -5337.1143     -5080.1238      2945.394       61549.917      31.057832    
     18570   1306.6859     -5337.5951     -5078.3299      2918.1535      61533.681      31.01136     
     18580   1318.1289     -5338.285      -5076.7494      2884.7335      61513.171      30.947481    
     18590   1327.6383     -5338.8853     -5075.4628      2823.6476      61488.082      30.865134    
     18600   1334.5647     -5339.2635     -5074.4668      2765.6151      61458.388      30.764395    
     18610   1339.7328     -5339.5386     -5073.7164      2737.217       61424.231      30.646038    
     18620   1343.8387     -5339.7887     -5073.1518      2752.7612      61386.026      30.511936    
     18630   1347.4568     -5340.0802     -5072.7255      2774.5364      61344.598      30.365614    
     18640   1349.5712     -5340.1729     -5072.3986      2813.7781      61300.938      30.211194    
     18650   1349.0454     -5339.8235     -5072.1535      2894.1861      61255.891      30.05211     
     18660   1345.9462     -5339.0233     -5071.9683      2996.2946      61210.009      29.890556    
     18670   1340.5953     -5337.8097     -5071.8164      3143.8109      61163.453      29.727136    
     18680   1333.8455     -5336.3291     -5071.6751      3307.9428      61116.418      29.56266     
     18690   1326.5614     -5334.717      -5071.5083      3527.2124      61069.138      29.398132    
     18700   1320.5018     -5333.2961     -5071.2897      3735.908       61022.125      29.2357      
     18710   1317.8655     -5332.4707     -5070.9873      3894.3598      60976.19       29.078693    
     18720   1319.1472     -5332.3264     -5070.5887      4055.7584      60932.471      28.931714    
     18730   1323.025      -5332.5919     -5070.0848      4170.6911      60892.629      28.801394    
     18740   1328.6936     -5333.116      -5069.4841      4251.9118      60858.404      28.694598    
     18750   1336.6632     -5334.0161     -5068.803       4303.1348      60831.352      28.617345    
     18760   1346.8174     -5335.2957     -5068.0678      4299.7867      60812.563      28.573737    
     18770   1356.9399     -5336.543      -5067.3067      4325.6075      60802.609      28.565868    
     18780   1365.5731     -5337.5076     -5066.5583      4332.9798      60801.779      28.594764    
     18790   1372.6231     -5338.1964     -5065.8483      4300.8017      60810.029      28.660195    
     18800   1379.1506     -5338.8431     -5065.1999      4262.5524      60826.861      28.760182    
     18810   1385.3396     -5339.5001     -5064.6289      4223.9405      60851.497      28.891723    
     18820   1389.1328     -5339.7722     -5064.1484      4189.644       60883.1        29.051662    
     18830   1388.4392     -5339.2573     -5063.7711      4161.1624      60920.921      29.237204    
     18840   1382.6409     -5337.8243     -5063.4886      4133.3605      60964.559      29.446938    
     18850   1373.6579     -5335.8314     -5063.278       4119.2859      61013.807      29.680258    
     18860   1364.0127     -5333.7451     -5063.1055      4139.6028      61068.772      29.937898    
     18870   1355.0446     -5331.7943     -5062.9341      4110.9886      61129.813      30.221739    
     18880   1346.4813     -5329.8794     -5062.7182      4033.1577      61196.795      30.531696    
     18890   1338.6584     -5328.0289     -5062.4199      3936.7525      61269.248      30.866276    
     18900   1334.7461     -5326.8329     -5062.0001      3760.3095      61346.421      31.222696    
     18910   1339.2052     -5327.139      -5061.4216      3483.8992      61427.092      31.596114    
     18920   1353.4093     -5329.2103     -5060.6745      3178.9174      61509.347      31.978731    
     18930   1372.5462     -5332.1115     -5059.7786      2833.8859      61590.919      32.361168    
     18940   1389.977      -5334.5856     -5058.7942      2572.592       61669.268      32.732641    
     18950   1401.2571     -5335.8138     -5057.7844      2341.185       61742.265      33.083804    
     18960   1405.864      -5335.7468     -5056.8033      2237.3924      61808.192      33.406829    
     18970   1402.7245     -5334.2117     -5055.891       2250.3994      61866.401      33.698478    
     18980   1389.8941     -5330.8147     -5055.0398      2422.3991      61917.534      33.961208    
     18990   1370.3866     -5326.1155     -5054.2112      2650.6947      61963.105      34.201349    
     19000   1351.9725     -5321.5858     -5053.3351      2918.3186      62005.111      34.427422    
     19010   1344.3277     -5319.0718     -5052.3379      3103.2115      62045.67       34.648582    
     19020   1345.7152     -5318.1866     -5051.1775      3185.4983      62086.13       34.870707    
     19030   1348.0284     -5317.3253     -5049.8572      3253.3727      62127.216      35.097054    
     19040   1349.9092     -5316.2534     -5048.4121      3308.3501      62169.783      35.331529    
     19050   1353.339      -5315.4163     -5046.8944      3354.7316      62214.675      35.578058    
     19060   1358.5875     -5314.9384     -5045.3751      3365.0585      62262.397      35.83903     
     19070   1364.4147     -5314.6501     -5043.9307      3368.0505      62312.895      36.114251    
     19080   1369.8806     -5314.4308     -5042.6268      3329.2514      62365.813      36.402113    
     19090   1375.0835     -5314.3367     -5041.5004      3307.4988      62420.629      36.70018     
     19100   1381.1703     -5314.5996     -5040.5556      3233.823       62476.926      37.006432    
     19110   1388.1647     -5315.2072     -5039.7754      3158.4599      62534.229      37.318593    
     19120   1394.1548     -5315.7568     -5039.1366      3089.1226      62592.153      37.63481     
     19130   1397.5247     -5315.9052     -5038.6162      3015.9394      62650.436      37.953779    
     19140   1397.9857     -5315.562      -5038.1816      2956.3094      62708.713      38.273695    
     19150   1395.6513     -5314.7238     -5037.8065      2904.4571      62766.384      38.591565    
     19160   1392.25       -5313.7075     -5037.4652      2876.3465      62822.942      38.904801    
     19170   1390.7862     -5313.0842     -5037.1323      2822.2314      62878.084      39.211776    
     19180   1392.3702     -5313.0549     -5036.7887      2716.63        62931.593      39.511397    
     19190   1393.4277     -5312.9081     -5036.4321      2623.1555      62983.404      39.803396    
     19200   1390.8347     -5312.0175     -5036.0559      2588.8883      63033.636      40.088422    
     19210   1384.9648     -5310.4457     -5035.6488      2566.4753      63082.71       40.368557    
     19220   1378.0809     -5308.6135     -5035.1825      2606.3001      63131.015      40.645718    
     19230   1373.9483     -5307.2421     -5034.631       2615.5277      63178.868      40.921443    
     19240   1375.5872     -5306.9062     -5033.97        2581.1215      63226.446      41.196615    
     19250   1382.7822     -5307.5607     -5033.1969      2525.3191      63273.627      41.470687    
     19260   1393.1005     -5308.7406     -5032.3295      2454.1619      63320.231      41.74285     
     19270   1404.1296     -5310.0007     -5031.4013      2382.6327      63366.258      42.013159    
     19280   1414.0504     -5311.0173     -5030.4495      2303.7308      63411.968      42.282991    
     19290   1421.7457     -5311.6069     -5029.5122      2221.2844      63457.627      42.553762    
     19300   1427.4352     -5311.8406     -5028.617       2169.6398      63503.468      42.826726    
     19310   1431.3015     -5311.7743     -5027.7836      2133.5222      63549.772      43.103315    
     19320   1432.5779     -5311.2667     -5027.0228      2117.4034      63596.802      43.38483     
     19330   1430.6824     -5310.2014     -5026.3335      2148.0401      63644.851      43.672703    
     19340   1425.6594     -5308.5743     -5025.7031      2196.2168      63694.356      43.969047    
     19350   1419.2613     -5306.7118     -5025.11        2254.5378      63745.799      44.27628     
     19360   1414.1244     -5305.1082     -5024.5256      2296.7157      63799.647      44.596807    
     19370   1412.2294     -5304.1318     -5023.9253      2308.0614      63856.207      44.932342    
     19380   1414.2678     -5303.9055     -5023.2945      2293.2028      63915.468      45.283048    
     19390   1418.453      -5304.0685     -5022.6271      2240.2806      63976.954      45.646734    
     19400   1422.2117     -5304.1187     -5021.9315      2144.2734      64039.874      46.019491    
     19410   1423.9697     -5303.7539     -5021.2179      2057.372       64103.273      46.396392    
     19420   1423.8416     -5302.9966     -5020.486       2012.0624      64166.206      46.772389    
     19430   1422.5335     -5301.9884     -5019.7374      2009.8603      64227.927      47.143286    
     19440   1420.4184     -5300.7946     -5018.9632      2015.8715      64287.776      47.505259    
     19450   1418.1014     -5299.5308     -5018.1591      2040.8353      64345.388      47.85601     
     19460   1417.0783     -5298.4834     -5017.3148      2025.8955      64400.709      48.194893    
     19470   1417.6091     -5297.7048     -5016.4309      1978.084       64453.702      48.521358    
     19480   1419.143      -5297.0878     -5015.5095      1917.5533      64504.506      48.835822    
     19490   1420.5528     -5296.4191     -5014.561       1874.8157      64553.568      49.140368    
     19500   1422.8995     -5295.9258     -5013.6021      1812.034       64601.519      49.438227    
     19510   1428.5497     -5296.0913     -5012.6466      1754.635       64648.835      49.731948    
     19520   1437.9408     -5297.031      -5011.723       1658.9868      64695.723      50.022819    
     19530   1448.5842     -5298.2849     -5010.8651      1538.7567      64741.876      50.30947     
     19540   1457.6118     -5299.3198     -5010.1088      1478.5463      64786.519      50.587984    
     19550   1463.6192     -5299.8926     -5009.4896      1452.1095      64829.209      50.856193    
     19560   1466.3011     -5299.9457     -5009.0105      1453.5105      64869.693      51.112789    
     19570   1465.7372     -5299.4886     -5008.6654      1494.1157      64907.835      51.356911    
     19580   1463.4129     -5298.7928     -5008.4308      1617.5539      64943.898      51.589748    
     19590   1461.4078     -5298.2468     -5008.2826      1769.1947      64978.578      51.814819    
     19600   1459.6291     -5297.8052     -5008.1939      1903.5904      65012.788      52.036908    
     19610   1457.1053     -5297.2544     -5008.1438      2061.075       65047.543      52.261471    
     19620   1453.0061     -5296.4176     -5008.1204      2187.9384      65084.155      52.495751    
     19630   1447.6079     -5295.3237     -5008.0976      2333.0326      65123.843      52.746692    
     19640   1442.1273     -5294.1954     -5008.0567      2422.4002      65167.699      53.020651    
     19650   1436.9149     -5293.0851     -5007.9806      2526.0837      65216.456      53.322059    
     19660   1431.5619     -5291.8934     -5007.851       2616.6332      65270.845      53.655396    
     19670   1425.9        -5290.5677     -5007.6488      2643.0307      65331.427      54.024299    
     19680   1421.1409     -5289.3347     -5007.36        2644.5006      65398.205      54.429396    
     19690   1418.8232     -5288.4756     -5006.9607      2631.1705      65470.78       54.869145    
     19700   1417.0511     -5287.604      -5006.4408      2593.7477      65548.352      55.33966     
     19710   1415.6308     -5286.6782     -5005.7968      2582.3241      65630.025      55.836379    
     19720   1416.0909     -5286.0033     -5005.0306      2529.8987      65715.462      56.357861    
     19730   1419.6756     -5285.8279     -5004.1439      2441.683       65804.527      56.903719    
     19740   1427.2357     -5286.3373     -5003.1533      2327.8412      65897.098      57.473549    
     19750   1438.4559     -5287.5044     -5002.0941      2143.155       65993.018      58.066793    
     19760   1451.1419     -5288.933      -5001.0057      1972.4967      66091.922      58.681746    
     19770   1463.9582     -5290.4169     -4999.9466      1818.727       66193.621      59.317787    
     19780   1474.1451     -5291.4554     -4998.964       1677.2211      66298.177      59.975804    
     19790   1479.1948     -5291.5898     -4998.0964      1587.8754      66405.916      60.658257    
     19800   1478.829      -5290.7714     -4997.3505      1517.6818      66517.265      61.368227    
     19810   1475.1351     -5289.3999     -4996.712       1472.9432      66632.419      62.107331    
     19820   1470.0059     -5287.8175     -4996.1473      1455.1867      66751.239      62.875051    
     19830   1464.3252     -5286.1655     -4995.6224      1461.5225      66873.056      63.667534    
     19840   1458.9303     -5284.574      -4995.1013      1459.7409      66996.883      64.478757    
     19850   1454.6582     -5283.1838     -4994.5588      1490.6289      67121.708      65.302419    
     19860   1450.8612     -5281.8497     -4993.9781      1498.2881      67246.686      66.133159    
     19870   1444.3146     -5279.9165     -4993.3438      1524.9277      67371.193      66.966964    
     19880   1434.4046     -5277.2421     -4992.6357      1566.8922      67494.808      67.801056    
     19890   1425.2868     -5274.6237     -4991.8264      1594.5277      67617.196      68.633184    
     19900   1422.4981     -5273.1343     -4990.8903      1608.8232      67737.807      69.459616    
     19910   1428.4642     -5273.2493     -4989.8215      1524.6729      67855.768      70.274391    
     19920   1439.979      -5274.3578     -4988.6453      1387.8293      67969.631      71.067475    
     19930   1452.3231     -5275.5751     -4987.4134      1252.8888      68077.73       71.827153    
     19940   1462.6663     -5276.402      -4986.188       1129.3471      68178.843      72.544536    
     19950   1469.8853     -5276.6591     -4985.0128      1025.8547      68272.177      73.213515    
     19960   1474.7609     -5276.5294     -4983.9157      979.93099      68357.316      73.830491    
     19970   1478.0167     -5276.1643     -4982.9046      944.8115       68434.512      74.396379    
     19980   1479.7857     -5275.5857     -4981.975       924.84479      68504.345      74.914361    
     19990   1479.2094     -5274.6083     -4981.112       928.52521      68567.734      75.390016    
     20000   1476.3298     -5273.2277     -4980.3027      954.62309      68625.863      75.830868    
Loop time of 2572.36 on 1 procs for 10000 steps with 1536 atoms

Performance: 0.168 ns/day, 142.909 hours/ns, 3.887 timesteps/s, 5.971 katom-step/s
109.0% CPU use with 1 MPI tasks x 1 OpenMP threads

MPI task timing breakdown:
Section |  min time  |  avg time  |  max time  |%varavg| %total
---------------------------------------------------------------
Pair    | 2550.9     | 2550.9     | 2550.9     |   0.0 | 99.17
Bond    | 0.0028904  | 0.0028904  | 0.0028904  |   0.0 |  0.00
Neigh   | 1.9534     | 1.9534     | 1.9534     |   0.0 |  0.08
Comm    | 0.29496    | 0.29496    | 0.29496    |   0.0 |  0.01
Output  | 18.431     | 18.431     | 18.431     |   0.0 |  0.72
Modify  | 0.6814     | 0.6814     | 0.6814     |   0.0 |  0.03
Other   |            | 0.07795    |            |       |  0.00

Nlocal:           1536 ave        1536 max        1536 min
Histogram: 1 0 0 0 0 0 0 0 0 0
Nghost:           2137 ave        2137 max        2137 min
Histogram: 1 0 0 0 0 0 0 0 0 0
Neighs:              0 ave           0 max           0 min
Histogram: 1 0 0 0 0 0 0 0 0 0
FullNghs:        34842 ave       34842 max       34842 min
Histogram: 1 0 0 0 0 0 0 0 0 0

Total # of neighbors = 34842
Ave neighs/atom = 22.683594
Ave special neighs/atom = 0
Neighbor list builds = 810
Dangerous builds = 406
unfix           2

write_data      structure.ready.data
System init for write_data ...

write_restart   structure.ready
System init for write_restart ...
    
Total wall time: 1:30:21
