LAMMPS (29 Sep 2021 - Update 3)
OMP_NUM_THREADS environment is not set. Defaulting to 1 thread. (src/comm.cpp:98)
  using 1 OpenMP thread(s) per MPI task
units	metal
atom_style	full

read_data	mixed.data
Reading data file ...
  orthogonal box = (0.0000000 0.0000000 0.0000000) to (14.934386 14.958024 69.402279)
  1 by 2 by 8 MPI processor grid
  reading atoms ...
  864 atoms
Finding 1-2 1-3 1-4 neighbors ...
  special bond factors lj:    0        0        0       
  special bond factors coul:  0        0        0       
     0 = max # of 1-2 neighbors
     0 = max # of 1-3 neighbors
     0 = max # of 1-4 neighbors
     1 = max # of special neighbors
  special bonds CPU = 0.002 seconds
  read_data CPU = 0.030 seconds

pair_style	quip
pair_coeff	* * /ocean/projects/cts180021p/wuziqi/clease/mint-PD/PhaseDiagram-Clease/Liquid/GAP_potential/gap_LiKCl.xml "Potential xml_label=GAP_2021_9_27_0_1_17_37_618" 17 3

neighbor	0.3 bin
neigh_modify	delay 10

timestep	0.001
compute	msd all msd
thermo_style	custom step temp pe etotal press vol c_msd[4]
thermo	10
dump	1 all custom 10 xyz-mix.dump type id x y z
dump	2 all custom 10 force-mix.dump type id fx fy fz

fix     1 all nve
run     2000
Neighbor list info ...
  update every 1 steps, delay 10 steps, check yes
  max neighbors/atom: 2000, page size: 100000
  master list distance cutoff = 6.22
  ghost atom cutoff = 6.22
  binsize = 3.11, bins = 5 5 23
  1 neighbor lists, perpetual/occasional/extra = 1 0 0
  (1) pair quip, perpetual
      attributes: full, newton on
      pair build: full/bin
      stencil: full/bin/3d
      bin: standard
Per MPI rank memory allocation (min/avg/max) = 8.899 | 8.909 | 8.915 Mbytes
Step Temp PotEng TotEng Press Volume c_msd[4] 
       0            0   -6172.5374   -6172.5374   -7082.6594    15503.698            0 
      10     119.0518   -6185.8373   -6172.5569    -9934.496    15503.698 0.0010071496 
      20    261.33204   -6201.7236   -6172.5716   -11295.094    15503.698  0.011565216 
      30    255.25791   -6201.0293   -6172.5549   -7123.0934    15503.698  0.034561857 
      40    264.42457   -6202.0531   -6172.5561   -5862.3924    15503.698  0.056650094 
      50    312.68329   -6207.4417   -6172.5614   -8677.8799    15503.698  0.070921244 
      60    325.67352   -6208.8908   -6172.5615   -10844.072    15503.698  0.082468217 
      70    295.31701      -6205.5    -6172.557   -10469.186    15503.698  0.097559999 
      80     271.8645   -6202.8841   -6172.5572   -9026.4225    15503.698   0.11664668 
      90    265.91321   -6202.2182   -6172.5552   -8317.7174    15503.698   0.13792772 
     100     287.1964   -6204.5961   -6172.5589   -8346.2512    15503.698   0.15949482 
     110    302.68865   -6206.3257   -6172.5603   -7330.7252    15503.698   0.18154576 
     120    297.65715   -6205.7608   -6172.5567   -6310.0558    15503.698   0.20233128 
     130     308.5729   -6206.9825   -6172.5607   -7014.1109    15503.698   0.21603749 
     140    308.49663   -6206.9739   -6172.5606   -8254.7053    15503.698   0.22639086 
     150    300.11731   -6206.0386   -6172.5601   -9257.3775    15503.698   0.23678646 
     160    287.85788   -6204.6691   -6172.5581   -9955.8958    15503.698   0.24792738 
     170    289.66466   -6204.8731   -6172.5606   -10583.255    15503.698   0.25945006 
     180    289.75654   -6204.8819   -6172.5591   -10712.363    15503.698    0.2718679 
     190    295.13609   -6205.4836   -6172.5607   -10488.456    15503.698   0.28444874 
     200    294.99607   -6205.4677   -6172.5604   -10129.942    15503.698   0.29609877 
     210    286.95916   -6204.5707     -6172.56   -9663.0674    15503.698   0.30649264 
     220    275.72988   -6203.3179   -6172.5599   -9177.9183    15503.698   0.31608118 
     230    270.50861   -6202.7358   -6172.5602   -8672.5656    15503.698   0.32607004 
     240     272.7294   -6202.9827   -6172.5593   -8853.0275    15503.698   0.33522232 
     250    279.60122   -6203.7491   -6172.5591   -10041.178    15503.698   0.34187187 
     260    292.08827   -6205.1435   -6172.5606   -11551.724    15503.698   0.34819423 
     270    296.23245   -6205.6053   -6172.5602   -12576.966    15503.698   0.35504368 
     280    290.59525   -6204.9758   -6172.5595   -13159.977    15503.698   0.36200476 
     290    286.39853   -6204.5075   -6172.5593   -12930.633    15503.698   0.36806237 
     300    285.16596    -6204.371   -6172.5603    -12383.94    15503.698   0.37260207 
     310     276.3618   -6203.3874   -6172.5589   -11854.298    15503.698   0.37624334 
     320    275.40717   -6203.2805   -6172.5584   -11896.916    15503.698   0.38034324 
     330    285.09748   -6204.3645   -6172.5614   -12353.811    15503.698   0.38651832 
     340      285.616    -6204.421   -6172.5601   -12511.793    15503.698   0.39499421 
     350    284.89791    -6204.341   -6172.5602   -12689.242    15503.698   0.40459174 
     360    282.95249   -6204.1225   -6172.5588   -13170.846    15503.698   0.41246598 
     370     288.0353   -6204.6912   -6172.5604   -13564.963    15503.698   0.41769002 
     380    287.28249    -6204.606   -6172.5592   -13378.283    15503.698   0.42278811 
     390    286.02871   -6204.4671   -6172.5602   -13125.251    15503.698   0.42882483 
     400    278.58412   -6203.6357   -6172.5592   -12733.019    15503.698   0.43546846 
     410    278.85156   -6203.6642   -6172.5579   -12725.177    15503.698   0.44118431 
     420    295.44173    -6205.519   -6172.5621   -12919.137    15503.698   0.44580202 
     430    288.38426     -6204.73   -6172.5603   -12292.067    15503.698   0.45184932 
     440     275.0948   -6203.2448   -6172.5576   -11576.148    15503.698    0.4597765 
     450    284.42439   -6204.2884   -6172.5604   -11635.475    15503.698   0.46872177 
     460    290.54397   -6204.9708   -6172.5602   -11458.018    15503.698   0.47890159 
     470    292.27935   -6205.1639   -6172.5597   -11047.279    15503.698   0.48981965 
     480    296.29192   -6205.6126   -6172.5608    -11053.89    15503.698   0.50144177 
     490    293.83397   -6205.3377   -6172.5601   -10910.875    15503.698   0.51477503 
     500    290.42176   -6204.9561   -6172.5592   -10882.616    15503.698   0.52864067 
     510    294.71216   -6205.4358   -6172.5602   -11048.423    15503.698   0.54096764 
     520    300.63857   -6206.0957    -6172.559   -11015.275    15503.698   0.55107936 
     530    313.42009   -6207.5237   -6172.5612   -10936.323    15503.698   0.55907812 
     540    312.92089   -6207.4677   -6172.5609   -10452.207    15503.698   0.56684223 
     550    300.99117   -6206.1344   -6172.5584   -9517.9446    15503.698   0.57402283 
     560    302.90044   -6206.3497   -6172.5607   -8993.9278    15503.698   0.57911723 
     570    299.50947   -6205.9709   -6172.5601   -8662.1184    15503.698   0.58313152 
     580    295.81191   -6205.5583     -6172.56   -8542.5542    15503.698   0.58726222 
     590    298.86152   -6205.8988   -6172.5604   -8965.8336    15503.698   0.59231809 
     600    300.33785   -6206.0635   -6172.5604   -9037.6184    15503.698   0.59853829 
     610    299.59534   -6205.9801   -6172.5598   -8371.2403    15503.698   0.60481665 
     620    303.65017   -6206.4328   -6172.5602   -7934.1068    15503.698   0.60844579 
     630     310.3803   -6207.1838   -6172.5604   -7992.0375    15503.698    0.6082619 
     640    314.29708   -6207.6215   -6172.5612   -8062.2161    15503.698   0.60580975 
     650    306.12162   -6206.7094   -6172.5611   -7405.6951    15503.698   0.60391606 
     660    291.75553   -6205.1049   -6172.5592   -6325.4283    15503.698    0.6045726 
     670    291.74021   -6205.1042   -6172.5602   -5867.2382    15503.698   0.60858321 
     680    296.82247   -6205.6718   -6172.5608   -6353.8899    15503.698   0.61618731 
     690    294.97725   -6205.4661   -6172.5609   -6662.3101    15503.698   0.62550238 
     700    286.97788    -6204.572   -6172.5592   -6616.0858    15503.698   0.63468815 
     710    286.63209   -6204.5347   -6172.5604   -6895.7828    15503.698   0.64319605 
     720    286.56031   -6204.5259   -6172.5596   -7285.3623    15503.698   0.65049549 
     730    293.20359   -6205.2674   -6172.5601   -7851.0094    15503.698   0.65568367 
     740    300.27034   -6206.0564   -6172.5608    -8274.995    15503.698   0.65946026 
     750    300.05685   -6206.0319   -6172.5601   -8184.0951    15503.698   0.66343273 
     760    299.10417   -6205.9256   -6172.5601   -8091.5591    15503.698   0.66885484 
     770    298.48137   -6205.8564   -6172.5604   -8384.8598    15503.698   0.67752626 
     780    296.34645   -6205.6175   -6172.5596   -8914.1283    15503.698   0.69090215 
     790     300.5212   -6206.0841   -6172.5605   -9695.9101    15503.698   0.70830553 
     800    302.31484   -6206.2847    -6172.561   -9986.7534    15503.698   0.72733815 
     810    294.97177   -6205.4649   -6172.5603   -9788.8775    15503.698   0.74437354 
     820     293.9212   -6205.3466   -6172.5592   -10145.009    15503.698   0.75557997 
     830    306.06744   -6206.7043    -6172.562   -11121.711    15503.698   0.76034898 
     840    304.44992   -6206.5222   -6172.5604   -11386.671    15503.698   0.76099165 
     850    301.98739    -6206.247   -6172.5598   -11215.463    15503.698   0.75927071 
     860    307.80247   -6206.8965   -6172.5607   -11228.553    15503.698   0.75750628 
     870    309.83215   -6207.1239   -6172.5617   -11151.874    15503.698   0.75886791 
     880    299.41573   -6205.9598   -6172.5595   -10730.834    15503.698   0.76520132 
     890    300.36042   -6206.0655   -6172.5598    -10683.96    15503.698   0.77522034 
     900    311.77593   -6207.3403   -6172.5613   -10758.155    15503.698   0.78644376 
     910    315.99675   -6207.8108   -6172.5609   -10638.959    15503.698   0.79743278 
     920    314.15059    -6207.605    -6172.561   -10767.654    15503.698   0.80852246 
     930    307.53752    -6206.867   -6172.5608    -10698.33    15503.698   0.82057803 
     940     303.9545   -6206.4657   -6172.5591   -10673.594    15503.698   0.83272237 
     950    315.55545   -6207.7625   -6172.5618   -10985.253    15503.698   0.84367931 
     960    314.10987   -6207.6014   -6172.5619   -10894.557    15503.698   0.85299466 
     970    301.16419   -6206.1543    -6172.559   -10416.525    15503.698   0.85903246 
     980     308.2504   -6206.9471   -6172.5613   -10639.037    15503.698   0.86167882 
     990    312.94011   -6207.4711   -6172.5622   -11165.921    15503.698    0.8636759 
    1000    301.96747   -6206.2445   -6172.5596   -11241.512    15503.698   0.86586818 
    1010    300.61614   -6206.0948   -6172.5606   -11044.825    15503.698   0.86653935 
    1020    302.77876   -6206.3368   -6172.5614   -10173.016    15503.698   0.86594544 
    1030    299.21901   -6205.9387   -6172.5604   -9568.0249    15503.698   0.86577348 
    1040    303.27626   -6206.3913   -6172.5604   -9668.3301    15503.698   0.86795209 
    1050    311.27436   -6207.2857   -6172.5626   -9746.7712    15503.698   0.87468285 
    1060    305.20995   -6206.6064   -6172.5598   -9153.5585    15503.698   0.88502989 
    1070    311.29573   -6207.2863   -6172.5608   -9189.6446    15503.698    0.8942313 
    1080    322.44853    -6208.532   -6172.5624   -9605.9463    15503.698   0.89934301 
    1090    319.52235   -6208.2053   -6172.5621   -9453.8625    15503.698   0.89981604 
    1100    306.22248   -6206.7208   -6172.5613   -8468.1547    15503.698   0.89715132 
    1110    296.30205    -6205.613   -6172.5601    -7650.171    15503.698   0.89433263 
    1120    300.99444   -6206.1381   -6172.5617   -7521.4311    15503.698   0.89425009 
    1130    303.00562   -6206.3625   -6172.5618   -7250.5408    15503.698   0.89988551 
    1140    301.43418   -6206.1853   -6172.5599    -7085.438    15503.698   0.91163073 
    1150    311.96544   -6207.3626   -6172.5623   -7736.7346    15503.698    0.9268416 
    1160     312.5856   -6207.4304    -6172.561   -7839.2347    15503.698   0.94242274 
    1170    312.06024   -6207.3717   -6172.5609   -7435.8113    15503.698   0.95568522 
    1180    313.23796   -6207.5041    -6172.562   -7597.0074    15503.698   0.96595677 
    1190    304.81245   -6206.5631   -6172.5608   -7511.6145    15503.698   0.97359152 
    1200     299.0979   -6205.9251   -6172.5603   -7251.8311    15503.698   0.97805041 
    1210    305.15455   -6206.6011   -6172.5607    -7450.478    15503.698   0.97875856 
    1220    315.76305   -6207.7851   -6172.5613   -7721.2495    15503.698   0.97613125 
    1230    323.52085   -6208.6506   -6172.5614   -8298.0615    15503.698   0.97208704 
    1240    323.92258   -6208.6961    -6172.562   -8905.0264    15503.698   0.96947127 
    1250    314.21066   -6207.6112   -6172.5605   -8803.1488    15503.698   0.96950769 
    1260    310.48588   -6207.1962   -6172.5611   -8633.2414    15503.698   0.97168554 
    1270    312.14219   -6207.3806   -6172.5607   -8954.9044    15503.698   0.97601337 
    1280    318.00741   -6208.0362    -6172.562   -9703.4995    15503.698   0.98273502 
    1290    313.40704   -6207.5223   -6172.5613   -9709.8303    15503.698   0.99069247 
    1300    308.27437   -6206.9483   -6172.5599   -9084.9158    15503.698   0.99712643 
    1310    318.66184   -6208.1092    -6172.562   -8966.3518    15503.698    1.0004123 
    1320    322.68718    -6208.559   -6172.5627     -9092.73    15503.698    1.0011762 
    1330    315.12259   -6207.7131   -6172.5607   -9357.7266    15503.698    1.0005657 
    1340    312.67589    -6207.441   -6172.5616   -9635.4368    15503.698    1.0005228 
    1350    310.17176   -6207.1606   -6172.5605   -9416.0855    15503.698    1.0028772 
    1360    314.49055   -6207.6425   -6172.5606   -9164.6541    15503.698    1.0079702 
    1370    323.50129    -6208.649   -6172.5619   -9193.9683    15503.698    1.0153714 
    1380    326.37912   -6208.9696   -6172.5616   -9039.2041    15503.698    1.0248913 
    1390    323.92279   -6208.6957   -6172.5616   -8869.5163    15503.698    1.0364229 
    1400    319.34103   -6208.1833   -6172.5603   -8983.1353    15503.698    1.0490487 
    1410    321.61238   -6208.4383   -6172.5619   -9724.0908    15503.698    1.0614227 
    1420    313.62116   -6207.5462   -6172.5613   -9953.0368    15503.698    1.0731437 
    1430    300.52334   -6206.0835   -6172.5597   -9720.0447    15503.698    1.0830064 
    1440    300.36192   -6206.0665   -6172.5607    -9614.744    15503.698      1.08962 
    1450    306.73861   -6206.7776   -6172.5605   -9656.3094    15503.698     1.093293 
    1460    316.85349   -6207.9069   -6172.5614   -10025.839    15503.698    1.0957017 
    1470    320.74713   -6208.3419   -6172.5621   -10258.291    15503.698    1.0988536 
    1480    312.81785   -6207.4563    -6172.561    -9699.673    15503.698    1.1032374 
    1490    307.07992    -6206.815   -6172.5597   -9345.4725    15503.698    1.1078283 
    1500    314.94947   -6207.6952   -6172.5621   -10109.293    15503.698      1.11197 
    1510    312.15384   -6207.3831   -6172.5618   -10499.296    15503.698    1.1158975 
    1520    300.86994   -6206.1223   -6172.5598   -10154.793    15503.698    1.1187148 
    1530    304.63017   -6206.5423   -6172.5604   -10286.491    15503.698     1.120074 
    1540     316.6053   -6207.8803   -6172.5625   -10577.908    15503.698    1.1224081 
    1550    314.19679   -6207.6105   -6172.5614   -10225.585    15503.698     1.127527 
    1560    307.50491   -6206.8633   -6172.5607   -9981.2278    15503.698    1.1335146 
    1570    307.92574   -6206.9114   -6172.5618   -9797.2276    15503.698    1.1386182 
    1580    304.47423   -6206.5253   -6172.5608   -9231.0918    15503.698    1.1428585 
    1590    304.75818    -6206.557   -6172.5608   -9046.6425    15503.698     1.146434 
    1600    309.29518   -6207.0641   -6172.5617   -9089.5807    15503.698    1.1506592 
    1610    312.11475   -6207.3779    -6172.561   -9064.6157    15503.698    1.1564872 
    1620    317.92765   -6208.0276   -6172.5623   -9093.4548    15503.698    1.1626775 
    1630    316.46787   -6207.8641   -6172.5616   -8992.9119    15503.698    1.1682704 
    1640    314.04151    -6207.593   -6172.5612   -8900.7429    15503.698    1.1726064 
    1650    318.50503   -6208.0919   -6172.5622    -8542.242    15503.698    1.1748846 
    1660    316.60134   -6207.8799   -6172.5626   -7886.4206    15503.698    1.1745515 
    1670    308.69714   -6206.9957   -6172.5601   -7568.5249    15503.698    1.1711308 
    1680    316.93876   -6207.9176   -6172.5626   -8340.0367    15503.698    1.1653881 
    1690    319.15454   -6208.1638   -6172.5616   -9190.5276    15503.698    1.1592781 
    1700    322.43619   -6208.5294   -6172.5612   -9889.3018    15503.698    1.1530101 
    1710    329.18953   -6209.2845   -6172.5629   -10150.234    15503.698    1.1474958 
    1720    325.77678   -6208.9015   -6172.5606   -9516.3401    15503.698    1.1452333 
    1730    331.29454   -6209.5188   -6172.5624   -9155.7339    15503.698    1.1475308 
    1740    330.35608   -6209.4144   -6172.5627   -8888.6931    15503.698    1.1546423 
    1750    317.78506   -6208.0107   -6172.5613   -7939.8954    15503.698    1.1652477 
    1760     313.1009   -6207.4877   -6172.5608   -7063.6644    15503.698    1.1772564 
    1770    321.67088   -6208.4454   -6172.5625   -7023.5784    15503.698    1.1893408 
    1780    324.29279   -6208.7378   -6172.5625   -7153.9414    15503.698    1.2002526 
    1790    317.86621     -6208.02   -6172.5616   -6704.4499    15503.698    1.2084419 
    1800    312.64233    -6207.437   -6172.5613   -6458.5525    15503.698    1.2133333 
    1810    313.63482   -6207.5476   -6172.5611   -6837.7233    15503.698    1.2153402 
    1820    320.76249   -6208.3436   -6172.5621   -7424.7523    15503.698    1.2163716 
    1830    323.69246   -6208.6704   -6172.5621   -7655.5418    15503.698    1.2199147 
    1840    320.70012   -6208.3358   -6172.5612   -7675.0009    15503.698    1.2273463 
    1850    320.85656   -6208.3534   -6172.5613    -7994.814    15503.698    1.2362593 
    1860    322.53929    -6208.542   -6172.5623   -8199.3485    15503.698    1.2440189 
    1870    318.16027   -6208.0522   -6172.5609   -7977.1631    15503.698    1.2495611 
    1880    318.87076   -6208.1326    -6172.562   -7862.9105    15503.698    1.2525522 
    1890    316.76722   -6207.8976   -6172.5617   -7681.9854    15503.698    1.2534537 
    1900    315.73302   -6207.7812   -6172.5607   -7756.5226    15503.698    1.2533187 
    1910     323.8924   -6208.6936   -6172.5629   -8279.2539    15503.698    1.2538785 
    1920     321.2693   -6208.4004   -6172.5623   -8195.6393    15503.698    1.2564932 
    1930    313.40197   -6207.5214   -6172.5609   -7832.1304    15503.698    1.2602449 
    1940    315.43195   -6207.7487   -6172.5618    -7837.936    15503.698    1.2639341 
    1950    316.02421    -6207.815    -6172.562   -7999.0172    15503.698    1.2669873 
    1960    312.57749   -6207.4298   -6172.5613   -8182.2094    15503.698    1.2689421 
    1970    312.49232   -6207.4211   -6172.5621   -7924.5303    15503.698    1.2699253 
    1980    311.31231   -6207.2889   -6172.5615   -7681.6797    15503.698    1.2706159 
    1990    315.97456   -6207.8084    -6172.561   -7981.4275    15503.698    1.2709612 
    2000    328.15449   -6209.1691    -6172.563   -8517.2812    15503.698    1.2709699 
Loop time of 1426.32 on 16 procs for 2000 steps with 864 atoms

Performance: 0.121 ns/day, 198.100 hours/ns, 1.402 timesteps/s
94.1% CPU use with 16 MPI tasks x 1 OpenMP threads

MPI task timing breakdown:
Section |  min time  |  avg time  |  max time  |%varavg| %total
---------------------------------------------------------------
Pair    | 609.92     | 1005.4     | 1324.6     | 595.0 | 70.49
Bond    | 0.00020647 | 0.00063752 | 0.0015385  |   0.0 |  0.00
Neigh   | 0.026771   | 0.036549   | 0.049024   |   3.1 |  0.00
Comm    | 83.853     | 379.99     | 802.35     | 959.7 | 26.64
Output  | 8.6583     | 24.673     | 47.347     | 313.4 |  1.73
Modify  | 0.0093307  | 0.010355   | 0.012814   |   0.9 |  0.00
Other   |            | 16.23      |            |       |  1.14

Nlocal:        54.0000 ave          72 max          38 min
Histogram: 1 1 4 1 3 2 0 2 0 2
Nghost:        591.625 ave         728 max         498 min
Histogram: 2 0 1 7 3 1 0 0 0 2
Neighs:         0.00000 ave           0 max           0 min
Histogram: 16 0 0 0 0 0 0 0 0 0
FullNghs:      3308.38 ave        5371 max        1872 min
Histogram: 1 5 3 1 0 0 2 2 0 2

Total # of neighbors = 52934
Ave neighs/atom = 61.266204
Ave special neighs/atom = 0.0000000
Neighbor list builds = 199
Dangerous builds = 198
unfix   1

velocity    all create 1087.5 1312343 dist gaussian
fix     2 all npt temp 1087.5 1087.5 $(100.0*dt) aniso 0.0 1.01325 $(1000.0*dt)
fix     2 all npt temp 1087.5 1087.5 0.10000000000000000555 aniso 0.0 1.01325 $(1000.0*dt)
fix     2 all npt temp 1087.5 1087.5 0.10000000000000000555 aniso 0.0 1.01325 1
run     3000
Per MPI rank memory allocation (min/avg/max) = 8.903 | 8.910 | 8.916 Mbytes
Step Temp PotEng TotEng Press Volume c_msd[4] 
    2000       1087.5   -6209.1691   -6087.8568   -2681.5047    15503.698    1.2709699 
    2010    891.77769   -6187.2658   -6087.7867    5682.5759    15503.331    1.2883721 
    2020    676.18545   -6162.8986   -6087.4691    15245.245    15506.148    1.3155298 
    2030    706.69616   -6165.5904   -6086.7574    13359.225    15516.833    1.3341182 
    2040    673.99307   -6160.7553   -6085.5704    13127.593    15535.105    1.3538113 
    2050    617.88865   -6153.3068   -6084.3804    14922.818     15560.84     1.379173 
    2060    654.96418   -6156.4158   -6083.3535     13192.04    15594.796     1.405215 
    2070    687.70251   -6159.0904   -6082.3762    10109.614    15636.158    1.4316247 
    2080    689.77381   -6158.3004    -6081.355    7347.2439    15683.243     1.459543 
    2090    709.63965   -6159.3167   -6080.1554    4451.0472     15734.38    1.4884313 
    2100    712.74108   -6158.2151   -6078.7078    2335.8313    15787.863    1.5178628 
    2110    705.65797   -6155.8164   -6077.0991    307.43981    15842.253     1.547064 
    2120    702.58924   -6153.7245   -6075.3496   -1830.6825    15896.202    1.5768616 
    2130    733.98732   -6155.3392   -6073.4618   -4145.0488    15948.298    1.6067055 
    2140    752.83495   -6155.4114   -6071.4316   -5834.5231    15997.099    1.6367288 
    2150    748.82641   -6152.8945   -6069.3618   -7132.8735    16041.489    1.6678168 
    2160     738.5955   -6149.6783   -6067.2868   -7619.4444    16080.708    1.6999293 
    2170    716.35355   -6145.1569   -6065.2466   -6710.3194    16114.515    1.7305224 
    2180    702.49176   -6141.6143   -6063.2503   -4689.4036    16143.507    1.7545879 
    2190    705.59094   -6139.9669   -6061.2572   -2968.4233    16168.893    1.7709218 
    2200    715.08348   -6139.0036    -6059.235   -2477.8431    16191.726    1.7834516 
    2210    741.94887   -6139.9126   -6057.1471   -3396.5848    16212.339    1.7957412 
    2220    764.20622   -6140.2296   -6054.9812   -4946.6938    16230.253    1.8106196 
    2230    763.60893   -6137.9766   -6052.7949   -5061.7303     16244.74    1.8293726 
    2240    772.91086   -6136.8491   -6050.6297   -5451.2624    16255.725    1.8515384 
    2250    796.73761   -6137.3044   -6048.4271   -7068.8311    16263.014    1.8745376 
    2260    797.36961   -6135.1624   -6046.2146   -7034.8058    16265.921    1.8973252 
    2270    774.07294   -6130.3966   -6044.0476   -5181.8484    16264.611    1.9192345 
    2280    768.51848   -6127.6329   -6041.9035   -3846.2793    16260.211    1.9375287 
    2290     792.0934   -6128.0605   -6039.7012   -3979.2965    16253.573    1.9510326 
    2300    817.92507   -6128.6735   -6037.4327   -4508.5962    16244.742    1.9632998 
    2310     832.0944   -6127.9697   -6035.1483   -4232.0489    16233.532    1.9766558 
    2320    825.14256   -6124.9268   -6032.8809   -2172.8194     16220.25    1.9904025 
    2330     825.8085   -6122.7348   -6030.6146    325.63582    16206.125    2.0001982 
    2340    855.84683   -6123.7597   -6028.2887    1671.5332    16192.601    2.0033878 
    2350    881.72115     -6124.28   -6025.9227    2326.7176    16180.482    2.0039485 
    2360    892.34716   -6123.0983   -6023.5556     2343.034     16170.11    2.0093171 
    2370    898.92041   -6121.4885   -6021.2126    2226.3993    16161.466    2.0216419 
    2380    910.82171   -6120.4876    -6018.884    2488.7368    16154.449     2.038007 
    2390    926.09702   -6119.8475     -6016.54    2921.2608    16149.133    2.0566198 
    2400     931.3659   -6118.1008   -6014.2055    3369.7704    16145.717    2.0789461 
    2410    961.87944   -6119.1818   -6011.8827    3082.4243    16144.368    2.1070905 
    2420    987.25605   -6119.6981   -6009.5682    2952.6411    16144.893    2.1445164 
    2430    969.74812   -6115.5054   -6007.3286    2970.4552     16147.16    2.1896106 
    2440    970.97364   -6113.4768   -6005.1632    2215.5546    16151.096    2.2354094 
    2450    945.14366   -6108.4389   -6003.0067    2603.2604    16156.306    2.2791332 
    2460    922.66635   -6103.8386   -6000.9138     3616.543    16162.943     2.318337 
    2470    959.75791   -6105.8164    -5998.754      3496.66    16171.477    2.3517996 
    2480    991.39714   -6107.1092   -5996.5174    3545.7749    16181.864    2.3831236 
    2490     989.1291   -6104.6425   -5994.3037    3911.1585    16194.099     2.415784 
    2500    993.30252   -6102.9525   -5992.1481    3752.0506    16208.324     2.446461 
    2510    1022.1956   -6104.0316   -5990.0042    2931.5907    16224.393    2.4718311 
    2520    1036.6895   -6103.5406   -5987.8963    2907.5608    16241.844    2.4945973 
    2530     1026.374   -6100.3743   -5985.8807     3994.454    16260.669     2.516178 
    2540    1028.3017   -6098.6515   -5983.9429    4416.9498    16281.376    2.5364668 
    2550    1018.7621    -6095.693   -5982.0486    5396.2567    16304.279    2.5589808 
    2560    1013.6238   -6093.2744   -5980.2032     5229.353    16329.819    2.5898438 
    2570    1021.2935   -6092.2716   -5978.3448    3879.1338    16357.852    2.6335299 
    2580    1052.4354   -6093.8639   -5976.4632    2372.8339    16387.554    2.6858941 
    2590    1071.8708   -6094.1351   -5974.5663     2301.634    16418.059    2.7415416 
    2600    1055.8243   -6090.5569   -5972.7781      3228.08    16449.282    2.7979941 
    2610    1059.5865   -6089.2836   -5971.0852     2796.139    16481.631    2.8532761 
    2620    1070.7953   -6088.8503   -5969.4015    2226.9738    16514.915    2.9120871 
    2630    1086.7003   -6088.9619   -5967.7389    1492.2956    16548.731    2.9785493 
    2640    1131.6115   -6092.3368   -5966.1038    338.36167    16582.567    3.0528433 
    2650    1102.8503   -6087.6034   -5964.5788    612.73087    16615.827    3.1345605 
    2660    1053.3531   -6080.7234   -5963.2202    1003.6987    16648.626    3.2118864 
    2670     1081.348    -6082.499    -5961.873   -629.38365    16681.078    3.2800713 
    2680    1104.5926   -6083.6942   -5960.4752   -1957.9078    16712.293    3.3455171 
    2690     1099.386   -6081.7735   -5959.1353    -1330.227    16741.555    3.4129471 
    2700    1092.8801   -6079.7948   -5957.8823   -94.370455    16769.245    3.4823077 
    2710    1102.7504   -6079.7068   -5956.6934   -162.67302    16796.066     3.546963 
    2720    1115.6973   -6079.9942   -5955.5365   -716.20608    16822.066    3.6032804 
    2730    1122.9642    -6079.718   -5954.4497   -720.25276     16846.98     3.657465 
    2740    1097.8985   -6075.9356   -5953.4634    112.63417    16870.855    3.7150941 
    2750    1073.7471   -6072.3388   -5952.5607    376.24394    16894.186    3.7757203 
    2760    1084.0411   -6072.5716   -5951.6451   -1097.5082      16917.1    3.8344019 
    2770     1115.733   -6075.1661   -5950.7044   -2886.7796    16938.743      3.88988 
    2780    1101.0631   -6072.6222    -5949.797   -3204.1321    16958.088    3.9481402 
    2790    1080.0228   -6069.4302   -5948.9521   -2640.6937    16974.945    4.0106879 
    2800     1111.975   -6072.1679   -5948.1254   -2931.6256    16989.636    4.0733141 
    2810    1138.2042   -6074.3008   -5947.3325   -3236.9436    17002.058    4.1338839 
    2820    1100.5698    -6069.415   -5946.6447   -1701.9939    17012.208    4.1940682 
    2830    1086.3602   -6067.2198   -5946.0347   -1287.4462     17020.96    4.2475792 
    2840    1116.8706   -6070.0236    -5945.435   -2456.5589    17028.596    4.2921161 
    2850    1113.0534   -6069.0458    -5944.883   -2405.2357    17034.534    4.3318097 
    2860    1076.9796   -6064.5319   -5944.3932   -1206.0205    17038.828    4.3727491 
    2870    1085.8596   -6065.0376   -5943.9084    -313.6365    17042.234    4.4161623 
    2880    1119.5573   -6068.2972   -5943.4089   -232.71294    17045.338     4.455103 
    2890    1158.2168    -6072.177   -5942.9761   -1234.4111    17048.169    4.4934725 
    2900     1150.158   -6070.9807   -5942.6789   -1386.7949    17050.197    4.5444026 
    2910    1137.5072   -6069.4237   -5942.5331   -768.21376    17051.317     4.604149 
    2920    1133.4442   -6068.9514   -5942.5139   -444.90962    17051.891    4.6617034 
    2930    1106.3736   -6066.0152   -5942.5976    -88.40947    17052.176    4.7134675 
    2940    1087.4085    -6064.021    -5942.719   -23.099736    17052.401    4.7585701 
    2950    1132.5671    -6069.193   -5942.8535   -1158.6343     17052.53    4.7980143 
    2960    1186.5625   -6075.4712   -5943.1083   -2260.3005    17051.876    4.8361184 
    2970    1150.8007   -6071.9339   -5943.5604   -1211.9798     17049.87    4.8815751 
    2980    1118.8356   -6068.9582   -5944.1504   -489.96302    17047.057    4.9329505 
    2990    1141.7648   -6072.2087   -5944.8431   -1917.7708    17043.821    4.9860123 
    3000    1137.6991   -6072.5689   -5945.6569   -2132.6795    17039.447    5.0423582 
    3010    1107.2422   -6070.0701   -5946.5556   -1438.2596    17033.759    5.1038473 
    3020    1081.7313   -6068.1394   -5947.4706   -709.64452    17027.188    5.1680624 
    3030    1056.9114   -6066.2223   -5948.3222    577.42491    17020.276    5.2237215 
    3040    1081.9321   -6069.8101    -5949.119    355.82224    17013.735    5.2608324 
    3050    1079.3812   -6070.3038   -5949.8972   -627.19851    17007.463    5.2877551 
    3060    1062.7625   -6069.1948    -5950.642   -1539.7898    17000.844    5.3122565 
    3070    1092.9746   -6073.2733   -5951.3503   -2420.2584    16993.263    5.3328683 
    3080    1121.1207   -6077.1533   -5952.0906   -2729.7479    16984.159     5.348685 
    3090    1091.1408   -6074.5976   -5952.8792   -1560.0662    16973.428    5.3696101 
    3100    1065.5691   -6072.5088    -5953.643    -254.3048    16961.773    5.4000103 
    3110    1059.8682   -6072.5825   -5954.3526    131.15124    16949.997    5.4358069 
    3120    1048.6927   -6071.9592   -5954.9759    350.29907    16938.429    5.4737326 
    3130    1078.9545   -6075.9043   -5955.5453   -307.04375    16927.144    5.5147727 
    3140    1070.0639    -6075.449   -5956.0817   -251.41152    16915.802    5.5576319 
    3150    1074.6951   -6076.4665   -5956.5826   -711.85305    16904.347    5.5916171 
    3160    1087.6782    -6078.408   -5957.0759   -1577.7094    16892.486    5.6154144 
    3170    1064.3201   -6076.2719   -5957.5454   -952.03863    16879.793    5.6384177 
    3180    1071.1057   -6077.4577   -5957.9743   -962.58511    16866.528    5.6633074 
    3190    1074.4496    -6078.223   -5958.3665   -832.51094    16852.761    5.6904495 
    3200    1055.5454   -6076.4612   -5958.7136   -448.58891    16838.574    5.7212358 
    3210    1062.0716   -6077.4747    -5958.999   -374.14092    16824.199    5.7567023 
    3220    1087.0333   -6080.4999   -5959.2397   -700.41247    16809.674    5.7996053 
    3230    1105.3494   -6082.7929   -5959.4895   -716.52047    16794.827    5.8502374 
    3240    1092.3589   -6081.6179   -5959.7636   -322.79702     16779.66    5.8997218 
    3250    1082.9144   -6080.8589   -5960.0581   -91.836726    16764.382    5.9415978 
    3260    1083.1881    -6081.175   -5960.3438    644.72105    16749.194    5.9813521 
    3270    1080.8218   -6081.1708   -5960.6035    1720.6526    16734.572      6.02428 
    3280    1075.1204   -6080.7781   -5960.8468    2398.9592    16721.166     6.073428 
    3290    1084.5524   -6082.0683   -5961.0848    2724.8865    16709.388    6.1277089 
    3300    1069.2145   -6080.5699   -5961.2974    2711.9903    16699.427    6.1902586 
    3310    1077.8771   -6081.7307   -5961.4919     1514.989    16691.212    6.2577408 
    3320    1079.1277   -6082.0339   -5961.6556    1226.9361    16684.088    6.3208579 
    3330    1064.2714   -6080.5072   -5961.7861    2823.8016    16677.918    6.3739866 
    3340    1062.7763    -6080.426   -5961.8717    3816.1741    16673.564    6.4128824 
    3350    1069.1264   -6081.1857    -5961.923    3276.4028    16671.593    6.4343878 
    3360    1071.8683    -6081.508   -5961.9395    2040.8286    16671.711    6.4496545 
    3370    1078.3985   -6082.2184   -5961.9214    1214.1839    16673.162    6.4658007 
    3380    1062.4019   -6080.3726   -5961.8601    1666.2182    16675.465    6.4833305 
    3390    1080.6916   -6082.3179   -5961.7651    2461.8755    16678.836    6.5094112 
    3400    1102.4295   -6084.6333   -5961.6557    3675.3373    16683.803    6.5471501 
    3410    1084.1565   -6082.5034   -5961.5641    4056.2329    16691.039    6.5933508 
    3420    1096.1456   -6083.7614   -5961.4847    3212.3495    16700.751     6.641224 
    3430    1088.6372   -6082.8388   -5961.3997    2467.5256    16712.485    6.6878423 
    3440    1074.7078   -6081.2195   -5961.3342    1617.5557    16725.706     6.734989 
    3450    1081.4033   -6081.8781    -5961.246    1296.5592    16739.895    6.7868811 
    3460    1077.5908   -6081.3424   -5961.1355     1696.403    16754.841    6.8463383 
    3470    1060.6543   -6079.3217   -5961.0041     2097.846    16770.756    6.9113475 
    3480    1032.1603   -6075.9576   -5960.8186     2206.514    16787.881    6.9758409 
    3490    1016.9201   -6073.9702   -5960.5313    2004.4759    16806.263    7.0313815 
    3500    1034.5538   -6075.5072   -5960.1012     1145.297    16825.736    7.0768013 
    3510    1070.9967   -6079.0066   -5959.5353   -491.65221    16845.719    7.1172939 
    3520    1073.8352   -6078.6786   -5958.8906   -1057.1164    16865.241     7.161848 
    3530    1048.2642   -6075.1444   -5958.2089   -477.60758     16883.92    7.2119603 
    3540    1066.7726   -6076.4713   -5957.4712   -791.36526    16902.012    7.2607427 
    3550    1087.2297   -6077.9443   -5956.6622   -2059.2041    16919.304    7.3044814 
    3560    1092.6739   -6077.7266   -5955.8372   -3310.1216     16935.02     7.349281 
    3570    1096.1399   -6077.3012   -5955.0251   -4240.1292    16948.358     7.400228 
    3580    1078.1424   -6074.5134   -5954.2449    -3916.478    16958.798    7.4572779 
    3590    1056.0304   -6071.2748    -5953.473   -2660.1987    16966.559    7.5230736 
    3600    1049.7272   -6069.7586     -5952.66   -1127.6241    16972.476     7.593494 
    3610    1057.7654   -6069.7783    -5951.783   -787.23636    16977.486    7.6536507 
    3620    1071.5296   -6070.3798   -5950.8491   -1163.2126    16981.881    7.6941195 
    3630    1087.7184   -6071.2296    -5949.893   -1609.6989    16985.446    7.7152332 
    3640    1073.2779   -6068.6755   -5948.9498    -1375.394    16987.933    7.7290283 
    3650    1047.5318    -6064.872   -5948.0183   -1478.2819    16989.442    7.7495482 
    3660     1096.353   -6069.3564   -5947.0565   -2620.2219    16989.886    7.7889063 
    3670    1116.9635   -6070.6747   -5946.0757   -2785.1234    16988.652    7.8494741 
    3680    1096.1545   -6067.4545   -5945.1768   -2247.1094    16985.629    7.9166398 
    3690    1116.5187    -6068.889   -5944.3397   -2688.8177    16981.106    7.9799847 
    3700    1146.5394   -6071.4684   -5943.5702   -2735.0915     16974.89    8.0443765 
    3710    1115.4465     -6067.36   -5942.9303   -952.85819    16967.067    8.1102662 
    3720     1080.528   -6062.9033   -5942.3687    521.20087    16958.721    8.1686066 
    3730    1110.5731   -6065.7096   -5941.8235    388.22773    16950.742    8.2118203 
    3740    1114.4011   -6065.6133   -5941.3002    596.55224    16943.162    8.2442574 
    3750    1106.7469   -6064.2945   -5940.8352    592.88115    16936.068    8.2733517 
    3760    1126.8555   -6066.1251   -5940.4227   -170.47151     16929.42    8.3068329 
    3770    1141.6057   -6067.4446   -5940.0968   -535.82902    16922.775    8.3445667 
    3780    1137.9907    -6066.835   -5939.8904    321.91148    16915.946    8.3723066 
    3790    1132.4196   -6066.1211    -5939.798    1359.8261    16909.425    8.3867018 
    3800    1131.0582   -6065.9909   -5939.8197    2030.3418    16903.857     8.401303 
    3810    1137.1884   -6066.7935   -5939.9384     1649.371    16899.644    8.4322504 
    3820    1159.5381   -6069.5427   -5940.1945    513.37832    16896.514    8.4807617 
    3830    1157.3698    -6069.728   -5940.6216    616.71247    16893.828    8.5401467 
    3840    1133.6949    -6067.661   -5941.1956    1529.7598    16891.628    8.5976605 
    3850    1136.1245   -6068.6129   -5941.8765    1761.5356    16890.408    8.6384588 
    3860    1129.3947   -6068.6531   -5942.6674     1980.728    16890.375    8.6566709 
    3870    1120.7602   -6068.5727   -5943.5502    1527.2828    16891.599    8.6511449 
    3880    1128.0151    -6070.331   -5944.4992     765.4155    16893.793    8.6387688 
    3890    1125.6475   -6071.0713   -5945.5036    428.80506    16896.499    8.6409733 
    3900    1120.6528   -6071.5629   -5946.5524     658.1593    16899.495    8.6598497 
    3910    1106.6688   -6071.0956   -5947.6451    949.71684    16902.897    8.6949615 
    3920    1103.3539   -6071.8305   -5948.7497    760.82031    16906.861    8.7411905 
    3930    1088.3856   -6071.2362   -5949.8251    518.83883    16911.301    8.7904671 
    3940    1088.5839   -6072.3007   -5950.8675    425.34938    16916.048    8.8332328 
    3950    1087.9062   -6073.2129   -5951.8553    209.26602    16921.041    8.8652851 
    3960    1125.2198   -6078.3602   -5952.8402   -1491.7142    16926.023     8.882968 
    3970    1086.3381   -6075.0235   -5953.8409   -1139.2806    16930.113    8.8929199 
    3980    1034.2903     -6070.13   -5954.7533   -1.5997634    16933.459    8.9018033 
    3990    1052.7456   -6072.9702   -5955.5348    -1196.664    16936.625    8.9133454 
    4000    1082.2926   -6076.9686   -5956.2372   -2898.1865     16938.95    8.9381267 
    4010    1079.0622   -6077.2753   -5956.9043   -3714.5793    16939.402    8.9779305 
    4020    1064.3871   -6076.2756   -5957.5416   -4168.4475    16937.426    9.0244263 
    4030    1060.0982   -6076.3968   -5958.1412   -4423.3467     16932.74    9.0703124 
    4040    1042.2075   -6074.9295   -5958.6697    -3820.514    16925.261    9.1095291 
    4050    1029.8375   -6073.9733   -5959.0934   -2795.2005    16915.385    9.1354863 
    4060    1027.9064   -6074.0621   -5959.3976   -1598.4771    16903.796    9.1490473 
    4070    985.12461   -6069.4256   -5959.5334   -342.93397    16891.316    9.1631444 
    4080    1018.7892   -6073.1414    -5959.494   -1183.8992    16878.639    9.1793526 
    4090    1074.6176   -6079.1889   -5959.3137   -2751.8827    16865.308    9.1970378 
    4100     1056.735   -6076.9601   -5959.0797   -2376.3218    16850.462    9.2247005 
    4110    1053.0791   -6076.2614   -5958.7889   -1742.7476    16834.261    9.2636653 
    4120    1052.2181   -6075.7956   -5958.4191   -1667.4968    16817.101     9.304442 
    4130    1054.9201   -6075.6607   -5957.9827   -1472.0421    16799.082    9.3307673 
    4140      1049.92   -6074.5804   -5957.4602   -920.58363    16780.366    9.3476774 
    4150    1068.3333   -6076.0409   -5956.8667   -771.63288    16761.267    9.3700447 
    4160     1088.354    -6077.624   -5956.2164   -225.19234    16741.952     9.395315 
    4170    1063.1154   -6074.1372   -5955.5451    721.37891    16722.774    9.4218965 
    4180    1051.3997   -6072.1326   -5954.8474    996.02753    16704.284    9.4544464 
    4190    1090.4235   -6075.7412   -5954.1028    299.40684    16686.627    9.4919721 
    4200    1092.9054   -6075.2544   -5953.3391    554.88256    16669.466    9.5298885 
    4210    1067.2895   -6071.6404   -5952.5826    1411.0478    16652.941    9.5557467 
    4220    1095.3018   -6074.0024   -5951.8198    1542.5277    16637.502    9.5637382 
    4230    1104.2933   -6074.2429   -5951.0573    2627.2676     16623.33    9.5712976 
    4240     1097.953   -6072.8302   -5950.3518    3643.7731    16611.008    9.5915825 
    4250    1092.6482   -6071.5655   -5949.6789    4122.0315    16601.148    9.6213974 
    4260    1116.2516   -6073.5658   -5949.0463    4263.2446    16594.007    9.6558713 
    4270    1105.5326   -6071.7873   -5948.4634    4348.6335    16589.667    9.6943311 
    4280    1106.1634   -6071.3527   -5947.9585    3051.0567    16588.047     9.733413 
    4290    1117.1275   -6072.1149   -5947.4977    2143.8658    16588.409    9.7703014 
    4300    1145.9851   -6074.9403   -5947.1039    2079.4992    16590.162    9.7997808 
    4310    1152.8736   -6075.4378    -5946.833    2556.7347    16593.233    9.8199287 
    4320    1147.2882   -6074.7083   -5946.7265    2895.8069    16597.861    9.8369972 
    4330    1139.3955   -6073.8626   -5946.7613    3532.9011    16604.308    9.8567846 
    4340    1151.9014   -6075.4274   -5946.9311     3210.113     16612.86    9.8797546 
    4350    1136.7054    -6074.041   -5947.2398    3476.0619    16623.382    9.9065249 
    4360    1112.5846   -6071.7726   -5947.6621    4793.8138    16636.074    9.9282031 
    4370    1124.5872   -6073.6232   -5948.1739    4899.3788    16651.596    9.9524738 
    4380    1105.7393    -6072.105   -5948.7582    4918.1328    16670.078    9.9856978 
    4390    1095.4771   -6071.6021      -5949.4     4504.007    16691.462    10.013929 
    4400    1111.1489   -6074.0138   -5950.0635    3026.3399    16715.412    10.046339 
    4410    1109.5222   -6074.5241   -5950.7552    1676.8381    16741.048     10.09708 
    4420    1117.7726   -6076.1583   -5951.4691    37.038936    16767.435    10.160649 
    4430    1123.4283   -6077.5502   -5952.2301   -1427.4662    16793.526    10.227814 
    4440    1085.5819   -6074.1147   -5953.0164   -1758.4729    16818.435    10.296726 
    4450    1067.1565   -6072.8025   -5953.7596   -2898.0588     16841.81    10.372399 
    4460     1064.711   -6073.1869   -5954.4168    -3932.874    16862.998    10.454925 
    4470    1076.1461   -6075.0536   -5955.0079   -4141.5905    16881.376    10.538946 
    4480    1079.2382   -6075.9524   -5955.5617   -4096.5438    16896.798    10.628967 
    4490    1071.9312   -6075.6683   -5956.0928   -3879.9432    16909.326    10.723475 
    4500    1074.4034   -6076.4394   -5956.5881   -3646.8115    16919.131    10.810784 
    4510    1096.9467   -6079.4291    -5957.063   -4118.9827    16926.366    10.880494 
    4520     1101.432   -6080.4397   -5957.5733    -4211.461    16930.815    10.930931 
    4530    1055.6751   -6075.8502   -5958.0881   -3232.0665      16932.5    10.964305 
    4540    1020.8152   -6072.3949   -5958.5214   -2601.8931    16932.029    10.984668 
    4550    1044.2747   -6075.3294   -5958.8389   -3788.2275    16929.747    11.000953 
    4560    1068.4128   -6078.2701    -5959.087   -5692.8252    16924.952    11.025548 
    4570    1054.7224   -6076.9385   -5959.2826   -6198.3578    16916.583    11.053529 
    4580     1058.024   -6077.4541   -5959.4299   -6252.5337    16904.286    11.066555 
    4590    1065.2543   -6078.3624   -5959.5316   -5571.0852    16888.123     11.05937 
    4600    1055.4667   -6077.3168   -5959.5779   -4324.2665    16868.602    11.038963 
    4610    1051.0925   -6076.8132   -5959.5622   -3327.3915     16846.55    11.014029 
    4620    1069.0218   -6078.7168   -5959.4658   -2751.9507    16822.671     10.99461 
    4630     1090.638   -6080.9752   -5959.3129   -2081.1668    16797.416    10.992947 
    4640    1104.2182   -6082.3189   -5959.1417   -1006.6255     16771.28    11.006136 
    4650    1101.4583   -6081.8464   -5958.9771    73.740895    16744.962    11.015273 
    4660    1075.5025   -6078.7754   -5958.8015    998.73994    16719.177     11.01515 
    4670    1075.2414   -6078.5312   -5958.5864    1471.8143    16694.513    11.016635 
    4680    1081.4183   -6078.9585   -5958.3247    2087.8212     16671.29    11.025596 
    4690    1080.1035   -6078.5011   -5958.0139    3195.5662    16649.921    11.034466 
    4700    1120.2115    -6082.663   -5957.7017    3295.9881     16630.95    11.044556 
    4710     1108.404   -6081.0697   -5957.4256    4787.8408    16614.554    11.072324 
    4720    1085.2161   -6078.2294   -5957.1719    6224.1078    16601.531    11.128682 
    4730    1109.9404   -6080.7615    -5956.946    6006.1589    16592.599    11.213915 
    4740    1118.1043   -6081.4992   -5956.7729    6240.2441    16587.667    11.305714 
    4750    1090.3652     -6078.31   -5956.6781    7677.2681    16586.836    11.374479 
    4760    1082.3803   -6077.3582   -5956.6171    8340.0469     16590.83    11.407751 
    4770    1116.1076    -6081.085   -5956.5815    7035.1866    16599.895    11.417156 
    4780    1121.6764   -6081.7171   -5956.5924    5409.6078    16613.211    11.427448 
    4790    1126.7248   -6082.3907   -5956.7028    4191.6972     16629.72    11.447364 
    4800    1105.9234    -6080.262   -5956.8946    3505.3543    16648.617    11.470923 
    4810    1098.7369    -6079.704   -5957.1383     2577.268    16669.367    11.492264 
    4820    1067.5872   -6076.4766   -5957.3857     2178.182    16691.399    11.511369 
    4830    1060.4912   -6075.8833    -5957.584    1124.0335    16714.363    11.533149 
    4840    1090.4737   -6079.3817   -5957.7377   -607.17608     16737.58    11.566539 
    4850    1097.1136   -6080.2681   -5957.8835   -1637.1583    16759.995    11.616249 
    4860    1063.8487   -6076.7186   -5958.0447   -854.98201    16781.031    11.680002 
    4870    1058.2578   -6076.2438   -5958.1936    -219.3756    16801.086    11.745059 
    4880    1049.2692   -6075.3286   -5958.2811    448.00933    16820.613    11.806166 
    4890    1071.7957   -6077.8685   -5958.3081    51.769677    16839.978    11.855402 
    4900    1128.4265   -6084.1793   -5958.3016   -1999.5447    16858.878    11.886929 
    4910    1112.4215   -6082.4543    -5958.362   -2072.7426    16876.211    11.910108 
    4920    1060.6211    -6076.796   -5958.4821   -895.55067    16891.929    11.927265 
    4930    1081.9062   -6079.2806   -5958.5923   -1552.8539    16906.621    11.934299 
    4940    1087.1415   -6079.9546   -5958.6823   -1833.4668    16920.029    11.937346 
    4950      1061.76   -6077.2136   -5958.7727   -1383.1281    16932.011     11.94731 
    4960    1022.4997   -6072.8614      -5958.8   -718.35516    16942.893    11.971827 
    4970    1024.3533   -6072.9702    -5958.702   -1884.8185    16952.976    12.010997 
    4980    1041.4981   -6074.6297   -5958.4491   -2782.2043    16961.658    12.060405 
    4990    1051.3279   -6075.3292    -5958.052   -2848.7775    16968.386     12.10882 
    5000    1082.6818   -6078.3097   -5957.5349   -3070.5407      16973.1    12.152567 
Loop time of 2234.72 on 16 procs for 3000 steps with 864 atoms

Performance: 0.116 ns/day, 206.919 hours/ns, 1.342 timesteps/s
93.2% CPU use with 16 MPI tasks x 1 OpenMP threads

MPI task timing breakdown:
Section |  min time  |  avg time  |  max time  |%varavg| %total
---------------------------------------------------------------
Pair    | 1539.6     | 1770.7     | 2005.2     | 348.0 | 79.24
Bond    | 0.00022745 | 0.00092953 | 0.0023673  |   0.0 |  0.00
Neigh   | 0.04448    | 0.049454   | 0.059662   |   2.1 |  0.00
Comm    | 71.552     | 281.32     | 569.02     | 868.4 | 12.59
Output  | 0.19915    | 0.22069    | 0.54223    |  17.7 |  0.01
Modify  | 120.17     | 182.38     | 257.29     | 340.3 |  8.16
Other   |            | 0.01553    |            |       |  0.00

Nlocal:        54.0000 ave          67 max          46 min
Histogram: 2 1 2 6 2 0 2 0 0 1
Nghost:        532.562 ave         561 max         513 min
Histogram: 1 0 5 3 3 2 0 0 0 2
Neighs:         0.00000 ave           0 max           0 min
Histogram: 16 0 0 0 0 0 0 0 0 0
FullNghs:      2796.75 ave        3824 max        2170 min
Histogram: 3 2 3 1 1 2 2 0 1 1

Total # of neighbors = 44748
Ave neighs/atom = 51.791667
Ave special neighs/atom = 0.0000000
Neighbor list builds = 300
Dangerous builds = 300
unfix   2

fix     3 all npt temp 1087.5 1087.5 $(100.0*dt) aniso 1.01325 1.01325 $(1000.0*dt)
fix     3 all npt temp 1087.5 1087.5 0.10000000000000000555 aniso 1.01325 1.01325 $(1000.0*dt)
fix     3 all npt temp 1087.5 1087.5 0.10000000000000000555 aniso 1.01325 1.01325 1
run     20000
Per MPI rank memory allocation (min/avg/max) = 8.909 | 8.912 | 8.918 Mbytes
Step Temp PotEng TotEng Press Volume c_msd[4] 
    5000    1082.6818   -6078.3097   -5957.5349   -3070.5407      16973.1    12.152567 
    5010    1090.0284    -6079.133   -5957.5387   -3486.0317    16972.043    12.194588 
    5020    1068.3298   -6076.7171   -5957.5433   -3833.3946    16968.681    12.241355 
    5030    1071.0324   -6076.9982    -5957.523   -3892.1283    16962.795    12.291104 
    5040    1088.5398   -6078.8988   -5957.4706   -3189.8242    16954.396    12.344394 
    5050    1092.2525    -6079.255   -5957.4126   -2426.7899    16943.883    12.397932 
    5060    1096.7233   -6079.6955   -5957.3543   -2066.7741    16931.739    12.448109 
    5070    1104.0251   -6080.4778   -5957.3221   -1908.7632    16918.215    12.499537 
    5080    1083.0841   -6078.1311   -5957.3114   -1077.7082    16903.479    12.546628 
    5090    1070.2365    -6076.662   -5957.2755   -239.09166    16888.016    12.569291 
    5100    1089.8673   -6078.7854    -5957.209    237.34946    16872.372    12.562861 
    5110    1096.1789   -6079.4078   -5957.1273    500.09925    16856.877    12.545689 
    5120    1088.7115   -6078.4983   -5957.0509    380.85762    16841.682    12.539519 
    5130    1094.5801   -6079.0791   -5956.9771    189.85144    16826.726    12.546635 
    5140    1093.1163   -6078.8163   -5956.8776    130.28111    16811.923    12.563827 
    5150    1137.2838   -6083.6748   -5956.8091   -893.71966    16797.134    12.594877 
    5160    1155.6897   -6085.7634   -5956.8444   -867.72776      16781.8    12.645849 
    5170    1100.1493   -6079.7516   -5957.0283    1808.9766    16766.047     12.70709 
    5180    1052.6014   -6074.6653   -5957.2461    4103.1543    16751.432    12.748146 
    5190    1081.5801    -6078.105   -5957.4531    4230.2981    16739.352    12.763659 
    5200    1092.7824   -6079.5807   -5957.6792    3603.0671     16729.97    12.764795 
    5210    1082.5553   -6078.7251   -5957.9645    2942.5673    16722.904    12.758764 
    5220    1079.4484   -6078.7034   -5958.2893    2234.1314    16717.722    12.768265 
    5230    1079.8441   -6079.0973    -5958.639    1935.8795    16714.003    12.797146 
    5240    1082.9173   -6079.8214   -5959.0204    1610.7516    16711.529    12.832781 
    5250     1100.898   -6082.2404   -5959.4336    368.45767    16710.035    12.867196 
    5260    1136.9378   -6086.7786   -5959.9515   -1241.1464    16708.763    12.890985 
    5270    1100.8427   -6083.3891   -5960.5884   -2396.4106    16706.725     12.90168 
    5280    1093.1497   -6083.2532   -5961.3107   -3429.5668    16703.131    12.913252 
    5290    1087.7301   -6083.4012   -5962.0632   -2994.1293    16697.417    12.936606 
    5300    1070.4867   -6082.2297   -5962.8153   -1403.9204    16689.833    12.971434 
    5310    1048.3277   -6080.4575    -5963.515   -29.480265     16681.32    13.014801 
    5320    1010.1927   -6076.7731   -5964.0845    713.58844    16672.741    13.062089 
    5330    1016.0959   -6077.8312   -5964.4842   -107.82302    16664.511    13.098529 
    5340    1046.4658   -6081.4949     -5964.76   -1328.0902    16656.185      13.1151 
    5350    1041.4856   -6081.1265   -5964.9472   -1614.0352    16647.049    13.128256 
    5360    1065.5699   -6083.9159     -5965.05   -1846.9483    16636.868    13.153691 
    5370    1106.9457   -6088.6011   -5965.1196   -2450.4179    16625.472    13.195037 
    5380    1118.3502   -6089.9808   -5965.2272    -3392.095    16612.471    13.244658 
    5390    1131.5284   -6091.6659   -5965.4422   -3899.9938    16597.313    13.293716 
    5400    1108.3017   -6089.3909   -5965.7582   -2660.8465    16579.773    13.338103 
    5410     1082.007   -6086.8083   -5966.1088   -1378.5052    16560.549    13.375888 
    5420    1092.6699   -6088.3491   -5966.4602   -906.13075    16540.412     13.41024 
    5430    1097.4067    -6089.256   -5966.8386   -16.415384    16519.753    13.447176 
    5440    1080.3031   -6087.7502   -5967.2408    1303.5769    16499.145    13.488966 
    5450    1062.0736   -6086.0894   -5967.6135    2859.9085    16479.444    13.528571 
    5460    1056.3011   -6085.7565   -5967.9245     3163.857    16461.538    13.552767 
    5470    1074.8379   -6088.1075   -5968.2077     2722.217    16445.639    13.550768 
    5480    1065.8251   -6087.3727   -5968.4783    2911.0323    16431.556    13.538922 
    5490     1085.039   -6089.7928   -5968.7551    3055.2312    16419.334    13.534098 
    5500    1088.5878   -6090.4686    -5969.035    3963.9044     16409.11    13.539112 
    5510    1089.8937   -6090.9321   -5969.3528    4760.2521    16401.388     13.55163 
    5520    1090.5025   -6091.3721   -5969.7249    4478.4641    16396.609    13.576153 
    5530    1102.7143   -6093.1814   -5970.1719    2911.5853     16394.56    13.612162 
    5540    1109.7283   -6094.5229    -5970.731    1782.2408    16394.347    13.656243 
    5550    1096.5586   -6093.7211   -5971.3983    1342.5079    16395.281    13.705216 
    5560    1088.4573   -6093.5934   -5972.1743    1333.7983    16397.073    13.756985 
    5570    1046.4925   -6089.7281   -5972.9903    2300.5312    16399.758    13.814606 
    5580    1043.5635    -6090.182    -5973.771    1614.5099    16403.767    13.875069 
    5590    1075.1351   -6094.4543   -5974.5213    554.99515    16408.737    13.924977 
    5600    1056.4938   -6093.0919   -5975.2384    1056.6273    16414.122    13.956992 
    5610    1080.7949    -6096.508   -5975.9437    981.52314    16420.075    13.972377 
    5620    1077.3796   -6096.8118   -5976.6285    1097.4585    16426.628    13.987645 
    5630    1082.5323   -6098.0532   -5977.2951    885.65292    16433.805    14.017929 
    5640    1071.0087   -6097.4177   -5977.9451    591.04573    16441.485    14.076673 
    5650    1042.6651   -6094.8376   -5978.5267    626.90124    16449.508    14.158741 
    5660    1051.3322   -6096.2854   -5979.0077   -189.34794    16457.807     14.25077 
    5670    1073.4723   -6099.1542   -5979.4068   -1732.8016    16465.899    14.349349 
    5680    1075.0856   -6099.6894    -5979.762   -2390.9134    16472.911    14.442401 
    5690    1063.6253   -6098.7318   -5980.0828   -1829.8885    16478.452    14.503971 
    5700    1049.8706   -6097.4567    -5980.342   -1518.5805    16482.809    14.521533 
    5710    1036.0813    -6096.082   -5980.5055    -1947.499     16486.15    14.517454 
    5720    1058.6258   -6098.6691   -5980.5778   -3101.3422    16488.196    14.523855 
    5730    1062.0837   -6099.0555   -5980.5785   -3000.9849    16488.367    14.545702 
    5740    1037.3049   -6096.2358   -5980.5229   -1655.2972    16486.735    14.577164 
    5750    1020.4676   -6094.1965   -5980.3618   -972.39194    16484.055    14.614706 
    5760    1032.3974   -6095.2293   -5980.0639   -890.31819    16480.746     14.65016 
    5770    1034.0036   -6094.9761   -5979.6314   -127.99095    16476.951    14.674747 
    5780    1016.6776   -6092.4762   -5979.0643    1471.4871    16473.166    14.689255 
    5790    1019.2437   -6092.0408   -5978.3426    2661.3381    16470.291    14.700503 
    5800    1021.1379     -6091.36   -5977.4505    3112.0919    16469.047    14.718382 
    5810    1019.0365   -6090.0927   -5976.4176    3002.2977    16469.753    14.744128 
    5820    1059.4609    -6093.484   -5975.2996    750.52594    16472.191    14.770635 
    5830    1065.1579   -6093.0232   -5974.2032   -164.65978    16475.169    14.799657 
    5840     1043.368   -6089.6432   -5973.2539     504.3644    16478.129    14.832577 
    5850    1098.9554   -6095.0633   -5972.4732   -240.53731    16481.292     14.86475 
    5860    1103.5504   -6095.0016   -5971.8989     104.6975    16484.368    14.890863 
    5870    1080.8689   -6092.0987   -5971.5261    778.54539    16487.514    14.912853 
    5880    1094.1684   -6093.3028   -5971.2467    24.055858    16491.055    14.940857 
    5890    1100.3987   -6093.7955   -5971.0444   -586.11024    16494.604    14.979644 
    5900     1073.215   -6090.6037    -5970.885   -224.92562    16497.837    15.029568 
    5910    1078.0042   -6090.9918   -5970.7388    -482.5261    16500.867    15.083049 
    5920    1085.3974   -6091.6605   -5970.5828   -533.55303      16503.6    15.139069 
    5930    1087.7299   -6091.7651   -5970.4272    238.83696    16506.041     15.20103 
    5940     1080.472   -6090.8002   -5970.2719    871.98158    16508.603    15.267506 
    5950    1083.4796   -6090.9891   -5970.1253    1943.6139    16511.739    15.339065 
    5960    1050.8397    -6087.175   -5969.9523    3351.7269    16516.111    15.411135 
    5970     1048.058    -6086.643   -5969.7306    2990.3329    16522.463    15.469731 
    5980    1078.1829    -6089.706   -5969.4331    1674.7728    16530.612    15.518925 
    5990    1068.0426   -6088.2295   -5969.0877    1718.9534    16539.868    15.574604 
    6000    1059.5846   -6086.9063   -5968.7081    1783.6015    16550.175    15.635202 
    6010    1069.4578   -6087.5558   -5968.2562     637.6192    16561.497     15.69306 
    6020    1096.8921    -6090.113   -5967.7531   -700.20244    16573.168    15.738541 
    6030    1096.0879   -6089.5186   -5967.2483   -976.50744    16584.425    15.777722 
    6040    1057.5722   -6084.7222   -5966.7485   -367.15871    16595.091    15.820835 
    6050    1068.4676   -6085.4018   -5966.2126    -1172.915    16605.399    15.867201 
    6060    1089.9238   -6087.1959   -5965.6133   -2705.3466    16614.907    15.915084 
    6070    1111.2953   -6088.9797    -5965.013   -3631.4551    16622.711    15.957331 
    6080    1115.1144   -6088.8552   -5964.4626   -3731.9313    16628.223    15.972111 
    6090    1111.3766   -6087.9623   -5963.9866   -3143.2996    16631.389    15.953218 
    6100    1146.2215   -6091.4441   -5963.5813   -3289.5558    16632.501    15.915908 
    6110    1181.5503   -6095.1185   -5963.3148   -3844.0378     16631.48    15.882736 
    6120    1138.0637   -6090.1801   -5963.2274   -2160.2478    16628.152    15.870233 
    6130    1135.0009    -6089.908   -5963.2969    -1097.559    16623.402    15.881842 
    6140    1131.2514   -6089.6608    -5963.468   -350.81598    16617.964    15.912966 
    6150    1105.2968   -6087.0264   -5963.7289    575.28654    16612.336    15.948008 
    6160    1105.7714   -6087.3861   -5964.0356    422.71771    16607.031    15.973186 
    6170    1122.2139   -6089.6012   -5964.4165   -9.3710355    16602.001    16.000548 
    6180     1126.301   -6090.5377   -5964.8971    101.63282    16597.016    16.045359 
    6190    1103.8153   -6088.5982   -5965.4659    935.36415    16592.149    16.097795 
    6200    1110.4149   -6089.9667   -5966.0983    905.51277     16587.83    16.141865 
    6210    1119.6596   -6091.7126   -5966.8128    931.94446    16584.112    16.182401 
    6220    1092.6874   -6089.4788   -5967.5879     1606.833     16581.04    16.221073 
    6230    1085.4051   -6089.4608   -5968.3822    1284.7755    16578.941    16.252854 
    6240    1069.3436   -6088.4149   -5969.1281    229.80371    16577.628    16.280319 
    6250    1083.2643     -6090.67   -5969.8302   -1062.4153    16576.436    16.299585 
    6260    1075.8494    -6090.492   -5970.4794   -890.43015    16574.672    16.313749 
    6270     1078.993   -6091.4436   -5971.0803   -620.11665    16572.343    16.331656 
    6280    1103.8034   -6094.7623   -5971.6314   -1234.6284    16569.574     16.35813 
    6290     1121.176   -6097.2636   -5972.1947   -2356.0638    16565.991    16.388758 
    6300    1109.5872   -6096.5432   -5972.7671   -2508.8707    16560.998    16.425749 
    6310    1115.4765   -6097.7929   -5973.3598   -1804.7035    16554.462    16.463665 
    6320    1094.2573   -6095.9995   -5973.9334     -94.6491    16546.861    16.490041 
    6330    1068.2584   -6093.6148    -5974.449    1164.0506    16539.178    16.511143 
    6340    1045.4225   -6091.4742   -5974.8558    1935.4126    16532.221    16.543992 
    6350    1058.2289   -6093.1941    -5975.147    1284.7755    16526.404    16.596696 
    6360    1082.6965   -6096.1391   -5975.3626   -12.556841    16521.373    16.668135 
    6370    1094.1892    -6097.604   -5975.5455   -1088.0473    16516.349    16.752895 
    6380    1103.9985   -6098.8917   -5975.7391   -1261.1526     16510.69    16.836632 
    6390    1085.0053   -6096.9605   -5975.9265   -167.42216    16504.323    16.905939 
    6400    1081.4646   -6096.7331   -5976.0941    426.21157    16497.804    16.948477 
    6410    1082.8097   -6097.0024   -5976.2134    470.30436    16491.532    16.971947 
    6420    1110.3116   -6100.1773   -5976.3203     87.14373    16485.522    16.989277 
    6430     1121.854   -6101.6066   -5976.4621   -260.85128    16479.568    17.013536 
    6440    1114.1523   -6100.9465   -5976.6611   -47.724592    16473.492    17.055826 
    6450    1112.9816   -6101.0669   -5976.9121     64.36903     16467.38    17.103571 
    6460    1117.2386    -6101.844   -5977.2143    484.06053    16461.333    17.137098 
    6470    1097.1389   -6099.9304   -5977.5429    1535.4502    16455.649    17.154801 
    6480    1092.0723   -6099.6995   -5977.8772    1565.8935    16450.857     17.16382 
    6490    1065.7051   -6097.0432   -5978.1622    2091.3464    16447.103    17.171113 
    6500    1056.3958   -6096.2356   -5978.3931    2035.1288    16444.623    17.176716 
    6510    1058.8186   -6096.6515   -5978.5387    1593.2887    16443.409    17.185245 
    6520    1077.9421   -6098.8622   -5978.6161    210.49318    16443.142    17.203442 
    6530    1095.0827   -6100.8366   -5978.6784   -1427.9219    16443.002    17.233371 
    6540    1111.6887    -6102.773   -5978.7625   -2599.4494    16441.993    17.270555 
    6550    1101.7676   -6101.7995   -5978.8957   -2055.8013     16439.46    17.312356 
    6560    1086.6022   -6100.2678   -5979.0556   -560.12048    16435.698    17.357094 
    6570    1075.5463   -6099.1773   -5979.1985    195.17803    16431.553    17.411468 
    6580    1064.6045   -6098.0627   -5979.3044    837.54751    16427.545    17.473625 
    6590    1053.8072   -6096.8928    -5979.339    1152.4108    16424.039    17.524807 
    6600    1052.9698   -6096.7718   -5979.3114    856.89491    16421.207    17.545939 
    6610     1057.284   -6097.1569   -5979.2152    546.35592    16418.915    17.548133 
    6620    1068.6334   -6098.2657    -5979.058    392.25345    16416.975    17.556503 
    6630    1071.5255   -6098.3829   -5978.8526    544.84515      16415.3    17.586829 
    6640    1077.8937    -6098.855   -5978.6143    402.90496    16413.952    17.632913 
    6650    1071.7044   -6097.8949   -5978.3447      -48.926    16412.851    17.674147 
    6660     1087.371     -6099.34   -5978.0421   -1064.2076    16411.689    17.704528 
    6670    1101.5252   -6100.5945   -5977.7177   -1514.7364    16409.895    17.730286 
    6680    1075.7686   -6097.3878   -5977.3842   -471.63076    16407.246      17.7491 
    6690    1093.5482   -6099.0007   -5977.0138   -596.43799    16404.221     17.75631 
    6700    1120.3861   -6101.5697   -5976.5889    -429.9246    16400.858    17.754176 
    6710    1101.8617   -6099.0634   -5976.1491    837.60757    16397.291     17.74594 
    6720    1098.1041   -6098.1656   -5975.6704     1530.057     16394.21     17.73408 
    6730    1097.5837   -6097.5265   -5975.0894    1823.9023    16392.063    17.729115 
    6740    1120.8393   -6099.4035   -5974.3722      824.671    16390.954     17.73707 
    6750    1133.6844    -6099.963   -5973.4988    409.52121      16390.4    17.757582 
    6760    1128.8098    -6098.432   -5972.5115    1223.4473    16390.152    17.785056 
    6770    1110.5773   -6095.2971   -5971.4105    2788.3436    16390.723    17.815021 
    6780    1107.0801   -6093.6966   -5970.2001    2991.4103    16392.953    17.840118 
    6790    1155.3667   -6097.8068   -5968.9239    2067.9735    16397.002    17.858006 
    6800    1167.9029   -6097.9902   -5967.7089    1898.9789    16402.419    17.874395 
    6810    1122.8516   -6091.9705   -5966.7148    3104.2652    16409.142    17.886148 
    6820    1121.2951   -6090.9801   -5965.8979    3349.2096    16417.796    17.888148 
    6830    1136.5866   -6091.9903   -5965.2023    3306.1764    16428.586    17.875442 
    6840    1120.0974   -6089.6173   -5964.6688     3860.503    16441.579    17.839594 
    6850    1108.5387    -6087.906   -5964.2468    3501.9969    16457.059     17.79624 
    6860    1140.7676   -6091.1624    -5963.908    1820.4546    16474.796    17.768048 
    6870    1174.3598   -6094.6792   -5963.6776   -264.56323    16493.809    17.754151 
    6880    1164.6874   -6093.5558   -5963.6332   -1184.5134    16512.882    17.741428 
    6890    1143.9174   -6091.3626   -5963.7569   -1065.5853    16531.452    17.730824 
    6900    1151.7677   -6092.5037   -5964.0223   -1464.6687    16549.467    17.721755 
    6910    1152.6049   -6093.0131   -5964.4383   -1107.0802    16566.764    17.711713 
    6920    1131.0078   -6091.1425   -5964.9769   -803.15664    16583.503    17.697679 
    6930    1134.1228   -6092.1304   -5965.6173   -1906.6562    16599.791    17.674664 
    6940    1122.9823   -6091.5833   -5966.3129   -3064.5971    16615.014    17.657155 
    6950    1114.8666   -6091.4164   -5967.0514   -3593.0956    16628.447    17.656278 
    6960    1111.9052   -6091.8388   -5967.8041   -3366.9982    16639.743    17.660824 
    6970    1087.0226   -6089.8009   -5968.5419   -2695.0573    16648.994    17.654178 
    6980    1075.9038   -6089.2293   -5969.2106   -2148.3977    16656.592    17.643029 
    6990    1088.5087    -6091.219   -5969.7943   -2411.0647     16662.83     17.64777 
    7000    1107.2185    -6093.843   -5970.3311   -3001.5337    16667.548    17.670666 
    7010    1111.8675   -6094.8769   -5970.8464   -3252.5737     16670.42    17.698173 
    7020    1104.2345   -6094.5236   -5971.3446   -3948.7025    16671.198    17.701061 
    7030    1104.6996   -6095.0673   -5971.8364   -4661.0089    16669.434    17.672001 
    7040    1109.6633   -6096.0849   -5972.3003   -5195.8354    16664.679    17.628521 
    7050    1112.4995   -6096.8809   -5972.7799   -5082.5684    16656.555    17.578588 
    7060    1055.9821   -6091.0077   -5973.2113   -3230.2335    16645.215    17.524912 
    7070    1052.0348   -6090.9028   -5973.5467   -3408.8298    16631.559    17.466898 
    7080    1090.6069   -6095.4568    -5973.798   -4414.4866    16615.547    17.416806 
    7090    1108.0957   -6097.6582   -5974.0484   -4522.1911    16596.606    17.388059 
    7100    1081.0517   -6094.8994   -5974.3064   -3618.8919    16574.677    17.373692 
    7110    1080.6578   -6095.0834   -5974.5344   -3574.3864    16550.207    17.356532 
    7120    1070.3301   -6094.1059   -5974.7089   -2496.7877    16523.365    17.330546 
    7130    1057.3439   -6092.7599   -5974.8116   -722.69113    16494.799    17.295152 
    7140    1053.5467   -6092.3448   -5974.8201    186.10205    16465.571    17.254294 
    7150    1072.8298   -6094.4366   -5974.7609   -494.60035    16436.223    17.218503 
    7160    1089.6757   -6096.2421   -5974.6872   -666.81183    16406.479    17.192551 
    7170    1087.0874    -6095.872   -5974.6057      205.135    16376.277    17.169341 
    7180    1078.4774   -6094.8075   -5974.5017    1104.1321    16346.137    17.140594 
    7190    1098.7894   -6096.9625   -5974.3908    1218.2427    16316.593    17.099857 
    7200    1117.7469   -6098.9848   -5974.2984    1815.4612    16287.812    17.050567 
    7210    1115.2386   -6098.6547   -5974.2481    3280.7423    16260.203    17.012287 
    7220    1133.8347   -6100.7371   -5974.2561      3651.95    16234.557    17.000105 
    7230    1176.5637   -6105.6629   -5974.4154    2931.0763    16211.092    17.012492 
    7240    1133.0006   -6101.1522   -5974.7643    4132.0043     16189.54    17.030395 
    7250    1072.7772   -6094.8617   -5975.1918    6507.2985    16170.603    17.039836 
    7260    1120.7505   -6100.6728   -5975.6514    5993.5774    16155.467    17.026765 
    7270    1151.8759   -6104.7524   -5976.2589    4799.7541    16143.941    16.988143 
    7280    1122.8052   -6102.3009   -5977.0503    5255.1895    16135.425    16.948082 
    7290    1102.4504    -6100.932    -5977.952    6184.8711    16130.119    16.929637 
    7300    1117.2512   -6103.5707   -5978.9396    5883.8308     16128.47    16.927168 
    7310    1099.7608   -6102.6573   -5979.9773    5404.0626     16130.37    16.926535 
    7320    1096.5086   -6103.3179   -5981.0007    4002.1766    16135.465    16.920911 
    7330    1110.4485   -6105.8268   -5981.9546    2063.3463    16142.939    16.913667 
    7340    1120.0078    -6107.789   -5982.8504    1210.9116    16151.711    16.911703 
    7350    1094.2917   -6105.7237   -5983.6539    2491.0354    16161.338     16.92211 
    7360    1069.4058   -6103.6001   -5984.3062    4093.5984    16172.501     16.93908 
    7370    1065.7294   -6103.6933   -5984.8096    3557.4396    16186.017    16.950305 
    7380    1052.1473   -6102.5165   -5985.1479    2243.7093    16201.678    16.955111 
    7390    1053.8173   -6102.9099    -5985.355    772.50253    16218.709    16.954707 
    7400    1048.0662     -6102.35   -5985.4366    242.96646    16236.285    16.959617 
    7410    1068.6065   -6104.6468   -5985.4421    154.10175    16254.026    16.981646 
    7420    1065.4332   -6104.2472   -5985.3965    1720.0812    16271.966     17.01239 
    7430    1036.8174   -6100.9912   -5985.3327    3409.7993    16290.981    17.039364 
    7440    1051.6914   -6102.5128    -5985.195    2264.3521    16311.939    17.054099 
    7450    1072.7516   -6104.6276   -5984.9605   -371.97009    16334.223    17.056608 
    7460    1074.8937   -6104.5721   -5984.6661   -2372.1857    16356.328    17.068238 
    7470    1085.6304   -6105.4472   -5984.3434   -3961.3062    16376.987    17.097644 
    7480    1102.7072   -6107.0191   -5984.0105   -5282.0739    16395.212    17.132578 
    7490     1111.042    -6107.659   -5983.7206   -5902.2055    16410.176     17.16805 
    7500    1061.7975   -6101.9236   -5983.4785   -4110.3684    16421.622    17.206277 
    7510    1045.4595   -6099.8428   -5983.2202   -2755.2765    16430.472    17.246267 
    7520    1085.7623   -6104.0076   -5982.8892   -3232.1582    16437.494    17.283767 
    7530    1119.4185   -6107.4158   -5982.5429   -3678.7979    16442.495    17.307216 
    7540    1080.7095    -6102.801   -5982.2462   -2177.8145    16445.325     17.32413 
    7550    1043.5483    -6098.353   -5981.9436   -1847.6503    16446.721    17.345326 
    7560    1081.0464   -6102.1666   -5981.5742   -3558.5924    16446.845    17.369942 
    7570    1099.6693   -6103.8293   -5981.1595   -4049.7463    16444.843    17.391827 
    7580    1095.2947    -6102.935   -5980.7532   -3864.3849    16440.352    17.397126 
    7590    1089.2091   -6101.8717   -5980.3688   -3367.7034    16433.468    17.387894 
    7600    1060.4449   -6098.2606   -5979.9664   -1876.5799    16424.562    17.377516 
    7610    1062.7764   -6098.0539   -5979.4996   -1368.3244    16414.434     17.36685 
    7620    1083.4204   -6099.8119   -5978.9547   -1750.4526    16403.409    17.354252 
    7630    1085.5279   -6099.4682    -5978.376   -959.85886    16391.383    17.334719 
    7640    1092.3263   -6099.6279   -5977.7773    530.32732     16378.81    17.300926 
    7650    1100.3899   -6099.9129   -5977.1628    1580.1294    16366.549    17.265412 
    7660    1092.9466    -6098.479   -5976.5591    2523.3116    16355.276     17.25415 
    7670    1087.9865   -6097.3295   -5975.9629    3151.5356    16345.551      17.2685 
    7680    1112.1139     -6099.42    -5975.362    2805.4114    16337.728    17.295951 
    7690    1135.7292   -6101.5044   -5974.8121    2137.7793    16331.624    17.327971 
    7700    1124.7744   -6099.8261   -5974.3558    2093.1761     16326.88    17.362251 
    7710    1129.1062   -6099.9504   -5973.9969    1334.6577    16323.393    17.409567 
    7720    1155.1526   -6102.6032   -5973.7442    -85.26048     16320.69    17.473953 
    7730    1132.1055   -6099.9215   -5973.6334    861.71276    16318.086    17.542679 
    7740    1114.1418   -6097.9007   -5973.6166    2353.2883    16316.043    17.599405 
    7750    1136.3592   -6100.4545    -5973.692    2159.0455    16315.351    17.642346 
    7760    1145.6236   -6101.6746   -5973.8786    1643.2178    16315.978    17.693837 
    7770    1150.6591    -6102.591   -5974.2332    1663.6681    16317.653    17.761748 
    7780    1142.1878   -6102.1869   -5974.7742    2353.4061    16320.405    17.831347 
    7790    1132.7855   -6101.8709   -5975.5069    2537.1014    16324.588    17.890947 
    7800    1142.0662   -6103.8562    -5976.457    1488.8258    16330.279     17.94826 
    7810    1109.0141   -6101.3043   -5977.5921    627.58368    16336.922     18.00162 
    7820     1098.514   -6101.3698    -5978.829   -394.79044    16343.976    18.034503 
    7830    1108.0371   -6103.7224   -5980.1192   -1310.5625    16350.817    18.045037 
    7840    1100.2785   -6104.1207    -5981.383    -1404.648    16356.919    18.049002 
    7850    1100.7247    -6105.328   -5982.5405   -1422.7933    16362.159    18.070497 
    7860    1076.4383   -6103.5812   -5983.5029   -798.94932    16366.585    18.114483 
    7870    1063.9092   -6102.9058   -5984.2251   -460.44934    16370.529    18.156483 
    7880    1066.8533   -6103.7291   -5984.7201    -907.9789    16374.163    18.173376 
    7890     1079.002   -6105.4183    -5985.054    -1541.964    16377.237    18.165364 
    7900    1086.9044   -6106.5409   -5985.2951   -1683.7891    16379.403    18.144266 
    7910    1078.9793   -6105.8507   -5985.4889   -1505.1174    16380.543    18.129133 
    7920    1045.9896   -6102.2905   -5985.6088   -957.04054     16380.79    18.128943 
    7930    1068.5421    -6104.848   -5985.6505   -1896.6953    16380.372    18.137275 
    7940    1101.2155   -6108.4881   -5985.6458    -3418.932    16378.748    18.147613 
    7950    1118.0008   -6110.3977    -5985.683   -3954.8394    16375.035    18.159676 
    7960     1095.683   -6107.9902   -5985.7651   -2545.5925    16368.965     18.17558 
    7970    1053.6757   -6103.3893   -5985.8502   -462.73256    16361.329    18.190508 
    7980    1050.5628   -6103.0565   -5985.8646   -604.30924    16353.247    18.198609 
    7990      1078.11   -6106.0771   -5985.8124   -2176.4318    16344.663    18.207593 
    8000    1093.8747   -6107.7726   -5985.7493   -2028.4256    16334.785    18.220409 
    8010    1088.6611   -6107.1219   -5985.6801   -556.94507    16323.653    18.237686 
    8020    1066.4666   -6104.5784   -5985.6125    1219.0629    16312.109     18.25884 
    8030    1040.8316   -6101.5852   -5985.4789    2302.8357    16301.205    18.268904 
    8040    1029.5921   -6100.0965    -5985.244    1955.4446    16291.556    18.275292 
    8050    1042.6159   -6101.1959   -5984.8905    841.13925    16283.012     18.30378 
    8060    1071.1365   -6103.9187   -5984.4318   -236.45907     16274.93    18.352001 
    8070    1055.1356    -6101.606   -5983.9041    187.32835    16266.723    18.393833 
    8080    1041.3493   -6099.4655   -5983.3014    1499.3801     16258.61    18.403644 
    8090    1057.8561   -6100.5936   -5982.5881    2736.6835    16251.344    18.383165 
    8100    1089.8953   -6103.3762   -5981.7967    3042.6752     16245.65    18.359056 
    8110    1101.6339   -6103.8883   -5980.9994    3261.4825    16241.757     18.35623 
    8120    1087.1234   -6101.5209   -5980.2506    4153.8814    16239.866    18.380706 
    8130    1111.4564   -6103.5325   -5979.5479     3793.781    16240.434    18.410231 
    8140    1161.9611   -6108.5438   -5978.9253    2228.8139    16243.259    18.420725 
    8150    1158.4403   -6107.6886   -5978.4629    1169.3418    16247.527    18.419175 
    8160    1167.6941   -6108.4678   -5978.2098   -225.77068    16252.528    18.425221 
    8170    1159.4069   -6107.4718   -5978.1382   -280.01434    16257.537    18.444425 
    8180    1140.2089   -6105.4328   -5978.2408    362.26034    16262.462    18.453682 
    8190    1115.6419   -6102.9199   -5978.4684    1035.7238    16267.665    18.442301 
    8200     1085.587   -6099.8435   -5978.7447    1594.8909    16273.571    18.423806 
    8210    1094.0229    -6101.065   -5979.0251    1259.5011    16280.495    18.397994 
    8220     1112.135   -6103.3794   -5979.3191    239.21716    16288.246    18.364344 
    8230    1103.0974   -6102.7132   -5979.6611    -35.34217    16296.294    18.336068 
    8240    1089.8026   -6101.6115   -5980.0424    207.15243     16304.45    18.321037 
    8250     1078.595   -6100.7404   -5980.4215    971.94852    16312.883    18.307153 
    8260    1095.8761   -6103.0544   -5980.8077     616.2358    16321.975    18.294748 
    8270    1110.1287   -6105.0544   -5981.2179   -517.71105    16331.552    18.293289 
    8280    1118.9115   -6106.5144   -5981.6981   -1386.7248    16340.959    18.297601 
    8290     1103.945   -6105.4001   -5982.2534   -1347.4955    16349.708    18.308546 
    8300    1078.7261   -6103.1887   -5982.8552   -579.50605    16357.793    18.324376 
    8310    1059.9628   -6101.6879   -5983.4474    697.70629    16365.682    18.356867 
    8320    1064.6659   -6102.7602   -5983.9951    1201.5426    16374.113    18.409693 
    8330      1084.27   -6105.4728   -5984.5208   -375.93446    16383.312    18.465947 
    8340    1074.9713   -6104.9507    -5985.036   -1540.9974    16392.474     18.51744 
    8350    1057.4483   -6103.4816   -5985.5217   -2152.7012    16400.843    18.554581 
    8360    1076.2776   -6106.0323   -5985.9719   -2999.7106    16407.978    18.575041 
    8370    1088.9011   -6107.8877   -5986.4191   -3600.0309    16413.368    18.590815 
    8380    1065.9549   -6105.7816   -5986.8727   -3870.7032    16416.627     18.60665 
    8390    1072.8842   -6107.0113   -5987.3295   -4500.6206    16417.485    18.615115 
    8400     1057.284    -6105.708   -5987.7664   -3706.8254    16415.617    18.623803 
    8410    1047.7772   -6105.0598   -5988.1787   -2602.9174    16411.404    18.641981 
    8420    1038.6787   -6104.4122   -5988.5461   -1978.8159    16405.458    18.680284 
    8430    1044.1199     -6105.32   -5988.8469   -1861.6938    16398.152    18.728212 
    8440    1079.5728   -6109.5529    -5989.125   -2812.4629     16389.48    18.771142 
    8450    1089.2932   -6110.9409   -5989.4286   -3288.9492    16378.916    18.802707 
    8460    1089.9497   -6111.4238   -5989.8383   -3115.6728    16366.134    18.816792 
    8470    1080.7796    -6110.927   -5990.3645   -2192.3381    16351.227    18.811541 
[...]
   22890     1133.168   -6135.1104   -6008.7038    573.79473    15735.273    25.102807 
   22900     1151.394    -6137.691   -6009.2512   -748.91951    15732.319    25.134365 
   22910    1132.4078   -6136.2789   -6009.9571   -396.17045    15728.983    25.182136 
   22920    1102.0783   -6133.6914   -6010.7529    1139.5492    15725.455    25.244878 
   22930    1124.0531   -6136.9972   -6011.6074    156.38811    15722.369    25.304254 
   22940    1135.6827   -6139.2221   -6012.5349   -222.50099    15719.397    25.346908 
   22950    1118.8482   -6138.3333   -6013.5241    212.79423    15716.298    25.370846 
   22960    1095.4803   -6136.6849   -6014.4824    872.12829    15713.285    25.367905 
   22970    1076.6776   -6135.4328   -6015.3278    1691.7617    15710.734    25.338928 
   22980     1077.369   -6136.2116   -6016.0294    2328.1923    15709.122    25.305145 
   22990    1099.7647   -6139.2858   -6016.6054    1383.9578    15708.747    25.288174 
   23000    1117.9927   -6141.8352   -6017.1214    70.006184    15709.155    25.296219 
   23010    1114.1223   -6141.8864   -6017.6043   -604.39699    15709.633    25.322762 
   23020    1072.2519   -6137.6397   -6018.0284   -176.34889    15709.844    25.344295 
   23030    1052.2213   -6135.7273   -6018.3504   -141.21306    15709.931    25.348317 
   23040    1064.7231   -6137.3374    -6018.566    -547.8475     15709.92    25.344045 
   23050    1068.1853   -6137.8504   -6018.6928   -571.82634    15709.609    25.340627 
   23060     1058.565    -6136.822   -6018.7375    52.603653    15708.999    25.345191 
   23070    1080.6351   -6139.2652   -6018.7188   -375.99328    15708.359    25.356598 
   23080     1115.401   -6143.1014   -6018.6768   -1414.3144     15707.47    25.373209 
   23090    1124.7818   -6144.1638   -6018.6927   -1595.6852    15705.812    25.418073 
   23100    1085.7301    -6139.898   -6018.7832    146.30768    15703.334    25.508866 
   23110    1043.2714   -6135.2413   -6018.8628    1835.5523    15700.927    25.617236 
   23120    1072.8492    -6138.527    -6018.849     1011.144    15699.418    25.707394 
   23130    1093.1024   -6140.7128   -6018.7755    176.88739      15698.5    25.770151 
   23140    1088.1607   -6140.1054   -6018.7195     214.1856    15697.714    25.804562 
   23150    1067.9855   -6137.8115   -6018.6761     846.8695    15697.071    25.818515 
   23160    1079.2955    -6139.005    -6018.608    428.44639    15696.862    25.830929 
   23170    1119.1111   -6143.3599   -6018.5214   -1235.1269    15696.831     25.86235 
   23180     1120.635   -6143.4954   -6018.4869   -1384.1859    15696.182    25.920253 
   23190    1082.6388   -6139.2937   -6018.5237    81.199785    15694.818    25.989563 
   23200    1086.3191   -6139.7601   -6018.5795    845.29497    15693.461    26.036483 
   23210    1102.3705   -6141.6057   -6018.6346    857.99513    15692.554    26.044406 
   23220      1081.85   -6139.3949   -6018.7129    1625.2879     15692.18     26.02181 
   23230    1061.3627   -6137.1707   -6018.7741    2388.2493    15692.744    25.986124 
   23240     1079.202   -6139.1728   -6018.7862    1921.4234    15694.601    25.956253 
   23250    1080.4732   -6139.2981   -6018.7697    2776.0281    15697.647     25.94844 
   23260    1055.7361   -6136.5061   -6018.7372    3630.2696    15702.296    25.957954 
   23270    1058.5462   -6136.7367   -6018.6543    2520.2652    15708.933    25.965671 
   23280     1086.137   -6139.6646   -6018.5044    829.09113    15717.009     25.95859 
   23290    1076.0835   -6138.3417    -6018.303    447.65692     15725.66     25.94996 
   23300    1053.6874    -6135.587   -6018.0466    835.18537    15734.641     25.95467 
   23310    1061.6729   -6136.1346   -6017.7034    991.59675    15744.113    25.965124 
   23320    1065.8731    -6136.147   -6017.2472    1253.2884    15754.207    25.975195 
   23330    1097.1074   -6139.0727   -6016.6887   -273.82775    15764.948    25.985022 
   23340    1097.6236   -6138.4873   -6016.0457   -1037.2351    15775.616    25.997044 
   23350     1082.431   -6136.1038    -6015.357   -647.01441    15785.775    26.009361 
   23360    1091.3897   -6136.3506   -6014.6044   -913.59598    15795.549    26.020708 
   23370    1090.6836   -6135.4598   -6013.7923   -666.05118    15804.858    26.034199 
   23380    1083.8971   -6133.8657   -6012.9553   -349.10926    15813.831    26.051611 
   23390    1092.3881   -6133.9507   -6012.0932   -1676.5632    15822.555    26.071229 
   23400    1104.8113   -6134.4741   -6011.2307   -2498.2033     15830.38    26.077804 
   23410    1099.9004   -6133.1018   -6010.4062   -1906.2805    15836.884    26.062344 
   23420    1115.3225   -6134.0588   -6009.6429   -1876.6522    15842.271    26.022138 
   23430     1115.222   -6133.3846   -6008.9799   -1905.1071    15846.561     25.96387 
   23440    1081.4827   -6129.0592   -6008.4182    -43.77185    15849.877    25.893324 
   23450    1075.7595   -6127.9105    -6007.908     1423.596    15853.155    25.826554 
   23460    1104.8344    -6130.655   -6007.4091    511.39451    15857.137    25.770703 
   23470    1124.5738   -6132.4079     -6006.96   -1044.0114    15861.403     25.72008 
   23480    1089.5029    -6128.124   -6006.5883   -548.56945    15865.208    25.665661 
   23490    1076.2633   -6126.3287   -6006.2699   -164.48725    15868.683    25.617017 
   23500    1102.8401   -6128.9849   -6005.9614   -825.04675    15872.002    25.590476 
   23510    1140.2708    -6132.904    -6005.705   -1493.3512    15874.839    25.584023 
   23520    1139.9256   -6132.7353   -6005.5748   -958.69874    15876.896    25.593844 
   23530    1128.8952   -6131.5033   -6005.5734   -867.54111    15878.382    25.603402 
   23540    1134.4652   -6132.2114   -6005.6601     -1807.88    15879.313    25.594206 
   23550    1137.4908   -6132.7122   -6005.8233   -1576.6154    15879.272    25.560189 
   23560    1126.3654   -6131.7307    -6006.083   -778.60266     15878.34    25.513467 
   23570    1112.9327   -6130.5784   -6006.4291    479.24004    15876.989    25.468025 
   23580    1095.8694   -6129.0592   -6006.8133    1251.0991    15875.897    25.419751 
   23590    1099.3907   -6129.8655   -6007.2268    444.33314    15875.477    25.362022 
   23600    1100.1111   -6130.3789   -6007.6599    -1166.806    15875.277    25.301853 
   23610    1082.2776   -6128.8168   -6008.0871   -1319.5202    15874.486    25.250776 
   23620    1088.2298   -6129.8732   -6008.4795   -1148.2514    15872.934    25.210032 
   23630    1098.6019   -6131.4375   -6008.8868   -879.29486    15870.721    25.179906 
   23640    1100.1453   -6132.0429   -6009.3201   -656.22016    15868.001     25.16256 
   23650    1097.8294   -6132.2438   -6009.7793   -840.45866    15864.874    25.151978 
   23660    1093.6385    -6132.249    -6010.252   -589.30635    15861.302    25.144474 
   23670    1082.5365   -6131.4884   -6010.7298   -341.59319    15857.387    25.143667 
   23680    1050.5199   -6128.3634   -6011.1763    723.89125    15853.352    25.151092 
   23690    1041.0053   -6127.6569   -6011.5312    1132.0081    15849.712    25.171124 
   23700    1075.2719   -6131.7316   -6011.7834    359.05161    15846.685    25.208126 
   23710    1118.2896   -6136.7613   -6012.0144   -351.10682    15843.881    25.259454 
   23720    1113.2263   -6136.4518   -6012.2697   -414.50065    15840.918    25.313297 
   23730     1114.663   -6136.9039   -6012.5616   -998.13922    15837.691    25.344342 
   23740    1104.3423   -6136.0564   -6012.8654   -1993.8952    15833.891    25.331874 
   23750    1110.3784   -6137.0606   -6013.1962   -2891.3866    15828.965    25.279434 
   23760    1102.6419   -6136.5657   -6013.5643   -3233.8462    15822.418    25.221083 
   23770    1095.5793   -6136.1491   -6013.9356   -3060.3816    15814.077    25.197812 
   23780    1085.2243   -6135.3185   -6014.2601   -1555.4285    15804.102    25.231921 
   23790    1066.0358   -6133.4024   -6014.4845   -182.25688    15793.301    25.317991 
   23800    1088.0979   -6136.0094   -6014.6305   -847.25617     15782.38    25.420405 
   23810    1109.2916   -6138.4985   -6014.7554   -2011.1356    15771.042    25.487385 
   23820    1089.2963    -6136.388   -6014.8754   -1432.3967    15758.755    25.495003 
   23830    1096.7196   -6137.3155   -6014.9748   -323.17706    15745.795    25.454348 
   23840    1115.5808   -6139.5062   -6015.0615    639.98132    15732.773    25.402604 
   23850    1102.7479   -6138.1802    -6015.167    2334.5044    15720.293    25.377181 
   23860    1070.7882   -6134.7001   -6015.2521    3415.0948    15709.244    25.381865 
   23870    1079.8472   -6135.7655    -6015.307    2732.1695    15700.161    25.397631 
   23880    1088.8033   -6136.7944   -6015.3368    2016.9261    15692.738    25.408153 
   23890    1087.9417   -6136.7247   -6015.3632    2390.1553    15686.606    25.419048 
   23900    1093.5357   -6137.3752   -6015.3896    2599.7272    15681.889     25.43549 
   23910     1095.202   -6137.6007   -6015.4292    2550.9479    15678.681    25.456645 
   23920    1095.6687   -6137.7189   -6015.4954    2631.1898    15676.962    25.475992 
   23930    1077.6513   -6135.7748   -6015.5612     2994.397    15676.773     25.48027 
   23940    1071.8888   -6135.1902   -6015.6194    3154.3969    15678.266    25.461183 
   23950    1077.4141   -6135.8424   -6015.6552     3097.577    15681.504    25.425316 
   23960    1064.8259   -6134.4432   -6015.6603    2962.6367    15686.471     25.38451 
   23970    1085.3178   -6136.6893   -6015.6204    952.29533    15692.955    25.341894 
   23980    1128.5581   -6141.4836   -6015.5912   -754.82506    15699.914     25.30419 
   23990    1136.9733   -6142.4604   -6015.6293   -1365.8341    15706.429    25.282848 
   24000     1129.272   -6141.7655   -6015.7935   -1652.3929    15712.101    25.274198 
   24010    1117.5585   -6140.7171   -6016.0518   -682.64253     15716.86    25.253028 
   24020    1106.7757   -6139.8775    -6016.415   -39.454482    15721.141    25.217121 
   24030    1060.6053   -6135.1248   -6016.8127    1566.1638    15725.424    25.198066 
   24040    1037.1008   -6132.8685   -6017.1783    2663.6438    15730.526    25.212914 
   24050    1050.9968   -6134.7158   -6017.4756    2384.1137    15737.021    25.241611 
   24060    1072.6789   -6137.3627   -6017.7037     1380.021    15744.788    25.253444 
   24070    1095.0717   -6140.0667   -6017.9098   -351.20427    15753.222    25.233118 
   24080    1106.4218    -6141.564    -6018.141    -1280.712    15761.407    25.179288 
   24090    1090.2698   -6140.0449   -6018.4237   -133.93404    15768.901    25.106753 
   24100     1082.334   -6139.4783   -6018.7424    168.46586    15776.193    25.046681 
   24110    1078.1912   -6139.3405   -6019.0666   -1071.6836    15783.425     25.02181 
   24120    1056.3215    -6137.221   -6019.3868   -2141.0309    15789.989    25.026481 
   24130    1043.7172   -6136.0982     -6019.67   -3082.5664    15795.254     25.04613 
   24140     1054.345   -6137.5086   -6019.8948   -3762.1606    15798.711    25.068496 
   24150    1074.5072   -6139.9492   -6020.0863    -4122.338    15800.002    25.085791 
   24160    1079.0483   -6140.6504   -6020.2809   -4113.1268    15798.932    25.092559 
   24170    1064.9051   -6139.2547   -6020.4629   -2966.7074    15795.592    25.084219 
   24180     1074.792   -6140.5078   -6020.6131   -2227.3828    15790.582     25.06829 
   24190    1074.2701    -6140.584   -6020.7476   -1593.8147    15784.355    25.052421 
   24200    1041.9345   -6137.0894     -6020.86    112.38138    15777.364    25.043717 
   24210    1027.2565   -6135.4932   -6020.9012    1198.3702    15770.486    25.041431 
   24220    1028.0073   -6135.4945   -6020.8187    1326.1571    15764.336    25.027048 
   24230    1050.4093   -6137.7719   -6020.5971    74.434721    15758.966    24.993525 
   24240     1062.944   -6138.8144   -6020.2414   -963.90139    15753.722    24.952169 
   24250    1058.1282   -6137.8073   -6019.7715    213.60572     15748.13    24.924433 
   24260    1039.9632   -6135.1799   -6019.1704    1783.6426    15742.755     24.92719 
   24270    1045.4203   -6135.0342    -6018.416    1785.6114    15738.395    24.952982 
   24280    1086.4978   -6138.7099   -6017.5094    101.77531    15735.014    24.979329 
   24290    1085.7047   -6137.6326   -6016.5206   -340.21553    15731.809    24.990889 
   24300    1094.9856   -6137.6796   -6015.5323   -685.16883    15728.438    24.980854 
   24310     1115.957    -6139.063   -6014.5764   -993.67776     15724.73    24.951162 
   24320    1124.5933   -6139.1587   -6013.7086   -666.93786    15720.557    24.919229 
   24330    1134.8902   -6139.5804   -6012.9817   -557.14177    15716.053    24.906309 
   24340    1129.0346   -6138.3561   -6012.4106     18.66368    15711.326    24.917081 
   24350    1097.6064    -6134.405   -6011.9653    1307.3746    15706.729    24.942045 
   24360    1092.0638   -6133.3963   -6011.5749    2310.1745    15702.938    24.968063 
   24370    1098.7733   -6133.7891   -6011.2193    3275.4102    15700.525    24.980696 
   24380    1103.0116   -6133.9513   -6010.9087    3967.0014    15700.009    24.975769 
   24390    1132.7261    -6137.024   -6010.6667    3237.4501    15701.671    24.954439 
   24400    1147.1053    -6138.483   -6010.5217    2249.2488    15705.142    24.923739 
   24410    1145.9488   -6138.3551   -6010.5228    1721.0027    15709.856    24.897449 
   24420    1116.2637   -6135.1638   -6010.6429    2452.9687    15715.536    24.897637 
   24430    1092.5104   -6132.7143   -6010.8431    3553.5088    15722.533    24.931727 
   24440    1079.9288   -6131.5155   -6011.0478    4036.5104    15731.421    24.982216 
   24450    1098.4529   -6133.7934   -6011.2593    3230.6243    15742.389    25.019419 
   24460    1082.3895    -6132.219   -6011.4768    2108.2398    15755.009    25.024078 
   24470    1066.9725   -6130.6977   -6011.6753     344.8342     15768.59    24.995807 
   24480    1092.4416   -6133.7025   -6011.8389   -1870.5889    15782.111    24.946681 
   24490    1093.6169   -6133.9974   -6012.0028    -2121.127    15794.454    24.900648 
   24500    1078.1009   -6132.4578    -6012.194   -925.03716    15805.471    24.882908 
   24510    1076.3042   -6132.4495   -6012.3862   -806.21523    15815.726    24.902889 
   24520    1087.6583   -6133.9125   -6012.5826   -1598.3705    15825.296    24.947977 
   24530     1072.188   -6132.3795   -6012.7753   -1007.0037    15833.881    25.000805 
   24540    1091.0995   -6134.6957   -6012.9819   -1036.9967    15841.685    25.035669 
   24550    1073.8973   -6133.0045   -6013.2097   -574.11199    15848.796    25.032791 
   24560    1065.0307   -6132.2519   -6013.4461   -1167.2587    15855.389    24.982164 
   24570    1090.2582   -6135.2976   -6013.6776   -3171.2362    15861.131    24.901574 
   24580    1096.4273   -6136.2592   -6013.9511   -4111.4342    15865.007     24.83427 
   24590    1076.5012   -6134.3914   -6014.3061   -3076.6684    15866.544    24.804209 
   24600    1051.2849   -6131.9687   -6014.6963   -1839.0766    15866.295    24.798497 
   24610     1064.398   -6133.8513   -6015.1161   -1616.6877    15864.945    24.798083 
   24620    1060.0319   -6133.8035   -6015.5553   -1637.7268    15862.671    24.798967 
   24630    1044.4698   -6132.5131   -6016.0009   -1564.0084    15859.501    24.792695 
   24640     1052.404   -6133.8217   -6016.4245   -1728.9207    15855.474    24.782896 
   24650    1070.0156   -6136.2012   -6016.8394   -2066.9885     15850.51    24.790094 
   24660    1076.5742   -6137.3657   -6017.2722   -2238.6575    15844.469    24.821323 
   24670    1076.1477   -6137.7803   -6017.7344   -2185.5198    15837.264    24.862574 
   24680    1064.8941   -6137.0056   -6018.2151   -2038.4522    15828.929    24.891184 
   24690    1064.7958   -6137.4666    -6018.687   -1849.9459    15819.583    24.883729 
   24700    1079.8369   -6139.6128   -6019.1554   -1806.3032    15809.333    24.850884 
   24710    1079.8717   -6140.0959   -6019.6346   -1392.9661     15798.26    24.829956 
   24720    1076.5142    -6140.208   -6020.1212   -1204.2625    15786.581    24.832214 
   24730    1069.9296   -6139.9512    -6020.599   -665.02784    15774.452    24.849027 
   24740    1054.4794   -6138.6813   -6021.0525    312.87239    15762.197    24.869734 
   24750    1053.5922    -6138.972   -6021.4422    69.164431    15750.286    24.877814 
   24760    1069.7925   -6141.1302   -6021.7933   -779.20138    15738.606    24.880818 
   24770     1053.292   -6139.5978   -6022.1015   -344.04569    15726.796    24.891383 
   24780    1037.7991   -6138.1111    -6022.343    261.05614    15715.031     24.90288 
   24790    1037.0595   -6138.1738   -6022.4882    798.31125    15703.642    24.895325 
   24800    1042.8594   -6138.8619   -6022.5294    1414.8832    15692.949    24.860118 
   24810    1062.5967   -6141.0159   -6022.4816    1106.9009    15683.218    24.811443 
   24820    1078.9717   -6142.7348   -6022.3739    692.80577    15674.303    24.773121 
   24830    1085.1785   -6143.2909   -6022.2376    981.59734    15665.991    24.750647 
   24840    1074.8004   -6141.9717   -6022.0761    1629.3851    15658.405    24.734082 
   24850    1076.2783   -6141.9324   -6021.8719     1347.714    15651.825    24.729854 
   24860    1098.9276   -6144.2186   -6021.6316    312.68735    15646.082    24.752078 
   24870    1107.8342   -6144.9651   -6021.3845     196.5769    15640.664    24.795517 
   24880    1087.9124   -6142.5061   -6021.1479    1746.9223    15635.545    24.841511 
   24890    1085.6364    -6142.006   -6020.9016    2483.2218    15631.448    24.872979 
   24900    1090.1904   -6142.2373   -6020.6249    2687.9902    15628.788    24.879064 
   24910     1084.718   -6141.3256   -6020.3236    3398.6756    15627.719    24.860594 
   24920    1068.1751   -6139.1302   -6019.9736    3449.2667    15628.557    24.842784 
   24930    1064.0027   -6138.2402   -6019.5491    2216.7629    15631.238    24.846255 
   24940    1095.7487   -6141.2641   -6019.0317    1089.1342    15635.139    24.871469 
   24950    1127.5099   -6144.2185    -6018.443     357.3423    15639.626    24.906776 
   24960    1149.4131   -6146.0982   -6017.8794   -236.84131    15644.249    24.925045 
   24970    1116.2233   -6141.9091   -6017.3927    167.63926    15648.724    24.904352 
   24980    1099.2877   -6139.5897   -6016.9625    548.04787    15653.218    24.855415 
   24990    1120.0949   -6141.4805   -6016.5322   -260.06453    15657.877    24.810116 
   25000    1122.1264   -6141.2831   -6016.1082    157.63226    15662.386    24.790718 
Loop time of 13252.7 on 16 procs for 20000 steps with 864 atoms

Performance: 0.130 ns/day, 184.065 hours/ns, 1.509 timesteps/s
93.5% CPU use with 16 MPI tasks x 1 OpenMP threads

MPI task timing breakdown:
Section |  min time  |  avg time  |  max time  |%varavg| %total
---------------------------------------------------------------
Pair    | 8696.6     | 11568      | 12822      |1062.4 | 87.29
Bond    | 0.0015113  | 0.0053836  | 0.015509   |   5.4 |  0.00
Neigh   | 0.27314    | 0.28723    | 0.29661    |   1.2 |  0.00
Comm    | 148.25     | 1415       | 4157.3     |2963.6 | 10.68
Output  | 1.1325     | 1.2775     | 1.6475     |   8.9 |  0.01
Modify  | 117.73     | 268.35     | 397.16     | 592.7 |  2.02
Other   |            | 0.09206    |            |       |  0.00

Nlocal:        54.0000 ave          54 max          54 min
Histogram: 16 0 0 0 0 0 0 0 0 0
Nghost:        511.375 ave         524 max         499 min
Histogram: 1 0 3 2 4 1 1 0 2 2
Neighs:         0.00000 ave           0 max           0 min
Histogram: 16 0 0 0 0 0 0 0 0 0
FullNghs:      3117.25 ave        3254 max        3006 min
Histogram: 1 0 4 2 2 4 1 0 1 1

Total # of neighbors = 49876
Ave neighs/atom = 57.726852
Ave special neighs/atom = 0.0000000
Neighbor list builds = 2000
Dangerous builds = 2000
unfix   3
                
Total wall time: 4:41:59
