LAMMPS (2 Aug 2023)
OMP_NUM_THREADS environment is not set. Defaulting to 1 thread. (src/comm.cpp:98)
  using 1 OpenMP thread(s) per MPI task
Reading restart file ...
  restart file = 2 Aug 2023, LAMMPS = 2 Aug 2023
  restoring atom style full from restart
  orthogonal box = (-0.38706367 -0.34859865 -23.970409) to (20.724042 20.685577 84.981345)
  1 by 1 by 1 MPI processor grid
  pair style chgnet/gpu stores no restart info
  1536 atoms
Finding 1-2 1-3 1-4 neighbors ...
  special bond factors lj:    0        0        0       
  special bond factors coul:  0        0        0       
     0 = max # of 1-2 neighbors
     0 = max # of 1-3 neighbors
     0 = max # of 1-4 neighbors
     1 = max # of special neighbors
  special bonds CPU = 0.003 seconds
  read_restart CPU = 0.083 seconds
Resetting peratom fix info from restart file:
  fix style: STORE/ATOM, fix ID: msd_COMPUTE_STORE
All restart file peratom fix info was re-assigned
Neighbor list info ...
  update: every = 1 steps, delay = 10 steps, check = yes
  max neighbors/atom: 2000, page size: 100000
  master list distance cutoff = 6.3
  ghost atom cutoff = 6.3
  binsize = 3.15, bins = 7 7 35
  1 neighbor lists, perpetual/occasional/extra = 1 0 0
  (1) pair chgnet/gpu, perpetual
      attributes: full, newton on
      pair build: full/bin
      stencil: full/bin/3d
      bin: standard
Setting up Verlet run ...
  Unit style    : metal
  Current step  : 20000
  Time step     : 0.001
Per MPI rank memory allocation (min/avg/max) = 6.575 | 6.575 | 6.575 Mbytes
   Step          Temp          PotEng         TotEng         Press          Volume        c_msd[4]   
     20000   1521.5156     -5661.2355     -5359.345      -7767.4118      48380.541      223.43501    
     20010   1539.1869     -5664.8119     -5359.4152     -7909.2369      48380.82       223.68597    
     20020   1530.8024     -5663.3328     -5359.5996     -7978.3565      48381.535      223.94995    
     20030   1522.4322     -5661.9723     -5359.8999     -7872.66        48382.571      224.22608    
     20040   1502.7695     -5658.4493     -5360.2783     -7566.7697      48384.128      224.51771    
     20050   1477.6718     -5653.8845     -5360.6933     -7575.591       48386.606      224.83232    
     20060   1494.2007     -5657.5646     -5361.0938     -8286.7751      48390.146      225.17371    
     20070   1491.3249     -5657.3969     -5361.4966     -8565.2575      48394.181      225.55322    
     20080   1468.5757     -5653.2755     -5361.8891     -7972.0898      48398.402      225.93123    
     20090   1484.9207     -5656.879      -5362.2495     -7684.4907      48403.216      226.28239    
     20100   1509.2543     -5662.0836     -5362.626      -8110.2916      48408.772      226.60356    
     20110   1507.2132     -5662.1433     -5363.0906     -8552.1975      48414.947      226.92257    
     20120   1532.3238     -5667.7412     -5363.7062     -8765.8668      48421.579      227.25531    
     20130   1528.041      -5667.7332     -5364.5479     -8400.3677      48428.742      227.61407    
     20140   1509.4995     -5665.1711     -5365.6648     -7935.708       48436.745      228.01042    
     20150   1502.5006     -5665.1224     -5367.0048     -7600.7039      48445.629      228.43841    
     20160   1486.0823     -5663.417      -5368.557      -7451.0972      48455.139      228.88539    
     20170   1484.5311     -5664.7998     -5370.2476     -7764.1322      48465.139      229.32927    
     20180   1503.438      -5670.3834     -5372.0798     -8535.6787      48475.685      229.74767    
     20190   1493.2532     -5670.2798     -5373.997      -8730.6503      48486.682      230.14858    
     20200   1495.4426     -5672.6353     -5375.918      -8738.1622      48498.072      230.56463    
     20210   1468.1617     -5668.9618     -5377.6575     -8377.6512      48509.624      230.9882     
     20220   1447.6804     -5666.3427     -5379.1021     -8202.0255      48520.978      231.44627    
     20230   1469.7508     -5671.9006     -5380.281      -8466.7259      48531.922      231.93743    
     20240   1455.7277     -5670.0271     -5381.1899     -8872.2105      48542.743      232.39435    
     20250   1443.1493     -5668.2052     -5381.8637     -9359.7047      48553.692      232.78629    
     20260   1459.3416     -5671.8779     -5382.3236     -10008.715      48564.492      233.15462    
     20270   1443.7573     -5669.0728     -5382.6106     -10071.212      48574.7        233.50303    
     20280   1431.4832     -5666.7865     -5382.7597     -9656.1643      48584.249      233.82145    
     20290   1418.295      -5664.1318     -5382.7218     -9188.8252      48593.205      234.14408    
     20300   1423.1996     -5664.8745     -5382.4913     -8850.3261      48601.508      234.46146    
     20310   1452.152      -5670.2483     -5382.1205     -8688.0089      48609.273      234.77315    
     20320   1454.3862     -5670.2607     -5381.6897     -8095.0173      48616.603      235.11273    
     20330   1444.4382     -5667.8071     -5381.2099     -7885.8129      48623.856      235.4708     
     20340   1446.4258     -5667.6409     -5380.6493     -8213.982       48631.492      235.82777    
     20350   1443.8704     -5666.5309     -5380.0463     -8338.7534      48639.909      236.18651    
     20360   1462.7129     -5669.5906     -5379.3674     -8809.7528      48649.273      236.57297    
     20370   1477.4409     -5671.793      -5378.6475     -9248.0018      48659.042      236.98827    
     20380   1456.6622     -5666.9846     -5377.962      -8984.9591      48668.645      237.41604    
     20390   1455.441      -5666.0526     -5377.2723     -8780.5054      48678.262      237.83646    
     20400   1448.2974     -5663.9128     -5376.5499     -8520.7389      48688.223      238.23347    
     20410   1462.0769     -5665.8896     -5375.7927     -8680.2749      48698.742      238.60661    
     20420   1455.5442     -5663.7909     -5374.9901     -8720.0809      48709.693      238.95207    
     20430   1461.9258     -5664.2838     -5374.2168     -8877.6161      48721.151      239.27073    
     20440   1471.1783     -5665.344      -5373.4411     -8600.0976      48733.38       239.55877    
     20450   1452.4441     -5660.8652     -5372.6795     -7907.6987      48746.573      239.83272    
     20460   1492.9793     -5668.1686     -5371.9401     -8224.5942      48760.946      240.12716    
     20470   1499.8555     -5668.8842     -5371.2913     -8688.9124      48776.014      240.46417    
     20480   1479.4855     -5664.3175     -5370.7664     -8987.219       48791.207      240.84462    
     20490   1479.1447     -5663.811      -5370.3275     -9343.4046      48806.423      241.28202    
     20500   1474.2791     -5662.4465     -5369.9284     -9725.4867      48821.619      241.75888    
     20510   1477.101      -5662.6849     -5369.6069     -9961.9476      48836.882      242.24557    
     20520   1467.9961     -5660.6213     -5369.3499     -9818.3936      48852.277      242.73385    
     20530   1425.8466     -5651.9956     -5369.0872     -9063.6117      48867.771      243.22476    
     20540   1442.5216     -5654.9894     -5368.7724     -8746.3058      48883.463      243.72888    
     20550   1455.2937     -5657.1028     -5368.3517     -8381.3938      48899.313      244.24086    
     20560   1465.5029     -5658.6954     -5367.9187     -7901.1821      48915.49       244.74079    
     20570   1484.2206     -5662.0034     -5367.5128     -7504.5551      48932.478      245.24228    
     20580   1477.8047     -5660.3976     -5367.18       -7265.8842      48951.09       245.73157    
     20590   1474.7444     -5659.5264     -5366.916      -7343.7179      48971.88       246.20259    
     20600   1494.533      -5663.2119     -5366.6752     -8119.0131      48994.221      246.67888    
     20610   1524.4494     -5669.046      -5366.5734     -8649.5541      49016.96       247.16137    
     20620   1474.809      -5659.2876     -5366.6644     -8109.4614      49039.767      247.66933    
     20630   1485.2786     -5661.6603     -5366.9597     -7978.0942      49063.219      248.22167    
     20640   1473.5931     -5659.7582     -5367.3762     -7672.6251      49087.487      248.79463    
     20650   1477.4065     -5661.1758     -5368.0372     -7746.0014      49112.877      249.39168    
     20660   1491.7828     -5664.9595     -5368.9684     -8409.6666      49139.407      250.00266    
     20670   1521.8403     -5672.3068     -5370.3518     -8943.1466      49166.358      250.60276    
     20680   1497.2093     -5669.3899     -5372.3221     -8533.0786      49193.126      251.21468    
     20690   1455.9021     -5663.6129     -5374.7411     -7954.1214      49219.709      251.87447    
     20700   1477.1441     -5670.4482     -5377.3617     -8095.1359      49246.369      252.58426    
     20710   1420.0437     -5661.6401     -5379.8831     -7539.3354      49273.339      253.32188    
     20720   1408.5023     -5661.4395     -5381.9724     -7794.3072      49301.362      254.07402    
     20730   1423.9584     -5666.1233     -5383.5895     -8830.0392      49330.845      254.83596    
     20740   1424.2503     -5667.4358     -5384.8441     -9186.286       49361.096      255.60603    
     20750   1419.7832     -5667.4666     -5385.7612     -9276.6095      49391.295      256.36125    
     20760   1419.1441     -5668.043      -5386.4645     -9463.8939      49420.827      257.07706    
     20770   1403.8749     -5665.5168     -5386.968      -9601.9299      49449.287      257.75398    
     20780   1405.7023     -5666.2148     -5387.3034     -9711.3259      49476.241      258.38717    
     20790   1385.8708     -5662.4323     -5387.4556     -9729.9586      49501.939      259.00466    
     20800   1417.0124     -5668.623      -5387.4675     -10254.753      49526.748      259.64706    
     20810   1428.433      -5670.7983     -5387.3768     -10319.75       49550.122      260.30243    
     20820   1384.8012     -5661.98       -5387.2156     -9496.3395      49571.639      260.93084    
     20830   1402.3719     -5665.1869     -5386.9362     -9015.9708      49592.176      261.51935    
     20840   1433.5465     -5670.95       -5386.5138     -8935.3512      49612.702      262.06396    
     20850   1437.9108     -5671.3846     -5386.0825     -9023.4653      49633.222      262.53972    
     20860   1416.2981     -5666.6481     -5385.6342     -8904.8662      49653.402      262.95568    
     20870   1411.9571     -5665.2634     -5385.1109     -9128.5809      49673.065      263.34248    
     20880   1427.262      -5667.7203     -5384.5311     -9505.0923      49692.019      263.73232    
     20890   1413.0117     -5664.2384     -5383.8767     -9704.2625      49709.972      264.11098    
     20900   1404.6804     -5661.8628     -5383.1541     -9646.8455      49726.723      264.50626    
     20910   1390.8779     -5658.3014     -5382.3313     -9356.5748      49742.557      264.92776    
     20920   1403.1849     -5659.7963     -5381.3843     -9389.2372      49758.012      265.38961    
     20930   1404.3996     -5658.9543     -5380.3014     -9623.5112      49773.057      265.88817    
     20940   1394.5631     -5655.8225     -5379.1212     -9560.9479      49787.494      266.38552    
     20950   1408.5541     -5657.3291     -5377.8518     -9413.1959      49801.166      266.84056    
     20960   1425.9832     -5659.4985     -5376.5631     -9081.9293      49814.079      267.2567     
     20970   1446.4567     -5662.2953     -5375.2976     -8853.7412      49826.582      267.66451    
     20980   1474.5071     -5666.7349     -5374.1715     -8952.386       49838.931      268.07866    
     20990   1489.5894     -5668.8516     -5373.2957     -8931.9569      49850.915      268.50094    
     21000   1459.0757     -5662.1605     -5372.659      -8548.0793      49862.418      268.94616    
     21010   1441.3607     -5658.2168     -5372.2302     -8443.6215      49873.895      269.41867    
     21020   1446.3715     -5658.8958     -5371.9149     -8776.0101      49885.783      269.87445    
     21030   1443.3464     -5658.0652     -5371.6846     -9199.6105      49897.879      270.28254    
     21040   1432.3275     -5655.7123     -5371.518      -9679.6468      49909.511      270.66997    
     21050   1438.9149     -5656.9142     -5371.4129     -9789.8077      49920.164      271.03831    
     21060   1434.1836     -5655.9298     -5371.3672     -8848.7758      49930.165      271.35923    
     21070   1443.9606     -5657.8781     -5371.3756     -7900.5739      49940.337      271.65567    
     21080   1479.0014     -5664.9613     -5371.5062     -8028.0385      49951.243      271.98691    
     21090   1460.9947     -5661.6998     -5371.8176     -8390.8043      49962.913      272.36366    
     21100   1478.1641     -5665.63       -5372.3411     -9039.2866      49975.069      272.74167    
     21110   1416.5073     -5654.061      -5373.0057     -8415.3363      49987.024      273.12708    
     21120   1394.8952     -5650.4905     -5373.7233     -7986.1641      49999          273.55364    
     21130   1396.8018     -5651.4924     -5374.347      -7927.0488      50011.277      274.02861    
     21140   1407.3392     -5654.1757     -5374.9394     -8243.3929      50023.857      274.51507    
     21150   1399.7554     -5653.2422     -5375.5107     -8630.3302      50036.548      274.97595    
     21160   1416.8614     -5657.2266     -5376.101      -9096.1721      50049.367      275.43313    
     21170   1419.8735     -5658.4142     -5376.691      -9192.1759      50062.189      275.8914     
     21180   1425.2612     -5660.1665     -5377.3743     -9394.2212      50074.355      276.33316    
     21190   1406.6808     -5657.2094     -5378.1037     -9378.2913      50085.119      276.70734    
     21200   1419.894      -5660.6678     -5378.9405     -9381.4696      50094.417      277.01444    
     21210   1403.9134     -5658.4094     -5379.8529     -8871.4323      50102.98       277.30658    
     21220   1420.8297     -5662.819      -5380.906      -8794.4363      50111.847      277.63918    
     21230   1417.862      -5663.4009     -5382.0768     -8568.4928      50120.887      277.97979    
     21240   1398.6691     -5660.8945     -5383.3785     -7869.9383      50129.576      278.26399    
     21250   1392.246      -5661.0315     -5384.79       -7491.9439      50138.317      278.49772    
     21260   1407.9009     -5665.6219     -5386.2743     -7686.6957      50147.739      278.7348     
     21270   1411.7547     -5667.9884     -5387.876      -7956.1921      50158.045      279.00625    
     21280   1401.7357     -5667.6489     -5389.5245     -8444.8676      50169.174      279.34303    
     21290   1398.3345     -5668.5872     -5391.1376     -9177.198       50180.46       279.72306    
     21300   1375.2183     -5665.4802     -5392.6172     -9456.2022      50190.965      280.06331    
     21310   1375.6635     -5666.8169     -5393.8656     -9824.4771      50200.364      280.31283    
     21320   1391.1985     -5670.9236     -5394.8899     -10241.461      50208.61       280.48408    
     21330   1376.3483     -5668.7981     -5395.7109     -10053.859      50215.498      280.63379    
     21340   1350.3731     -5664.2095     -5396.2761     -9810.877       50220.757      280.7903     
     21350   1360.2983     -5666.5151     -5396.6125     -10127.648      50223.942      280.94862    
     21360   1360.7075     -5666.7063     -5396.7224     -10349.135      50224.741      281.09999    
     21370   1365.9266     -5667.7493     -5396.7299     -10375.621      50223.369      281.24206    
     21380   1352.7054     -5665.0254     -5396.6293     -9801.765       50220.262      281.36899    
     21390   1332.6663     -5660.8176     -5396.3975     -9137.0042      50215.992      281.49249    
     21400   1343.0447     -5662.5007     -5396.0214     -9070.9905      50210.961      281.63539    
     21410   1369.9355     -5667.353      -5395.5382     -9491.8699      50205.276      281.80667    
     21420   1390.673      -5670.9518     -5395.0223     -9939.3122      50198.468      281.96377    
     21430   1373.2807     -5667.0267     -5394.5482     -9721.2323      50189.939      282.06464    
     21440   1359.4191     -5663.777      -5394.0488     -9472.1623      50179.894      282.13062    
     21450   1353.4173     -5662.0082     -5393.4708     -9207.7266      50169.171      282.21648    
     21460   1371.0014     -5664.8445     -5392.8182     -9107.661       50158.488      282.30778    
     21470   1394.4848     -5668.8076     -5392.1219     -9210.121       50147.799      282.37575    
     21480   1403.4166     -5669.9271     -5391.4692     -9088.596       50136.775      282.42515    
     21490   1395.7107     -5667.8218     -5390.8928     -8818.3384      50125.553      282.42979    
     21500   1360.4188     -5660.2654     -5390.3388     -8524.3055      50114.424      282.40245    
     21510   1414.2659     -5670.4047     -5389.7941     -9099.2936      50103.132      282.36855    
     21520   1418.2774     -5670.6826     -5389.2761     -9194.1937      50091.191      282.2861     
     21530   1405.4254     -5667.7445     -5388.888      -8784.2325      50079.01       282.12258    
     21540   1433.8096     -5673.078      -5388.5896     -9029.842       50067.107      281.9195     
     21550   1428.8346     -5671.9413     -5388.44       -9189.2749      50055.465      281.74454    
     21560   1416.4784     -5669.5063     -5388.4567     -9207.432       50044.153      281.59949    
     21570   1411.4285     -5668.667      -5388.6194     -9505.0015      50033.136      281.48133    
     21580   1388.5223     -5664.3461     -5388.8434     -9474.5169      50022.054      281.40407    
     21590   1428.8564     -5672.6884     -5389.1828     -9974.0509      50010.972      281.34483    
     21600   1404.7768     -5668.3828     -5389.655      -9596.4156      49999.925      281.26383    
     21610   1377.6694     -5663.6125     -5390.2632     -9047.0454      49988.966      281.21852    
     21620   1358.1009     -5660.3361     -5390.8694     -8831.5441      49977.83       281.18868    
     21630   1373.2279     -5663.955      -5391.4869     -9136.6229      49966.126      281.05264    
     21640   1343.2573     -5658.568      -5392.0465     -8978.4954      49953.657      280.79345    
     21650   1355.5105     -5661.5354     -5392.5827     -8903.4864      49940.732      280.49706    
     21660   1383.4143     -5667.5801     -5393.0909     -9295.6113      49927.563      280.25134    
     21670   1381.3791     -5667.7441     -5393.6587     -9466.5341      49914.229      280.07471    
     21680   1381.3163     -5668.4026     -5394.3296     -9608.9793      49901.014      279.91381    
     21690   1386.0744     -5670.0992     -5395.0822     -9874.3711      49887.898      279.74297    
     21700   1389.7785     -5671.7249     -5395.9729     -10067.845      49874.339      279.58436    
     21710   1385.5266     -5671.9329     -5397.0245     -10052.179      49860.15       279.47125    
     21720   1383.6517     -5672.7997     -5398.2634     -10067.188      49845.653      279.41035    
     21730   1322.3879     -5661.9221     -5399.5414     -9544.1192      49830.752      279.34466    
     21740   1333.7196     -5665.4139     -5400.7849     -9553.0959      49815.314      279.21429    
     21750   1349.4768     -5669.7158     -5401.9603     -9758.2513      49799.427      279.04677    
     21760   1349.2663     -5670.8276     -5403.1139     -9685.774       49782.956      278.8802     
     21770   1346.8997     -5671.4839     -5404.2397     -9323.9996      49765.849      278.73446    
     21780   1341.9271     -5671.5227     -5405.2652     -8911.671       49748.502      278.61657    
     21790   1356.0885     -5675.2969     -5406.2295     -9096.8083      49731.435      278.5547     
     21800   1336.5704     -5672.2939     -5407.0992     -9334.0662      49714.661      278.57307    
     21810   1321.2482     -5670.0143     -5407.8597     -9831.9003      49697.965      278.60604    
     21820   1321.8231     -5670.7277     -5408.459      -10376.463      49681.258      278.59296    
     21830   1308.1647     -5668.448      -5408.8894     -10384.02       49664.21       278.50466    
     21840   1323.301      -5671.7271     -5409.1652     -10189.054      49646.565      278.35531    
     21850   1323.7279     -5671.9373     -5409.2907     -9520.1312      49628.188      278.17992    
     21860   1312.1548     -5669.6221     -5409.2718     -9157.8848      49609.439      278          
     21870   1330.2177     -5673.0275     -5409.0932     -9417.1323      49590.771      277.82102    
     21880   1324.2844     -5671.5513     -5408.7943     -9451.4974      49572.574      277.6235     
     21890   1332.3111     -5672.7319     -5408.3823     -9764.4536      49554.855      277.39568    
     21900   1357.5892     -5677.2686     -5407.9034     -10210.526      49536.819      277.15205    
     21910   1334.4696     -5672.1171     -5407.3392     -10177.902      49517.764      276.90365    
     21920   1333.3241     -5671.2905     -5406.7399     -10364.522      49497.801      276.65451    
     21930   1329.4617     -5669.7913     -5406.007      -10512.917      49477.151      276.39808    
     21940   1328.3269     -5668.6882     -5405.1291     -10468.025      49455.584      276.11902    
     21950   1353.3936     -5672.6301     -5404.0975     -10074.524      49432.632      275.80553    
     21960   1372.2012     -5675.2075     -5402.9431     -9738.5642      49408.561      275.47434    
     21970   1372.8825     -5674.1309     -5401.7313     -9533.9005      49384.121      275.14529    
     21980   1369.6409     -5672.2185     -5400.4621     -9224.2166      49359.631      274.81621    
     21990   1384.5657     -5673.8767     -5399.159      -8831.6503      49335.243      274.48477    
     22000   1361.7352     -5667.9972     -5397.8094     -8159.6473      49311.06       274.16634    
     22010   1391.4957     -5672.551      -5396.4583     -8543.6192      49287.517      273.91461    
     22020   1395.5719     -5672.0167     -5395.1153     -9304.7484      49264.402      273.74559    
     22030   1386.1937     -5668.9069     -5393.8662     -9502.022       49241.071      273.59468    
     22040   1406.5669     -5671.7933     -5392.7103     -9494.0413      49217.261      273.40156    
     22050   1401.2254     -5669.6968     -5391.6736     -9034.6272      49192.885      273.14822    
     22060   1401.1016     -5668.7754     -5390.7768     -8896.8096      49168.127      272.87903    
     22070   1379.5706     -5663.7015     -5389.975      -8508.2505      49143.459      272.62589    
     22080   1396.7919     -5666.4192     -5389.2757     -8625.4847      49119.091      272.35509    
     22090   1401.0839     -5666.6224     -5388.6273     -8368.8045      49095.09       272.0208     
     22100   1400.5791     -5665.9856     -5388.0906     -7911.0615      49071.675      271.64616    
     22110   1416.9715     -5668.7659     -5387.6184     -7858.692       49048.99       271.27112    
     22120   1442.8867     -5673.6039     -5387.3145     -8388.2692      49026.842      270.92123    
     22130   1422.0754     -5669.4738     -5387.3136     -8463.4384      49004.795      270.60842    
     22140   1416.9985     -5668.879      -5387.7262     -8592.5385      48982.688      270.32108    
     22150   1439.7284     -5674.3059     -5388.6432     -8978.0598      48960.722      270.03826    
     22160   1426.0893     -5673.174      -5390.2174     -8797.4519      48939.4        269.76441    
     22170   1386.1317     -5667.3578     -5392.3294     -8160.0171      48919.086      269.4986     
     22180   1393.9406     -5671.3513     -5394.7735     -8274.5869      48899.624      269.23312    
     22190   1407.8578     -5676.6929     -5397.3537     -8627.2887      48880.452      268.963      
     22200   1394.2094     -5676.4856     -5399.8545     -8988.3971      48861.362      268.68472    
     22210   1380.3764     -5676.0066     -5402.1201     -9574.7048      48842.538      268.42459    
     22220   1352.2123     -5672.3796     -5404.0813     -10007.88       48823.605      268.19139    
     22230   1344.0937     -5672.4188     -5405.7314     -10028.67       48804.219      267.95438    
     22240   1334.6413     -5671.9468     -5407.1348     -9772.86        48784.713      267.7301     
     22250   1350.9385     -5676.4098     -5408.3642     -9615.4801      48765.777      267.54864    
     22260   1348.5156     -5677.0994     -5409.5346     -9479.195       48747.792      267.40365    
     22270   1331.9395     -5674.9248     -5410.6489     -9497.3832      48730.544      267.28349    
     22280   1312.7047     -5672.1489     -5411.6895     -9489.7877      48713.597      267.18393    
     22290   1334.0252     -5677.3173     -5412.6276     -9833.6983      48696.367      267.07581    
     22300   1348.9545     -5681.2397     -5413.5879     -9859.5024      48678.445      266.93547    
     22310   1325.4234     -5677.5282     -5414.5452     -9278.3445      48659.769      266.80341    
     22320   1305.485      -5674.4718     -5415.4449     -8817.9666      48640.761      266.68152    
     22330   1309.4035     -5676.0645     -5416.26       -9044.5095      48621.982      266.53473    
     22340   1297.2505     -5674.3777     -5416.9846     -9290.2436      48603.525      266.3992     
     22350   1288.4694     -5673.2699     -5417.6191     -9424.6703      48585.184      266.26145    
     22360   1276.672      -5671.4202     -5418.1102     -9545.7507      48566.797      266.06127    
     22370   1274.5168     -5671.3169     -5418.4345     -9598.3567      48548.38       265.79874    
     22380   1297.6493     -5676.0927     -5418.6204     -9651.6035      48530.207      265.54359    
     22390   1308.9056     -5678.4188     -5418.7132     -9536.6512      48512.525      265.33527    
     22400   1310.3041     -5678.7323     -5418.7492     -9432.6899      48495.32       265.18011    
     22410   1340.173      -5684.7023     -5418.7927     -9765.7743      48478.484      265.04585    
     22420   1337.2981     -5684.22       -5418.8809     -9650.4275      48461.925      264.91938    
     22430   1331.2574     -5683.1968     -5419.0562     -9549.3145      48445.547      264.80943    
     22440   1307.7226     -5678.7338     -5419.2629     -9235.9033      48428.913      264.6855     
     22450   1312.4193     -5679.8983     -5419.4955     -9216.4545      48411.768      264.51099    
     22460   1295.3058     -5676.6724     -5419.6651     -9078.831       48393.959      264.31918    
     22470   1294.5509     -5676.6306     -5419.7732     -8837.735       48375.743      264.18268    
     22480   1307.3745     -5679.2296     -5419.8278     -8806.7998      48357.586      264.08719    
     22490   1304.4549     -5678.6682     -5419.8457     -8682.2093      48339.702      263.94379    
     22500   1285.1069     -5674.819      -5419.8353     -8344.0748      48322.044      263.71764    
     22510   1305.7718     -5678.8601     -5419.7763     -8526.5239      48304.4        263.42183    
     22520   1311.1327     -5679.7896     -5419.642      -8602.8054      48286.413      263.06052    
     22530   1341.2877     -5685.6775     -5419.5468     -9046.2199      48267.95       262.62143    
     22540   1343.3408     -5686.0631     -5419.5251     -9050.4479      48249.091      262.12271    
     22550   1356.1383     -5688.7061     -5419.6288     -8941.3408      48230.488      261.63945    
     22560   1381.3796     -5694.0212     -5419.9357     -8987.3379      48212.667      261.23182    
     22570   1372.0501     -5692.7329     -5420.4985     -8769.4507      48195.545      260.89496    
     22580   1355.468      -5690.2767     -5421.3325     -8564.3852      48179.057      260.6055     
     22590   1360.4741     -5692.333      -5422.3955     -8863.8171      48163.289      260.37006    
     22600   1352.8925     -5692.1027     -5423.6694     -9407.268       48147.927      260.19447    
     22610   1325.2904     -5688.045      -5425.0884     -9713.2752      48132.302      260.03055    
     22620   1326.2835     -5689.7168     -5426.5632     -9934.1958      48116.253      259.83083    
     22630   1304.317      -5686.7739     -5427.9788     -9415.4811      48100.013      259.58306    
     22640   1304.4099     -5688.111      -5429.2974     -8760.9213      48083.793      259.30034    
     22650   1307.9063     -5689.9904     -5430.483      -8376.7528      48067.887      259.01049    
     22660   1290.9024     -5687.7015     -5431.568      -8396.6878      48052.242      258.7303     
     22670   1295.1179     -5689.4894     -5432.5194     -9267.482       48035.992      258.45606    
     22680   1281.6756     -5687.6396     -5433.3369     -9961.7633      48018.441      258.16198    
     22690   1274.2103     -5686.8475     -5434.026      -10230.114      47999.686      257.85304    
     22700   1243.7569     -5681.3331     -5434.5539     -10262.2        47979.88       257.54955    
     22710   1255.076      -5683.9036     -5434.8785     -10736.5        47959.128      257.27902    
     22720   1263.8207     -5685.7936     -5435.0334     -10927.433      47937.137      257.03412    
     22730   1289.8959     -5691.0593     -5435.1255     -10762.479      47913.501      256.78838    
     22740   1303.9957     -5693.9125     -5435.1811     -10222.897      47888.222      256.51402    
     22750   1303.5018     -5693.8821     -5435.2487     -9538.9115      47861.909      256.21681    
     22760   1292.214      -5691.7141     -5435.3204     -9095.4177      47835.388      255.88012    
     22770   1303.7025     -5694.0879     -5435.4146     -9102.8347      47809.304      255.5091     
     22780   1299.8511     -5693.4617     -5435.5526     -8922.6958      47783.412      255.12205    
     22790   1260.534      -5685.7734     -5435.6654     -8701.7476      47757.33       254.7087     
     22800   1270.1807     -5687.7631     -5435.741      -9183.5482      47730.984      254.29454    
     22810   1273.2183     -5688.3417     -5435.7169     -9723.7958      47704.074      253.89969    
     22820   1288.0973     -5691.2472     -5435.6702     -10027.41       47676.47       253.50531    
     22830   1271.668      -5687.8883     -5435.5712     -9677.2712      47648.508      253.1095     
     22840   1266.6311     -5686.7172     -5435.3994     -9310.4615      47620.746      252.74366    
     22850   1293.0887     -5691.7386     -5435.1713     -9078.2567      47593.544      252.39167    
     22860   1283.0989     -5689.4886     -5434.9035     -8755.0016      47566.967      252.05057    
     22870   1283.1596     -5689.2228     -5434.6255     -8874.6683      47540.907      251.7676     
     22880   1324.1067     -5697.0659     -5434.3442     -9717.2275      47514.976      251.54526    
     22890   1295.9892     -5691.2593     -5434.1165     -9554.4314      47489.013      251.34817    
     22900   1258.689      -5683.6337     -5433.8917     -8918.1378      47463.742      251.16634    
     22910   1290.0681     -5689.5645     -5433.5965     -9313.1057      47439.7        251.01815    
     22920   1310.5829     -5693.3188     -5433.2804     -9900.5253      47416.28       250.88959    
     22930   1303.4257     -5691.6328     -5433.0145     -9697.2897      47393.053      250.76788    
     22940   1315.6695     -5693.8601     -5432.8124     -9348.1461      47370.24       250.66098    
     22950   1331.1408     -5696.8282     -5432.7108     -9195.0794      47347.936      250.54528    
     22960   1360.1067     -5702.6733     -5432.8087     -9526.124       47325.984      250.38416    
     22970   1358.5969     -5702.8132     -5433.2482     -9306.1579      47304.035      250.21266    
     22980   1317.0018     -5695.3411     -5434.029      -8600.0504      47282.153      250.06306    
     22990   1310.819      -5695.188      -5435.1027     -8686.7935      47260.508      249.91696    
     23000   1308.598      -5696.0742     -5436.4296     -9224.2484      47238.933      249.71559    
     23010   1294.0639     -5694.717      -5437.9562     -9762.3154      47217.383      249.44052    
     23020   1298.3995     -5697.2278     -5439.6067     -10322.73       47195.839      249.17788    
     23030   1294.7401     -5698.1909     -5441.2959     -10295.242      47174.093      248.97493    
     23040   1287.1314     -5698.3535     -5442.9682     -9872.3455      47152.18       248.80198    
     23050   1258.843      -5694.2417     -5444.4692     -9042.3357      47130.34       248.58801    
     23060   1256.2232     -5694.9496     -5445.6969     -8663.7731      47108.982      248.32842    
     23070   1277.065      -5700.1326     -5446.7446     -8619.5656      47088.204      248.06481    
     23080   1271.3129     -5699.8865     -5447.6398     -8680.136       47067.905      247.82383    
     23090   1278.7469     -5702.1731     -5448.4514     -9222.5562      47048.022      247.61428    
     23100   1274.4222     -5702.0493     -5449.1857     -9965.1074      47028.316      247.44567    
     23110   1284.0702     -5704.6783     -5449.9004     -10470.546      47008.231      247.3136     
     23120   1241.8142     -5696.9517     -5450.5579     -10121.894      46987.357      247.20334    
     23130   1227.5039     -5694.6226     -5451.0682     -9705.6298      46966.01       247.09096    
     23140   1246.7237     -5698.8245     -5451.4566     -9424.9941      46944.591      246.95614    
     23150   1242.6963     -5698.2814     -5451.7126     -9009.3314      46923.171      246.76176    
     23160   1282.2154     -5706.3446     -5451.9347     -9349.3566      46901.979      246.4904     
     23170   1276.6203     -5705.4877     -5452.1879     -9377.9278      46881.12       246.19548    
     23180   1282.8686     -5707.0276     -5452.4881     -9290.6418      46860.663      245.93703    
     23190   1318.0731     -5714.4133     -5452.8887     -9386.9983      46840.554      245.72405    
     23200   1304.6106     -5712.3435     -5453.4901     -8982.2601      46820.776      245.57519    
     23210   1256.6473     -5703.5354     -5454.1986     -8528.4306      46801.524      245.49755    
     23220   1252.5831     -5703.446      -5454.9156     -8902.9754      46782.979      245.45715    
     23230   1266.7918     -5706.9613     -5455.6117     -9544.6726      46765.115      245.4255     
     23240   1251.108      -5704.5652     -5456.3274     -9441.5031      46747.563      245.38575    
     23250   1236.4466     -5702.3342     -5457.0055     -8796.822       46730.412      245.32579    
     23260   1218.7258     -5699.3976     -5457.5849     -8264.4559      46713.905      245.23646    
     23270   1221.0668     -5700.3351     -5458.0579     -8282.1601      46697.784      245.14893    
     23280   1243.5464     -5705.1833     -5458.4459     -8853.903       46681.738      245.1167     
     23290   1249.0037     -5706.5878     -5458.7675     -9546.5281      46665.664      245.13185    
     23300   1234.183      -5703.9701     -5459.0905     -10013.05       46649.353      245.12606    
     23310   1208.7352     -5699.1731     -5459.3427     -10294.816      46632.415      245.07031    
     23320   1223.8968     -5702.3192     -5459.4806     -10419.732      46614.612      244.97035    
     23330   1245.3423     -5706.6482     -5459.5545     -10215.377      46595.856      244.8415     
     23340   1236.8578     -5704.9874     -5459.5771     -9624.5483      46576.465      244.67743    
     23350   1232.7716     -5704.1276     -5459.528      -9454.5524      46557.07       244.52345    
     23360   1228.7561     -5703.2373     -5459.4345     -9442.8411      46537.886      244.40081    
     23370   1200.6225     -5697.4702     -5459.2495     -9140.1719      46518.603      244.27886    
     23380   1212.3226     -5699.4514     -5458.9092     -9446.8685      46498.931      244.13258    
     23390   1226.9257     -5701.8322     -5458.3925     -9843.2568      46478.635      243.95665    
     23400   1236.6089     -5703.0754     -5457.7145     -10172.4        46457.578      243.73089    
     23410   1237.9763     -5702.5254     -5456.8932     -10000.073      46435.846      243.48067    
     23420   1241.3297     -5702.2295     -5455.9319     -9504.3298      46413.849      243.2504     
     23430   1255.2335     -5703.8749     -5454.8186     -9309.6038      46391.714      243.01362    
     23440   1264.1749     -5704.422      -5453.5916     -8880.8351      46369.171      242.75445    
     23450   1237.5948     -5697.8837     -5452.3271     -7948.9419      46346.347      242.50596    
     23460   1247.5409     -5698.5344     -5451.0044     -8030.8944      46323.954      242.26749    
     23470   1231.6056     -5694.0095     -5449.6413     -8067.7564      46302.267      242.03974    
     23480   1238.3791     -5694.0125     -5448.3003     -7877.3102      46281.3        241.82777    
     23490   1276.325      -5700.2505     -5447.0093     -7955.6218      46260.864      241.61638    
     23500   1306.387      -5705.1105     -5445.9046     -8253.9912      46240.682      241.39978    
     23510   1303.3098     -5703.7233     -5445.1279     -8184.6104      46220.782      241.21796    
     23520   1296.7937     -5701.9592     -5444.6568     -8158.862       46201.535      241.07641    
     23530   1321.6601     -5706.7181     -5444.4819     -8467.9453      46183.153      240.96954    
     23540   1310.0334     -5704.5238     -5444.5944     -8378.0768      46165.542      240.88775    
     23550   1318.8967     -5706.6775     -5444.9895     -8742.448       46148.885      240.81431    
     23560   1307.815      -5705.1262     -5445.637      -9015.2617      46132.995      240.77663    
     23570   1307.4077     -5705.9139     -5446.5055     -9269.8128      46117.312      240.78972    
     23580   1286.4298     -5702.7448     -5447.4987     -9266.3796      46101.492      240.82083    
     23590   1278.1424     -5702.1595     -5448.5578     -8942.4077      46085.572      240.81102    
     23600   1245.1375     -5696.6539     -5449.6008     -8262.8775      46069.769      240.73196    
     23610   1239.5793     -5696.443      -5450.4927     -8435.0973      46054.391      240.58651    
     23620   1262.5333     -5701.8164     -5451.3117     -9146.796       46039.565      240.43099    
     23630   1245.5007     -5699.2072     -5452.082      -9070.6197      46024.899      240.30329    
     23640   1249.085      -5700.6262     -5452.7899     -9137.1318      46010.23       240.17259    
     23650   1285.476      -5708.5635     -5453.5066     -9288.5628      45995.532      240.03475    
     23660   1270.785      -5706.431      -5454.2891     -8267.8288      45980.694      239.90767    
     23670   1270.1695     -5707.1298     -5455.1099     -7690.3966      45966.117      239.7884     
     23680   1286.0807     -5711.1877     -5456.0109     -7930.3052      45952.213      239.68994    
     23690   1270.3929     -5709.0623     -5456.9981     -8152.7638      45938.931      239.62178    
     23700   1251.5338     -5706.3545     -5458.0323     -8526.0508      45926.166      239.61696    
     23710   1236.3722     -5704.3531     -5459.0392     -9076.4235      45913.594      239.69323    
     23720   1199.1068     -5697.8613     -5459.9414     -9438.9205      45900.876      239.78636    
     23730   1214.7644     -5701.7201     -5460.6934     -10205.681      45887.924      239.83996    
     23740   1249.3626     -5709.301      -5461.4096     -10644.806      45874.478      239.84373    
     23750   1227.9552     -5705.774      -5462.1301     -9889.2987      45860.396      239.81246    
     23760   1218.8191     -5704.6545     -5462.8234     -9056.1309      45845.764      239.73473    
     23770   1254.7371     -5712.4816     -5463.5238     -8889.9967      45830.819      239.62879    
     23780   1257.3671     -5713.756      -5464.2763     -8957.199       45815.839      239.52371    
     23790   1269.011      -5716.9607     -5465.1707     -9258.4035      45800.826      239.3947     
     23800   1284.6301     -5721.1062     -5466.2172     -9686.0749      45785.512      239.25456    
     23810   1260.5408     -5717.5049     -5467.3955     -9149.4224      45769.775      239.11557    
     23820   1253.2174     -5717.3009     -5468.6446     -8378.3346      45754          238.98932    
     23830   1259.3672     -5719.8014     -5469.9249     -7921.4896      45738.734      238.88473    
     23840   1246.9199     -5718.6215     -5471.2147     -7583.3996      45724.46       238.79042    
     23850   1233.4073     -5717.1614     -5472.4357     -7456.5805      45711.574      238.71797    
     23860   1225.5876     -5716.7329     -5473.5588     -7564.7334      45699.999      238.67203    
     23870   1213.1141     -5715.2798     -5474.5806     -7717.9565      45689.344      238.63276    
     23880   1217.8759     -5717.1189     -5475.4749     -8078.3596      45678.996      238.6136     
     23890   1220.4855     -5718.4585     -5476.2967     -8699.4219      45668.481      238.63986    
     23900   1202.932      -5715.7441     -5477.0652     -9133.6922      45657.553      238.7281     
     23910   1194.9175     -5714.8195     -5477.7307     -9324.4871      45646.196      238.85476    
     23920   1200.2149     -5716.4491     -5478.3093     -9629.6712      45634.304      238.96746    
     23930   1193.6514     -5715.6592     -5478.8216     -9724.6033      45621.669      239.02053    
     23940   1208.0912     -5718.988      -5479.2854     -9957.5542      45608.543      238.99494    
     23950   1191.0704     -5716.0192     -5479.6937     -9704.6921      45595.292      238.93999    
     23960   1179.788      -5714.1288     -5480.0419     -9542.3511      45582.27       238.88185    
     23970   1201.3996     -5718.6987     -5480.3238     -9847.6225      45569.466      238.81513    
     23980   1215.0081     -5721.6669     -5480.5919     -10081.425      45556.62       238.7192     
     23990   1223.8254     -5723.7469     -5480.9225     -10237.136      45543.586      238.60803    
     24000   1206.3933     -5720.699      -5481.3333     -10145.69       45530.394      238.50585    
     24010   1197.2024     -5719.3085     -5481.7664     -10259.353      45517.139      238.41371    
     24020   1177.8733     -5715.8826     -5482.1756     -10215.129      45503.849      238.32695    
     24030   1176.2436     -5715.9196     -5482.536      -10323.597      45490.615      238.24408    
     24040   1173.0014     -5715.5625     -5482.8222     -10262.877      45477.284      238.1749     
     24050   1180.4645     -5717.2632     -5483.0421     -10145.128      45463.751      238.10314    
     24060   1202.5286     -5721.8123     -5483.2134     -10200.674      45449.869      237.98024    
     24070   1224.042      -5726.2939     -5483.4265     -9849.7746      45435.555      237.8094     
     24080   1222.4224     -5726.291      -5483.7449     -9043.2011      45421.141      237.6576     
     24090   1216.9889     -5725.6454     -5484.1774     -8544.4189      45407.15       237.55907    
     24100   1212.367      -5725.2766     -5484.7256     -8515.8243      45393.787      237.513      
     24110   1194.8459     -5722.4396     -5485.365      -8642.3105      45380.959      237.48498    
     24120   1164.4891     -5717.0837     -5486.0324     -8830.1378      45368.481      237.4574     
     24130   1156.0404     -5716.0356     -5486.6607     -9107.396       45356.359      237.43257    
     24140   1139.2672     -5713.2382     -5487.1912     -9251.5221      45344.469      237.42299    
     24150   1119.8537     -5709.7775     -5487.5825     -9302.6505      45332.613      237.43575    
     24160   1111.3247     -5708.2581     -5487.7553     -9787.2666      45320.998      237.5045     
     24170   1136.8954     -5713.2755     -5487.6992     -10754.387      45309.822      237.6085     
     24180   1178.4082     -5721.2842     -5487.4711     -11238.106      45298.654      237.68088    
     24190   1174.4007     -5720.1764     -5487.1585     -10551.412      45287.013      237.69853    
     24200   1177.6611     -5720.4346     -5486.7698     -9689.7723      45275.016      237.6659     
     24210   1192.3407     -5722.8717     -5486.2942     -9125.5814      45263.086      237.61248    
     24220   1188.6405     -5721.605      -5485.7617     -8623.9411      45251.75       237.59897    
     24230   1212.104      -5725.6809     -5485.1821     -8853.249       45241.202      237.62172    
     24240   1213.0053     -5725.2832     -5484.6056     -9291.4663      45230.986      237.64153    
     24250   1197.6461     -5721.7028     -5484.0726     -9558.8527      45220.648      237.63724    
     24260   1200.0073     -5721.6376     -5483.5389     -9629.4898      45210.12       237.61006    
     24270   1204.8767     -5722.0558     -5482.991      -9530.5977      45199.582      237.58709    
     24280   1188.8489     -5718.3223     -5482.4376     -9151.9871      45189.004      237.59523    
     24290   1189.6874     -5717.9169     -5481.8658     -8963.7673      45178.549      237.64626    
     24300   1215.3231     -5722.4077     -5481.2702     -9255.2255      45168.548      237.72255    
     24310   1221.3125     -5723.0387     -5480.7128     -9277.8582      45159.109      237.78744    
     24320   1206.5233     -5719.6249     -5480.2334     -9080.1472      45150.403      237.82799    
     24330   1206.1037     -5719.1565     -5479.8482     -9076.3663      45142.408      237.87667    
     24340   1209.5235     -5719.5172     -5479.5304     -9179.5568      45134.812      237.9884     
     24350   1196.6827     -5716.7329     -5479.2939     -8915.4728      45127.377      238.15376    
     24360   1186.1081     -5714.4646     -5479.1238     -8457.6627      45120.347      238.2936     
     24370   1166.1216     -5710.3385     -5478.9633     -8145.3257      45114.071      238.37389    
     24380   1161.1159     -5709.1721     -5478.7901     -8242.5712      45108.547      238.443      
     24390   1173.7774     -5711.4536     -5478.5594     -8754.8632      45103.426      238.48511    
     24400   1197.3644     -5715.8906     -5478.3164     -9323.2699      45098.233      238.43695    
     24410   1212.7335     -5718.7478     -5478.1241     -9776.5397      45092.989      238.34356    
     24420   1207.3721     -5717.6466     -5478.0867     -9779.2931      45087.923      238.2711     
     24430   1177.9675     -5711.8942     -5478.1685     -9299.7921      45083.197      238.23345    
     24440   1186.0974     -5713.6549     -5478.3162     -9167.8651      45078.966      238.22022    
     24450   1214.6675     -5719.5941     -5478.5867     -9293.7329      45075.14       238.23934    
     24460   1200.5362     -5717.239      -5479.0354     -8947.8683      45071.29       238.2716     
     24470   1191.1059     -5715.9807     -5479.6482     -8719.1742      45067.246      238.28578    
     24480   1213.4299     -5721.2168     -5480.4549     -9210.8321      45063.337      238.29132    
     24490   1208.9938     -5721.4054     -5481.5237     -9334.5496      45059.628      238.3051     
     24500   1164.924      -5713.875      -5482.7374     -8784.6338      45056.275      238.32903    
     24510   1180.1492     -5718.163      -5484.0045     -8880.7241      45053.479      238.38221    
     24520   1194.1431     -5722.2638     -5485.3287     -9274.4569      45051.295      238.46756    
     24530   1201.8804     -5725.1975     -5486.7272     -9824.3011      45049.59       238.52931    
     24540   1178.3589     -5721.9038     -5488.1005     -10003.379      45047.87       238.55326    
     24550   1170.7461     -5721.6768     -5489.384      -9949.7563      45045.786      238.55325    
     24560   1155.6154     -5719.8003     -5490.5096     -9339.7871      45043.036      238.54867    
     24570   1158.1255     -5721.2413     -5491.4526     -8897.6054      45039.691      238.54184    
     24580   1187.0091     -5727.8049     -5492.2853     -8933.9585      45035.948      238.55783    
     24590   1181.9067     -5727.6167     -5493.1095     -8903.0141      45031.839      238.62523    
     24600   1158.9565     -5723.8239     -5493.8703     -8465.6066      45027.475      238.70957    
     24610   1172.5306     -5727.2256     -5494.5787     -8686.9061      45023.112      238.79051    
     24620   1159.4782     -5725.3081     -5495.251      -9100.8544      45018.692      238.85817    
     24630   1129.9711     -5720.0515     -5495.8491     -9402.8082      45013.773      238.89484    
     24640   1136.8799     -5721.9232     -5496.35       -9567.9945      45008.085      238.8861     
     24650   1132.6505     -5721.4742     -5496.7402     -9011.7983      45001.756      238.83831    
     24660   1152.1222     -5725.6622     -5497.0647     -8631.4403      44995.331      238.79247    
     24670   1170.0354     -5729.551      -5497.3992     -8082.0729      44989.113      238.7696     
     24680   1140.1666     -5723.9517     -5497.7263     -7442.7317      44983.51       238.73876    
     24690   1157.6627     -5727.7628     -5498.066      -7732.4046      44978.881      238.67413    
     24700   1163.4109     -5729.2709     -5498.4335     -7986.5544      44975.034      238.59785    
     24710   1158.2468     -5728.6304     -5498.8176     -8322.9837      44971.785      238.52574    
     24720   1191.3075     -5735.6796     -5499.3071     -9076.1882      44968.994      238.46712    
     24730   1162.3789     -5730.5328     -5499.9002     -9118.8805      44966.477      238.45793    
     24740   1148.8063     -5728.5114     -5500.5717     -9128.757       44964.467      238.50463    
     24750   1147.363      -5728.8875     -5501.2342     -9276.4322      44962.983      238.53332    
     24760   1158.8748     -5731.8721     -5501.9347     -9329.6727      44961.818      238.51038    
     24770   1163.688      -5733.5742     -5502.6819     -9540.1299      44960.886      238.47788    
     24780   1149.3655     -5731.5414     -5503.4908     -9364.9419      44960.161      238.44758    
     24790   1111.0267     -5724.7137     -5504.2701     -8779.8649      44959.585      238.44047    
     24800   1112.3478     -5725.6545     -5504.9488     -8739.7236      44959.19       238.48256    
     24810   1119.688      -5727.6687     -5505.5066     -8762.715       44959.121      238.54027    
     24820   1111.8441     -5726.5679     -5505.9621     -8385.2026      44959.619      238.62722    
     24830   1129.6679     -5730.4871     -5506.3448     -8710.2944      44961.123      238.7689     
     24840   1152.0877     -5735.2932     -5506.7025     -9850.8718      44963.767      238.93332    
     24850   1133.7698     -5732.02       -5507.0639     -10535.515      44967.051      239.08382    
     24860   1116.3826     -5728.9307     -5507.4244     -10863.567      44970.449      239.22045    
     24870   1099.0595     -5725.7732     -5507.704      -10653.812      44973.704      239.36374    
     24880   1090.9086     -5724.3113     -5507.8594     -10082.741      44976.748      239.52054    
     24890   1116.0949     -5729.3533     -5507.9041     -9837.0701      44979.693      239.65391    
     24900   1115.9817     -5729.2771     -5507.8504     -9345.4629      44982.6        239.72842    
     24910   1116.7725     -5729.3335     -5507.7498     -8979.2293      44985.468      239.75705    
     24920   1123.8532     -5730.5874     -5507.5988     -8872.9426      44988.532      239.80305    
     24930   1137.2779     -5733.0648     -5507.4126     -9301.3129      44991.955      239.88453    
     24940   1126.0848     -5730.6599     -5507.2286     -9404.1674      44995.506      239.99043    
     24950   1103.7087     -5726.0017     -5507.0101     -9436.1403      44999.154      240.15687    
     24960   1127.0134     -5730.3208     -5506.7052     -9652.0945      45002.917      240.38276    
     24970   1142.7403     -5733.059      -5506.3229     -9283.2287      45006.777      240.63344    
     24980   1131.6401     -5730.4607     -5505.9271     -8418.2381      45010.763      240.88723    
     24990   1137.6201     -5731.2177     -5505.4975     -8071.0069      45015.027      241.13623    
     25000   1161.5744     -5735.4708     -5504.9978     -8419.8708      45019.553      241.38995    
     25010   1156.8687     -5734.0382     -5504.4989     -8668.4472      45023.955      241.68583    
     25020   1173.8957     -5736.9646     -5504.0469     -8993.8632      45028.18       242.02177    
     25030   1167.6901     -5735.3525     -5503.6661     -8798.5608      45032.478      242.35057    
     25040   1138.2376     -5729.2277     -5503.385      -8012.6752      45037.43       242.69942    
     25050   1138.5469     -5729.0292     -5503.1252     -8038.2065      45043.512      243.11582    
     25060   1139.5532     -5728.968      -5502.8643     -8263.3659      45050.661      243.5711     
     25070   1145.2277     -5729.8784     -5502.6488     -8698.3238      45058.696      244.03493    
     25080   1133.2541     -5727.3325     -5502.4787     -8796.3251      45067.261      244.49195    
     25090   1136.3011     -5727.8214     -5502.363      -8802.4069      45076.124      244.91516    
     25100   1143.3688     -5729.146      -5502.2853     -8829.535       45085.195      245.25827    
     25110   1144.5348     -5729.3862     -5502.2941     -8842.4169      45094.517      245.52829    
     25120   1139.3897     -5728.4729     -5502.4017     -8885.9824      45104.086      245.78622    
     25130   1136.0719     -5728.0049     -5502.592      -9021.4586      45113.878      246.05334    
     25140   1146.9354     -5730.4695     -5502.9011     -9564.1068      45123.837      246.32017    
     25150   1143.3038     -5730.1831     -5503.3353     -9739.081       45133.429      246.60185    
     25160   1130.6676     -5728.2418     -5503.9012     -9410.375       45142.151      246.91062    
     25170   1131.9497     -5729.1742     -5504.5792     -9197.0295      45150.168      247.21793    
     25180   1129.6773     -5729.4869     -5505.3428     -9259.9031      45157.89       247.46713    
     25190   1142.1543     -5732.8458     -5506.226      -9920.5202      45165.381      247.65383    
     25200   1121.2821     -5729.673      -5507.1945     -10278.009      45172.239      247.85327    
     25210   1112.64       -5728.9731     -5508.2094     -10526.59       45177.924      248.09819    
     25220   1099.0806     -5727.2531     -5509.1797     -10391.564      45182.139      248.34       
     25230   1088.8204     -5726.1178     -5510.0802     -10112.253      45185.272      248.55424    
     25240   1086.4208     -5726.424      -5510.8625     -10254.299      45187.881      248.72099    
     25250   1092.6511     -5728.3484     -5511.5508     -10412.694      45190.056      248.82179    
     25260   1072.2822     -5724.8774     -5512.1213     -10141.277      45191.643      248.87324    
     25270   1079.5165     -5726.7839     -5512.5924     -10100.296      45192.679      248.89797    
     25280   1113.831      -5733.9646     -5512.9646     -10157.345      45193.011      248.95859    
     25290   1129.8179     -5737.5311     -5513.3591     -9971.2045      45192.489      249.07607    
     25300   1119.5429     -5735.9385     -5513.8051     -9513.9092      45191.165      249.19259    
     25310   1143.7984     -5741.2939     -5514.348      -9758.7278      45189.272      249.28414    
     25320   1125.2086     -5738.25       -5514.9925     -9961.5453      45186.904      249.37668    
     25330   1116.6272     -5737.2645     -5515.7097     -10253.462      45184.046      249.46003    
     25340   1096.5239     -5734.01       -5516.444      -10260.525      45180.596      249.49161    
     25350   1076.8707     -5730.7994     -5517.1329     -10092.797      45176.533      249.45633    
     25360   1087.3986     -5733.4841     -5517.7287     -10182.704      45171.986      249.40477    
     25370   1106.5128     -5737.8376     -5518.2897     -10495.624      45166.909      249.36922    
     25380   1079.8668     -5733.0776     -5518.8166     -10162.739      45160.912      249.30339    
     25390   1078.0948     -5733.2025     -5519.2931     -9906.0666      45154.062      249.20454    
     25400   1085.4191     -5735.05       -5519.6874     -9709.5723      45146.393      249.08588    
     25410   1086.1652     -5735.5558     -5520.0451     -9671.3821      45138.056      248.96757    
     25420   1078.2426     -5734.2942     -5520.3554     -9479.7373      45129.306      248.8826     
     25430   1080.8807     -5735.0786     -5520.6164     -9603.8843      45119.914      248.83294    
     25440   1087.1393     -5736.5347     -5520.8307     -9795.3537      45109.661      248.75762    
     25450   1084.3345     -5736.1633     -5521.0158     -9732.0192      45098.599      248.627      
     25460   1095.3399     -5738.5144     -5521.1833     -9894.2116      45087.013      248.45979    
     25470   1107.3986     -5741.0991     -5521.3754     -10227.996      45075.001      248.25749    
     25480   1096.8974     -5739.2736     -5521.6334     -10306.737      45062.362      248.02217    
     25490   1084.3952     -5737.0708     -5521.9113     -10090.531      45049.102      247.78297    
     25500   1088.5399     -5738.1727     -5522.1908     -10204.041      45035.544      247.5755     
     25510   1078.1293     -5736.3937     -5522.4774     -10172.717      45021.8        247.41762    
     25520   1058.7023     -5732.8125     -5522.7508     -9849.7352      45007.926      247.30674    
     25530   1064.227      -5734.1331     -5522.9752     -9676.2082      44993.962      247.16935    
     25540   1074.3095     -5736.2732     -5523.1148     -9695.1445      44979.834      246.96473    
     25550   1094.5317     -5740.4487     -5523.278      -9885.6461      44965.63       246.70983    
     25560   1087.0226     -5739.1443     -5523.4634     -9738.3135      44951.433      246.42767    
     25570   1096.0238     -5741.1987     -5523.7319     -9966.4092      44937.321      246.13727    
     25580   1092.3866     -5740.8552     -5524.1101     -10039.025      44923.269      245.85568    
     25590   1078.4581     -5738.5983     -5524.6167     -9969.8461      44909.189      245.58218    
     25600   1083.1937     -5740.1902     -5525.269      -10345.9        44895.011      245.30765    
     25610   1077.5916     -5739.8782     -5526.0686     -10682.483      44880.54       245.02993    
     25620   1095.4022     -5744.4152     -5527.0717     -11229.686      44865.295      244.75424    
     25630   1092.7525     -5745.1252     -5528.3075     -11190.797      44848.76       244.50159    
     25640   1075.4688     -5743.0957     -5529.7073     -10865.765      44831.045      244.30574    
     25650   1071.3953     -5743.7274     -5531.1472     -10781.22       44812.45       244.15636    
     25660   1060.6172     -5742.9694     -5532.5277     -10719.059      44793.036      243.9957     
     25670   1073.7586     -5746.8494     -5533.8003     -11012.696      44772.751      243.78629    
     25680   1061.1082     -5745.4819     -5534.9429     -10709.716      44751.448      243.57381    
     25690   1026.3745     -5739.5068     -5535.8594     -10027.177      44729.299      243.35488    
     25700   1041.6886     -5743.2469     -5536.561      -10519.256      44706.784      243.07843    
     25710   1043.216      -5744.061      -5537.072      -11320.764      44684.064      242.77934    
     25720   1030.6295     -5741.9337     -5537.4421     -11200.684      44661.007      242.47819    
     25730   1009.9943     -5738.0266     -5537.6293     -10494.361      44637.672      242.16742    
     25740   1028.6662     -5741.7469     -5537.6448     -10310.187      44614.213      241.86089    
     25750   1051.0188     -5746.0708     -5537.5336     -10260.695      44590.549      241.57505    
     25760   1026.5537     -5741.0109     -5537.3279     -9600.5543      44566.566      241.31163    
     25770   1033.0582     -5742.0015     -5537.0279     -9367.4091      44542.517      241.04809    
     25780   1063.3269     -5747.5961     -5536.6168     -9593.3641      44518.751      240.7697     
     25790   1065.5465     -5747.5854     -5536.1658     -9407.018       44495.376      240.48501    
     25800   1072.2766     -5748.4896     -5535.7346     -9089.6954      44472.3        240.20264    
     25810   1076.8596     -5748.9785     -5535.3142     -8915.1668      44449.563      239.92193    
     25820   1085.8482     -5750.3884     -5534.9406     -8900.2804      44427.495      239.68241    
     25830   1075.5913     -5748.0348     -5534.6221     -8965.229       44406.597      239.46616    
     25840   1041.9116     -5741.0753     -5534.3451     -8972.6792      44386.992      239.21526    
     25850   1033.7716     -5739.1432     -5534.0281     -9242.7612      44368.436      238.94308    
     25860   1038.3777     -5739.6379     -5533.6089     -9884.4576      44350.548      238.69976    
     25870   1049.6018     -5741.3749     -5533.1189     -10478.472      44332.881      238.48329    
     25880   1056.8538     -5742.2637     -5532.5687     -10508.419      44315.166      238.26709    
     25890   1074.6765     -5745.2285     -5531.9973     -10129.979      44297.408      238.02852    
     25900   1094.6619     -5748.6559     -5531.4593     -9726.7023      44279.711      237.77221    
     25910   1101.584      -5749.5952     -5531.0252     -9738.0363      44262.026      237.53596    
     25920   1092.3491     -5747.4738     -5530.736      -9803.6217      44244.296      237.31632    
     25930   1081.2966     -5745.1003     -5530.5556     -9745.8154      44226.664      237.1258     
     25940   1095.2862     -5747.8092     -5530.4887     -9947.3636      44209.274      237.00561    
     25950   1088.8791     -5746.5894     -5530.5401     -9874.1325      44192.294      236.96025    
     25960   1086.0063     -5746.2114     -5530.7322     -9782.9237      44175.86       236.95415    
     25970   1099.2855     -5749.1942     -5531.0802     -9983.3925      44159.883      236.95558    
     25980   1098.9298     -5749.6886     -5531.6452     -9922.0402      44143.96       236.93069    
     25990   1097.7938     -5750.302      -5532.484      -9740.5488      44127.673      236.87752    
     26000   1082.1948     -5748.3069     -5533.5839     -9289.8063      44111.04       236.81538    
     26010   1066.0787     -5746.3949     -5534.8696     -8788.8135      44094.58       236.78782    
     26020   1053.7178     -5745.3523     -5536.2796     -8411.4543      44078.605      236.83234    
     26030   1053.2117     -5746.6699     -5537.6976     -8359.7928      44063.148      236.92026    
     26040   1066.7202     -5750.7411     -5539.0885     -8543.7581      44048.267      237.00453    
     26050   1055.2237     -5749.7186     -5540.3471     -8515.0512      44033.989      237.03493    
     26060   1052.1947     -5750.2017     -5541.4312     -8859.9264      44020.226      236.99543    
     26070   1060.4961     -5752.7457     -5542.3281     -9248.3485      44006.834      236.90598    
     26080   1051.7356     -5751.7577     -5543.0783     -9254.8037      43993.632      236.81165    
     26090   1042.1912     -5750.4489     -5543.6632     -9076.8652      43980.54       236.75671    
     26100   1060.9987     -5754.6735     -5544.1561     -9106.2891      43967.768      236.72362    
     26110   1045.2122     -5751.9624     -5544.5773     -8992.2736      43955.308      236.69368    
     26120   1042.2536     -5751.7786     -5544.9805     -9324.7235      43943.049      236.66806    
     26130   1025.2712     -5748.7321     -5545.3036     -9720.0842      43930.906      236.64506    
     26140   1026.7763     -5749.2858     -5545.5587     -10333.277      43918.727      236.61656    
     26150   1027.7835     -5749.675      -5545.7481     -10706.079      43906.182      236.58722    
     26160   1025.5535     -5749.4015     -5545.917      -10621.443      43893.059      236.54061    
     26170   1013.5762     -5747.1174     -5546.0094     -10100.876      43879.351      236.46612    
     26180   1034.446      -5751.3135     -5546.0646     -9851.2341      43865.159      236.38577    
     26190   1039.2572     -5752.2766     -5546.0731     -9539.8841      43850.428      236.31933    
     26200   1060.8465     -5756.6093     -5546.1221     -9643.9922      43835.168      236.26516    
     26210   1079.2584     -5760.4021     -5546.2618     -9856.6484      43819.336      236.2121     
     26220   1079.1056     -5760.6672     -5546.5572     -10100.497      43802.737      236.15012    
     26230   1071.7542     -5759.6843     -5547.0329     -10185.433      43785.225      236.06713    
     26240   1053.5791     -5756.6737     -5547.6285     -10082.274      43766.829      235.96606    
     26250   1048.6671     -5756.4005     -5548.3299     -10107.066      43747.783      235.88746    
     26260   1034.5107     -5754.3223     -5549.0605     -9967.8285      43728.392      235.84174    
     26270   1055.3479     -5759.2299     -5549.8337     -10296.797      43708.932      235.80158    
     26280   1056.5406     -5760.3113     -5550.6785     -10370.192      43689.379      235.75655    
     26290   1044.4834     -5758.8541     -5551.6137     -10069.802      43669.625      235.72357    
     26300   1028.8472     -5756.6594     -5552.5214     -9474.1222      43649.78       235.69671    
     26310   1036.2332     -5759.0057     -5553.4022     -9415.773       43630.101      235.64617    
     26320   1025.9904     -5757.8225     -5554.2513     -9326.4421      43610.628      235.55747    
     26330   1001.7044     -5753.7411     -5554.9886     -9228.228       43591.523      235.49095    
     26340   1007.4104     -5755.4799     -5555.5952     -9572.8028      43572.876      235.47681    
     26350   1017.1189     -5757.9144     -5556.1035     -9948.1576      43554.552      235.4789     
     26360   1018.0238     -5758.5498     -5556.5593     -10016.601      43536.168      235.45286    
     26370   1006.9875     -5756.748      -5556.9473     -9542.6445      43517.676      235.36696    
     26380   1000.3998     -5755.7494     -5557.2557     -9243.9154      43499.365      235.21976    
     26390   1012.7048     -5758.4194     -5557.4843     -9415.187       43481.295      235.04768    
     26400   1015.3562     -5759.1299     -5557.6687     -9523.6678      43463.233      234.89193    
     26410   1020.4296     -5760.2988     -5557.831      -9471.6863      43445.088      234.75999    
     26420   1035.1014     -5763.3951     -5558.0162     -9237.7379      43426.91       234.64484    
     26430   1024.2716     -5761.4337     -5558.2036     -8753.0605      43408.824      234.5378     
     26440   1034.2478     -5763.6423     -5558.4328     -8738.4254      43391.087      234.44119    
     26450   1034.5435     -5763.9913     -5558.7231     -8760.7215      43373.598      234.32749    
     26460   1008.8999     -5759.2313     -5559.0511     -8456.0802      43356.151      234.20513    
     26470   986.81809     -5755.1477     -5559.3489     -8217.172       43339.006      234.09924    
     26480   991.71979     -5756.3284     -5559.557      -8419.8332      43322.472      234.04827    
     26490   1003.5136     -5758.8175     -5559.706      -8915.5645      43306.475      234.05101    
     26500   1003.1235     -5758.8468     -5559.8127     -9399.0591      43290.691      234.07882    
     26510   1019.0741     -5762.1149     -5559.916      -9619.1511      43274.884      234.10977    
     26520   1014.4675     -5761.311      -5560.0261     -9261.1072      43258.855      234.10809    
     26530   1005.2853     -5759.6217     -5560.1587     -8877.4648      43242.664      234.05364    
     26540   1011.7567     -5761.0345     -5560.2875     -8802.7219      43226.735      233.97562    
     26550   1015.9849     -5762.0024     -5560.4165     -8643.7811      43211.478      233.90827    
     26560   1009.4097     -5760.8752     -5560.5939     -8359.6322      43197.171      233.89444    
     26570   1016.7963     -5762.562      -5560.8151     -8375.698       43183.914      233.95474    
     26580   1017.594      -5762.9886     -5561.0834     -8574.2211      43171.512      234.05425    
     26590   1034.5056     -5766.7456     -5561.4849     -9247.8075      43159.678      234.14543    
     26600   1023.8844     -5765.2185     -5562.0652     -9649.5113      43148.119      234.21481    
     26610   1004.256      -5762.0848     -5562.8261     -9740.6621      43136.672      234.24953    
     26620   1011.2504     -5764.407      -5563.7604     -9857.7048      43125.172      234.20809    
     26630   1018.9535     -5767.0613     -5564.8863     -9824.3933      43113.43       234.07179    
     26640   1007.9109     -5766.1718     -5566.1878     -9425.201       43101.508      233.89999    
     26650   1009.2982     -5767.838      -5567.5788     -9246.4698      43089.681      233.76478    
     26660   1015.8532     -5770.5557     -5568.9958     -9276.0321      43078.216      233.68604    
     26670   992.73825     -5767.314      -5570.3405     -8947.8758      43067.237      233.66161    
     26680   953.44923     -5760.6189     -5571.4409     -8444.9399      43056.808      233.69196    
     26690   949.70768     -5760.6544     -5572.2188     -8713.0404      43046.948      233.75124    
     26700   969.83289     -5765.1892     -5572.7605     -9478.8932      43037.515      233.79685    
     26710   965.37842     -5764.6615     -5573.1166     -9884.0848      43028.027      233.79518    
     26720   976.47926     -5767.092      -5573.3446     -10096.822      43018.05       233.77343    
     26730   997.4164      -5771.3972     -5573.4955     -10339.486      43007.578      233.74628    
     26740   989.21868     -5769.9053     -5573.6301     -10123.177      42996.58       233.67032    
     26750   969.02009     -5765.9934     -5573.7259     -9874.5305      42984.894      233.55623    
     26760   990.65766     -5770.3473     -5573.7866     -10184.121      42972.342      233.47751    
     26770   991.07008     -5770.4447     -5573.8022     -10227.216      42958.887      233.43867    
     26780   991.49991     -5770.5392     -5573.8114     -9961.9139      42944.89       233.40756    
     26790   979.89277     -5768.2368     -5573.8121     -9609.7661      42930.689      233.37506    
     26800   964.96682     -5765.2449     -5573.7816     -9194.3672      42916.218      233.32949    
     26810   975.50005     -5767.2338     -5573.6806     -9297.6475      42901.578      233.2845     
     26820   981.66665     -5768.2881     -5573.5114     -9536.6886      42887.171      233.25459    
     26830   988.13043     -5769.3779     -5573.3187     -9732.3451      42873.103      233.20196    
     26840   997.93269     -5771.1332     -5573.129      -10053.879      42859.14       233.10816    
     26850   985.65501     -5768.5309     -5572.9628     -10057.113      42844.979      232.97911    
     26860   980.47375     -5767.3444     -5572.8043     -10240.027      42830.312      232.83443    
     26870   985.19831     -5768.1108     -5572.6334     -10396.135      42814.907      232.68313    
     26880   983.32172     -5767.5557     -5572.4506     -10472.98       42798.78       232.53665    
     26890   975.5434      -5765.8022     -5572.2405     -10475.506      42782.099      232.36461    
     26900   968.53652     -5764.1594     -5571.9879     -10354.22       42765.084      232.14867    
     26910   976.06812     -5765.3287     -5571.6628     -10315.644      42748          231.93715    
     26920   1006.2532     -5770.9519     -5571.2969     -10548.626      42730.883      231.75495    
     26930   1026.5557     -5774.6697     -5570.9863     -10406.984      42713.413      231.57047    
     26940   991.54131     -5767.4996     -5570.7636     -9103.2412      42695.518      231.35719    
     26950   972.77084     -5763.5918     -5570.5801     -8356.5381      42677.831      231.1164     
     26960   963.74375     -5761.556      -5570.3355     -8153.9519      42660.903      230.86069    
     26970   977.3553      -5763.9448     -5570.0235     -8421.8024      42644.981      230.59476    
     26980   992.06928     -5766.5035     -5569.6628     -8875.5489      42630.111      230.32774    
     26990   993.13869     -5766.3468     -5569.2939     -8906.9632      42616.112      230.0769     
     27000   988.52535     -5765.0742     -5568.9366     -8793.7724      42602.844      229.8894     
     27010   999.67641     -5766.9283     -5568.5782     -8795.8283      42590.312      229.77255    
     27020   991.475       -5764.9647     -5568.2419     -8536.0448      42578.523      229.68423    
     27030   992.42762     -5764.8369     -5567.9251     -8703.0228      42567.728      229.59875    
     27040   1010.1064     -5768.0614     -5567.6418     -9170.1926      42557.959      229.55589    
     27050   1012.3746     -5768.3229     -5567.4532     -9514.2535      42548.833      229.54835    
     27060   1014.1133     -5768.6155     -5567.4009     -9797.9893      42540.083      229.50447    
     27070   1022.7961     -5770.4608     -5567.5234     -9923.2465      42531.553      229.39346    
     27080   1009.3536     -5768.0969     -5567.8267     -9577.5698      42523.173      229.25861    
     27090   1021.1786     -5770.9764     -5568.36       -9740.7219      42514.891      229.13042    
     27100   1023.4885     -5772.2157     -5569.1409     -9977.3542      42506.457      229.0297     
     27110   1022.1756     -5773.0199     -5570.2056     -10311.385      42497.6        228.97161    
     27120   1010.5807     -5772.0311     -5571.5174     -10417.331      42488.15       228.95667    
     27130   985.27645     -5768.4254     -5572.9325     -10021.903      42478.012      228.96762    
     27140   972.46297     -5767.2415     -5574.2909     -9696.6143      42467.423      228.97948    
     27150   966.13093     -5767.1748     -5575.4806     -9631.1421      42456.725      228.95291    
     27160   990.75975     -5773.1268     -5576.5459     -10039.489      42446.245      228.86165    
     27170   991.46236     -5774.2295     -5577.5092     -10082.921      42436.16       228.7381     
     27180   996.03009     -5776.0349     -5578.4083     -10182.11       42426.294      228.63121    
     27190   1007.143      -5779.1305     -5579.2989     -10376.904      42416.187      228.54782    
     27200   1002.1863     -5779.0668     -5580.2187     -10455.491      42405.274      228.48925    
     27210   965.70964     -5772.7042     -5581.0936     -10042.754      42393.377      228.43227    
     27220   970.33229     -5774.4071     -5581.8793     -9618.1662      42380.754      228.36398    
     27230   979.26527     -5776.9113     -5582.611      -9277.6702      42367.915      228.29909    
     27240   968.61486     -5775.5021     -5583.315      -8786.5378      42355.368      228.22264    
     27250   963.29631     -5775.1223     -5583.9905     -8618.2098      42343.313      228.08942    
     27260   963.2564      -5775.7551     -5584.6313     -8894.7834      42331.562      227.90052    
     27270   959.40036     -5775.6042     -5585.2455     -9202.3512      42320.01       227.70111    
     27280   957.62722     -5775.8555     -5585.8485     -9466.6863      42308.545      227.51458    
     27290   961.89255     -5777.2877     -5586.4345     -9760.1589      42296.804      227.35011    
     27300   961.96008     -5777.8938     -5587.0271     -9984.1646      42284.466      227.21603    
     27310   947.94676     -5775.6958     -5587.6096     -9929.5947      42271.511      227.12908    
     27320   940.96743     -5774.8484     -5588.147      -9659.2477      42258.082      227.0815     
     27330   951.19313     -5777.3789     -5588.6486     -9553.4146      42244.249      227.06024    
     27340   960.85684     -5779.7864     -5589.1386     -9553.4234      42230.048      227.03746    
     27350   976.36683     -5783.3994     -5589.6743     -9676.1142      42215.469      226.98685    
     27360   978.87198     -5784.5109     -5590.2886     -9514.6826      42200.499      226.92182    
     27370   975.79079     -5784.5834     -5590.9725     -9299.4046      42185.498      226.85832    
     27380   981.31681     -5786.4701     -5591.7628     -9347.1423      42171          226.81706    
     27390   965.11465     -5784.0773     -5592.5847     -9559.3569      42157.334      226.83689    
     27400   972.50212     -5786.4364     -5593.4781     -10255.622      42144.417      226.91323    
     27410   952.19461     -5783.2899     -5594.3609     -10442.618      42131.647      227.00836    
     27420   941.36315     -5781.9913     -5595.2114     -10495.068      42118.611      227.07233    
     27430   922.7609      -5779.0378     -5595.9489     -10368.691      42105.158      227.09828    
     27440   929.81235     -5781.056      -5596.5679     -10260.667      42091.398      227.09905    
     27450   931.56161     -5781.917      -5597.0818     -10059.599      42077.416      227.08874    
     27460   937.0044      -5783.4551     -5597.54       -9704.5172      42063.25       227.06496    
     27470   936.14784     -5783.6865     -5597.9414     -9385.0257      42049.15       227.04091    
     27480   943.48925     -5785.5044     -5598.3026     -9533.9902      42035.343      227.02596    
     27490   960.60361     -5789.2866     -5598.6891     -10089.95       42021.618      226.99256    
     27500   931.96288     -5784.0146     -5599.0999     -10163.969      42007.593      226.8854     
     27510   925.5882      -5783.146      -5599.496      -10383.332      41993.121      226.68523    
     27520   931.88342     -5784.7441     -5599.8451     -10679.09       41977.947      226.43726    
     27530   921.14844     -5782.9255     -5600.1565     -10451.498      41961.802      226.1796     
     27540   930.03905     -5784.9785     -5600.4454     -10246.412      41944.75       225.94263    
     27550   929.71556     -5785.1616     -5600.6927     -9853.1676      41927.066      225.75259    
     27560   931.36678     -5785.7307     -5600.9342     -9613.1825      41909.018      225.61232    
     27570   917.7858      -5783.2559     -5601.154      -9304.641       41890.765      225.52813    
     27580   903.28604     -5780.5459     -5601.321      -9216.4097      41872.471      225.47767    
     27590   911.64159     -5782.296      -5601.4133     -9445.8372      41854.121      225.39983    
     27600   913.67489     -5782.7183     -5601.4321     -9379.8029      41835.645      225.28764    
     27610   915.46355     -5783.0369     -5601.3958     -9061.4263      41817.346      225.16642    
     27620   921.70651     -5784.1758     -5601.296      -8943.2728      41799.628      225.0257     
     27630   930.67012     -5785.8384     -5601.1801     -9208.4772      41782.515      224.85368    
     27640   933.95627     -5786.3661     -5601.0558     -9500.5982      41765.813      224.68285    
     27650   942.24378     -5787.9141     -5600.9594     -9904.9988      41749.318      224.5406     
     27660   936.24717     -5786.6671     -5600.9023     -10074.029      41732.817      224.41219    
     27670   929.74642     -5785.3524     -5600.8774     -10085.17       41716.204      224.26119    
[...]
     48200   761.58126     -5854.6124     -5703.5038      882.182        40849.419      346.05814    
     48210   760.22762     -5853.3607     -5702.5207      1291.4991      40859.438      346.22406    
     48220   757.60306     -5851.7142     -5701.3949      1242.991       40873.27       346.48582    
     48230   760.97987     -5851.0818     -5700.0925      721.9926       40890.712      346.80375    
     48240   752.43562     -5847.9606     -5698.6666      485.29081      40910.343      347.10209    
     48250   764.02199     -5848.8036     -5697.2107      3.2430159      40931.178      347.3474     
     48260   776.41363     -5849.915      -5695.8635     -355.63943      40951.854      347.56343    
     48270   772.28777     -5848.0269     -5694.7939     -306.82547      40971.351      347.78177    
     48280   768.56375     -5846.5422     -5694.0482     -142.34944      40989.712      348.00366    
     48290   767.86919     -5845.9138     -5693.5576      101.06202      41007.46       348.20813    
     48300   769.75891     -5845.9944     -5693.2632      385.90506      41025.366      348.41229    
     48310   770.07938     -5845.9087     -5693.1139      439.2424       41044.257      348.64535    
     48320   775.4003      -5846.9308     -5693.0803      102.05155      41064.275      348.91475    
     48330   768.31135     -5845.5769     -5693.1329     -241.24042      41084.451      349.20337    
     48340   758.81094     -5843.7957     -5693.2367     -400.44917      41103.738      349.48144    
     48350   762.95568     -5844.7485     -5693.3672     -434.208        41121.617      349.72903    
     48360   764.55934     -5845.2393     -5693.5397     -305.69995      41138.018      349.92963    
     48370   768.57956     -5846.2555     -5693.7583     -354.70188      41153.28       350.09471    
     48380   775.07672     -5847.8331     -5694.0468     -690.73844      41167.248      350.24438    
     48390   768.22803     -5846.8451     -5694.4176     -972.02332      41178.931      350.39291    
     48400   762.62003     -5846.1698     -5694.8551     -1153.067       41187.446      350.55592    
     48410   760.42269     -5846.2163     -5695.3376     -1310.0147      41192.184      350.7494     
     48420   757.7335      -5846.2053     -5695.8601     -1288.3336      41192.76       350.98377    
     48430   751.39169     -5845.4795     -5696.3926     -1192.7688      41189.231      351.22395    
     48440   751.29868     -5845.9995     -5696.9311     -1080.937       41181.904      351.40723    
     48450   747.57991     -5845.7871     -5697.4565     -915.09574      41171.187      351.5155     
     48460   751.38485     -5847.0553     -5697.9698     -796.71619      41157.613      351.55541    
     48470   755.24487     -5848.329      -5698.4776     -456.42244      41141.695      351.53517    
     48480   751.04199     -5848.0005     -5698.983       49.584627      41124.479      351.47399    
     48490   739.86321     -5846.2679     -5699.4685      544.43604      41107.537      351.38807    
     48500   731.4132      -5845.0137     -5699.8908      759.83432      41092.402      351.29961    
     48510   732.54159     -5845.5842     -5700.2375      570.84781      41079.681      351.24994    
     48520   744.59719     -5848.2583     -5700.5196     -46.432609      41068.737      351.25524    
     48530   753.2013      -5850.241      -5700.795      -756.1359       41057.667      351.27051    
     48540   740.31122     -5847.9525     -5701.0642     -998.06091      41044.391      351.2507     
     48550   734.09877     -5846.9656     -5701.3099     -965.1703       41028.097      351.18767    
     48560   733.50387     -5847.0322     -5701.4946     -678.54529      41008.933      351.08286    
     48570   733.24566     -5847.0996     -5701.6132     -299.43427      40987.754      350.96686    
     48580   737.48181     -5847.9917     -5701.6647      48.676449      40965.756      350.87431    
     48590   744.4955      -5849.3921     -5701.6735      189.3132       40943.969      350.79347    
     48600   738.08256     -5848.0891     -5701.643       548.3215       40922.982      350.71961    
     48610   737.23904     -5847.8427     -5701.5639      797.41259      40903.785      350.66822    
     48620   756.23294     -5851.4872     -5701.4397      675.88632      40887.081      350.65389    
     48630   762.87713     -5852.6938     -5701.3281      651.95712      40872.6        350.69147    
     48640   743.91198     -5848.8431     -5701.2403      1074.7708      40860.387      350.77195    
     48650   745.6381      -5849.0874     -5701.1421      1397.2798      40851.561      350.8728     
     48660   765.15294     -5852.8359     -5701.0186      1614.3837      40847.133      350.95554    
     48670   774.88291     -5854.6915     -5700.9437      1731.0474      40847.744      351.00078    
     48680   763.02824     -5852.3481     -5700.9524      1800.3822      40853.794      351.03486    
     48690   760.08437     -5851.8475     -5701.0359      1384.1869      40865.331      351.09422    
     48700   755.87273     -5851.1525     -5701.1765      945.36912      40881.185      351.19213    
     48710   744.26642     -5849.0266     -5701.3535      589.44118      40899.953      351.34094    
     48720   742.09        -5848.7772     -5701.5359      140.32904      40920.507      351.5597     
     48730   747.15493     -5849.9637     -5701.7175     -178.86963      40941.547      351.84415    
     48740   744.68648     -5849.6602     -5701.9037     -147.34864      40962.098      352.16298    
     48750   744.39288     -5849.8059     -5702.1077      43.751714      40982.187      352.47075    
     48760   740.55266     -5849.2537     -5702.3174      431.64908      41002.461      352.73426    
     48770   746.85617     -5850.7218     -5702.5348      686.54212      41024.033      352.96511    
     48780   744.85499     -5850.55       -5702.7602      1058.1503      41047.829      353.17896    
     48790   754.06605     -5852.6257     -5703.0082      1204.0373      41074.871      353.39304    
     48800   754.2057      -5852.9458     -5703.3006      1265.6037      41105.669      353.59239    
     48810   736.31417     -5849.7198     -5703.6246      1221.878       41140.441      353.78568    
     48820   734.74163     -5849.7118     -5703.9285      548.04093      41178.887      353.99479    
     48830   736.94007     -5850.4072     -5704.1878     -162.25188      41219.052      354.2099     
     48840   723.88267     -5848.0192     -5704.3905     -516.41372      41258.731      354.42073    
     48850   714.90958     -5846.354      -5704.5057     -716.76639      41296.721      354.63573    
     48860   726.93279     -5848.738      -5704.5042     -1060.6322      41332.257      354.84031    
     48870   729.91638     -5849.2207     -5704.3948     -1053.4981      41364.392      355.01821    
     48880   726.46285     -5848.3418     -5704.2012     -873.37023      41393.05       355.18496    
     48890   729.90651     -5848.7314     -5703.9075     -830.66101      41418.76       355.34854    
     48900   733.1422      -5848.9746     -5703.5087     -796.23217      41441.727      355.5001     
     48910   721.13098     -5846.0892     -5703.0065     -405.24619      41462.198      355.63152    
     48920   725.54469     -5846.3438     -5702.3853     -282.26174      41481.199      355.74131    
     48930   739.34436     -5848.3264     -5701.6299     -369.46219      41499.182      355.82645    
     48940   752.82775     -5850.178      -5700.8062     -462.75247      41515.918      355.88098    
     48950   754.59205     -5849.703      -5699.9811     -425.42954      41531.125      355.89803    
     48960   752.23141     -5848.4553     -5699.2018     -335.05251      41544.913      355.89896    
     48970   750.04239     -5847.2897     -5698.4705     -245.77894      41557.561      355.91418    
     48980   743.96946     -5845.4015     -5697.7873     -129.56488      41569.398      355.96608    
     48990   747.30443     -5845.4092     -5697.1333     -249.81151      41580.708      356.0552     
     49000   753.71878     -5846.0757     -5696.5271     -279.04692      41591.207      356.16708    
     49010   738.90669     -5842.5795     -5695.9698      98.400658      41600.915      356.28685    
     49020   739.17789     -5842.1082     -5695.4447      85.302351      41610.74       356.39985    
     49030   751.84101     -5844.0959     -5694.9199     -90.647496      41620.791      356.50265    
     49040   759.17994     -5845.0759     -5694.4438     -182.63929      41630.511      356.58875    
     49050   764.29783     -5845.6934     -5694.0457     -199.2726       41639.621      356.63055    
     49060   772.06335     -5846.9235     -5693.735      -362.1381       41647.985      356.59874    
     49070   768.25924     -5845.9541     -5693.5205     -404.97047      41655.183      356.49349    
     49080   768.17238     -5845.8175     -5693.4011     -635.26402      41660.95       356.34864    
     49090   757.5682      -5843.6532     -5693.3408     -738.15029      41664.663      356.19876    
     49100   756.05144     -5843.339      -5693.3276     -846.22336      41665.914      356.07747    
     49110   750.42935     -5842.2334     -5693.3375     -643.47194      41664.519      356.00469    
     49120   753.94563     -5842.949      -5693.3554     -454.37459      41661.017      355.97487    
     49130   763.72146     -5844.9243     -5693.391      -395.09831      41655.983      355.93472    
     49140   762.51429     -5844.7712     -5693.4775     -127.0928       41649.757      355.82775    
     49150   755.62952     -5843.5404     -5693.6127      192.76812      41643.184      355.65889    
     49160   756.93252     -5843.9597     -5693.7735      259.01826      41637.181      355.45474    
     49170   753.1944      -5843.4038     -5693.9593      337.10662      41632.067      355.23947    
     49180   747.29883     -5842.4312     -5694.1564      144.23535      41627.967      355.03351    
     49190   751.1119      -5843.4005     -5694.3692     -238.67242      41624.299      354.84538    
     49200   744.59144     -5842.3228     -5694.5851     -483.02763      41619.9        354.67844    
     49210   732.8193      -5840.1859     -5694.7841     -545.95917      41613.99       354.55793    
     49220   741.71386     -5842.1107     -5694.9441     -720.76507      41606.278      354.47604    
     49230   747.42384     -5843.3756     -5695.076      -751.01256      41596.284      354.39525    
     49240   746.06362     -5843.2401     -5695.2104     -466.57134      41583.963      354.27847    
     49250   748.61865     -5843.8927     -5695.356      -49.684183      41570.199      354.11363    
     49260   740.2466      -5842.3766     -5695.5011      489.58513      41556.389      353.93775    
     49270   733.9144      -5841.2454     -5695.6262      661.82041      41544.119      353.79569    
     49280   749.4437      -5844.4347     -5695.7343      267.37012      41533.879      353.68458    
     49290   768.59792     -5848.3711     -5695.8703     -284.45546      41524.473      353.565      
     49300   761.70144     -5847.2344     -5696.1019     -289.41863      41514.371      353.42187    
     49310   761.97636     -5847.6412     -5696.4542     -357.32703      41503.301      353.26968    
     49320   760.0457      -5847.7375     -5696.9336     -276.94146      41491.159      353.13441    
     49330   739.97229     -5844.3501     -5697.529       99.062359      41478.285      353.03599    
     49340   739.52896     -5844.9218     -5698.1886      96.637909      41465.665      352.99727    
     49350   739.53758     -5845.6205     -5698.8856      43.563494      41453.392      353.00539    
     49360   727.46693     -5843.9216     -5699.5818      270.99496      41441.402      353.03427    
     49370   726.92558     -5844.4655     -5700.233       260.54896      41430.224      353.08593    
     49380   728.6445      -5845.4019     -5700.8284      205.13405      41419.899      353.15137    
     49390   726.53284     -5845.5051     -CHGNet v0.3.0 initialized with 412,525 parameters
CHGNet will run on cuda:0
CHGNet will run on cuda:0
5701.3506      63.234593      41410.261      353.20018    
     49400   724.38177     -5845.5187     -5701.791      -171.6601       41400.827      353.21617    
     49410   717.92447     -5844.5804     -5702.1339     -297.80129      41390.905      353.2113     
     49420   719.46254     -5845.1243     -5702.3726     -326.1952       41380.097      353.181      
     49430   720.016       -5845.3553     -5702.4939     -108.1594       41368.357      353.13158    
     49440   724.59545     -5846.2797     -5702.5095      183.39365      41356.324      353.09336    
     49450   727.5099      -5846.7682     -5702.4198      540.00757      41344.958      353.06888    
     49460   732.35135     -5847.5438     -5702.2348      683.12952      41335.297      353.06269    
     49470   749.06476     -5850.6021     -5701.9769      545.06875      41327.808      353.08706    
     49480   757.73658     -5852.0361     -5701.6903      386.73803      41322.129      353.15351    
     49490   753.54267     -5850.9287     -5701.4151      327.2181       41317.738      353.24981    
     49500   740.48529     -5848.0616     -5701.1388      461.96236      41314.475      353.32408    
     49510   735.18678     -5846.6774     -5700.8058      504.69633      41312.706      353.33571    
     49520   751.40024     -5849.4939     -5700.4053      137.03715      41312.473      353.29187    
     49530   758.29932     -5850.4178     -5699.9604     -344.9272       41312.617      353.23381    
     49540   743.98245     -5847.1285     -5699.5118     -364.69147      41311.788      353.20072    
     49550   733.24491     -5844.5083     -5699.022      -195.73816      41309.839      353.21057    
     49560   736.82548     -5844.6412     -5698.4445     -76.459616      41307.268      353.27114    
     49570   747.49194     -5846.0826     -5697.7695     -10.014739      41304.436      353.36749    
     49580   748.51205     -5845.5564     -5697.0409      107.03658      41301.593      353.47199    
     49590   746.99936     -5844.5024     -5696.2871      195.82496      41299.125      353.5621     
     49600   743.39884     -5843.0127     -5695.5117      250.61332      41297.329      353.6189     
     49610   739.52947     -5841.4548     -5694.7216      199.28784      41296.327      353.63453    
     49620   748.92893     -5842.5304     -5693.9322      175.94683      41295.995      353.60494    
     49630   762.17809     -5844.4017     -5693.1747      170.79917      41296.233      353.54758    
     49640   763.48692     -5843.9978     -5692.5111      364.47812      41297.101      353.50593    
     49650   767.55444     -5844.2655     -5691.9717      412.54886      41299.124      353.52678    
     49660   775.95113     -5845.522      -5691.5622      310.83229      41302.468      353.62724    
     49670   780.34148     -5846.1262     -5691.2953      3.7325097      41306.742      353.77989    
     49680   784.39325     -5846.8121     -5691.1773     -327.50622      41311.032      353.94363    
     49690   776.37419     -5845.2349     -5691.1911     -609.12767      41314.289      354.07215    
     49700   774.29125     -5844.9371     -5691.3067     -900.90407      41315.603      354.1404     
     49710   775.16027     -5845.3206     -5691.5177     -1112.0262      41314.017      354.15999    
     49720   765.15497     -5843.6082     -5691.7904     -979.49861      41308.966      354.15009    
     49730   776.68092     -5846.2295     -5692.1249     -857.72077      41300.744      354.13682    
     49740   767.35842     -5844.7606     -5692.5057     -344.56765      41289.881      354.14942    
     49750   755.24108     -5842.7542     -5692.9035      221.43557      41277.924      354.19285    
     49760   762.96916     -5844.6709     -5693.2869      322.86439      41266.548      354.24607    
     49770   774.08103     -5847.2699     -5693.6811      249.01751      41256.131      354.29666    
     49780   771.4148      -5847.1791     -5694.1193      352.44663      41246.525      354.34647    
     49790   759.77883     -5845.3345     -5694.5835      606.61108      41238.084      354.38251    
     49800   758.68751     -5845.5696     -5695.0351      573.435        41231.486      354.4049     
     49810   757.64414     -5845.7944     -5695.467       233.11161      41226.601      354.44225    
     49820   756.20912     -5845.9241     -5695.8814     -175.02575      41222.41       354.50648    
     49830   747.13235     -5844.5094     -5696.2676     -279.94814      41217.74       354.5661     
     49840   728.2509      -5841.074      -5696.5786      30.228819      41212.271      354.59417    
     49850   730.7363      -5841.7742     -5696.7856      175.78596      41206.841      354.5892     
     49860   749.26663     -5845.5762     -5696.9109      59.866548      41201.874      354.55015    
     49870   754.85488     -5846.7854     -5697.0114     -111.20647      41197.076      354.49154    
     49880   742.89384     -5844.5171     -5697.1163     -141.67754      41191.951      354.45359    
     49890   721.77958     -5840.391      -5697.1796      36.849926      41186.402      354.43942    
     49900   712.72413     -5838.5515     -5697.1368      207.68087      41180.936      354.44709    
     49910   726.0818      -5841.0403     -5696.9753      135.72121      41176.032      354.48565    
     49920   737.27827     -5843.0094     -5696.7228      22.325799      41171.506      354.54011    
     49930   733.9132      -5842.0386     -5696.4197      131.28699      41167.095      354.59273    
     49940   743.63869     -5843.6338     -5696.0852      162.82747      41163.064      354.62739    
     49950   757.11057     -5845.9526     -5695.7311      131.87074      41159.473      354.6561     
     49960   762.46695     -5846.6993     -5695.415       312.45989      41156.295      354.69026    
     49970   755.71754     -5845.088      -5695.1428      752.90719      41154.19       354.74026    
     49980   764.03178     -5846.5162     -5694.9214      915.78346      41154.39       354.82368    
     49990   773.15378     -5848.1646     -5694.7598      1071.8221      41157.565      354.92976    
     50000   766.21974     -5846.7191     -5694.6901      1387.1979      41164.264      355.03916    
Loop time of 9091.46 on 1 procs for 20000 steps with 1536 atoms

Performance: 0.190 ns/day, 126.270 hours/ns, 2.200 timesteps/s, 3.379 katom-step/s
118.7% CPU use with 1 MPI tasks x 1 OpenMP threads

MPI task timing breakdown:
Section |  min time  |  avg time  |  max time  |%varavg| %total
---------------------------------------------------------------
Pair    | 8986.4     | 8986.4     | 8986.4     |   0.0 | 98.84
Bond    | 0.0092525  | 0.0092525  | 0.0092525  |   0.0 |  0.00
Neigh   | 6.6602     | 6.6602     | 6.6602     |   0.0 |  0.07
Comm    | 0.92353    | 0.92353    | 0.92353    |   0.0 |  0.01
Output  | 95.649     | 95.649     | 95.649     |   0.0 |  1.05
Modify  | 1.6272     | 1.6272     | 1.6272     |   0.0 |  0.02
Other   |            | 0.1767     |            |       |  0.00

Nlocal:           1536 ave        1536 max        1536 min
Histogram: 1 0 0 0 0 0 0 0 0 0
Nghost:           2887 ave        2887 max        2887 min
Histogram: 1 0 0 0 0 0 0 0 0 0
Neighs:              0 ave           0 max           0 min
Histogram: 1 0 0 0 0 0 0 0 0 0
FullNghs:        58680 ave       58680 max       58680 min
Histogram: 1 0 0 0 0 0 0 0 0 0

Total # of neighbors = 58680
Ave neighs/atom = 38.203125
Ave special neighs/atom = 0
Neighbor list builds = 2000
Dangerous builds = 2000
System init for write_data ...
System init for write_restart ...
Total wall time: 3:44:12
