LAMMPS (29 Sep 2021 - Update 3)
OMP_NUM_THREADS environment is not set. Defaulting to 1 thread. (src/comm.cpp:98)
  using 1 OpenMP thread(s) per MPI task
units	metal
atom_style	full

read_data	mixed.data
Reading data file ...
  orthogonal box = (0.0000000 0.0000000 0.0000000) to (18.492711 18.368364 83.044081)
  2 by 1 by 8 MPI processor grid
  reading atoms ...
  864 atoms
Finding 1-2 1-3 1-4 neighbors ...
  special bond factors lj:    0        0        0       
  special bond factors coul:  0        0        0       
     0 = max # of 1-2 neighbors
     0 = max # of 1-3 neighbors
     0 = max # of 1-4 neighbors
     1 = max # of special neighbors
  special bonds CPU = 0.003 seconds
  read_data CPU = 0.026 seconds

pair_style	quip
pair_coeff	* * /ocean/projects/cts180021p/wuziqi/clease/mint-PD/PhaseDiagram-Clease/Liquid/GAP_potential/gap_LiKCl.xml "Potential xml_label=GAP_2021_9_27_0_1_17_37_618" 17 19 3

neighbor	0.3 bin
neigh_modify	delay 10

timestep	0.001
compute	msd all msd
thermo_style	custom step temp pe etotal press vol c_msd[4]
thermo	10
dump	1 all custom 10 xyz-mix.dump type id x y z
dump	2 all custom 10 force-mix.dump type id fx fy fz

fix     1 all nve
run     2000
Neighbor list info ...
  update every 1 steps, delay 10 steps, check yes
  max neighbors/atom: 2000, page size: 100000
  master list distance cutoff = 6.22
  ghost atom cutoff = 6.22
  binsize = 3.11, bins = 6 6 27
  1 neighbor lists, perpetual/occasional/extra = 1 0 0
  (1) pair quip, perpetual
      attributes: full, newton on
      pair build: full/bin
      stencil: full/bin/3d
      bin: standard
Per MPI rank memory allocation (min/avg/max) = 8.888 | 8.895 | 8.900 Mbytes
Step Temp PotEng TotEng Press Volume c_msd[4] 
       0            0   -7973.6696   -7973.6696   -2874.2394    28208.484            0 
      10    41.278351   -7978.2784   -7973.6737   -2959.4518    28208.484 0.00023887099 
      20    117.01377   -7986.7312   -7973.6782   -2971.9336    28208.484 0.0029537371 
      30    174.81925   -7993.1785   -7973.6771   -2824.2466    28208.484  0.010160551 
      40    218.44962    -7998.045   -7973.6766   -2720.6333    28208.484  0.020641735 
      50    256.00476   -8002.2349   -7973.6771   -2700.3711    28208.484  0.032489043 
      60    281.23595   -8005.0509   -7973.6786   -2720.3164    28208.484  0.045481137 
      70    279.84796   -8004.8936   -7973.6762   -2497.2427    28208.484  0.060875411 
      80    275.57271   -8004.4166   -7973.6761   -2346.6282    28208.484  0.078472831 
      90    275.14134   -8004.3684    -7973.676   -2375.5075    28208.484  0.097756432 
     100    277.97329   -8004.6843   -7973.6759   -2450.2098    28208.484   0.11838341 
     110    284.32121   -8005.3929   -7973.6764   -2585.3887    28208.484    0.1397563 
     120    288.42818   -8005.8514   -7973.6768   -2555.7238    28208.484   0.16133553 
     130    287.27066   -8005.7216   -7973.6761   -2379.8786    28208.484   0.18293983 
     140    286.58177   -8005.6454   -7973.6767   -2199.4073    28208.484   0.20440576 
     150    283.09159    -8005.256   -7973.6767   -2058.8623    28208.484   0.22545748 
     160    281.87093     -8005.12   -7973.6769   -2002.9487    28208.484   0.24504756 
     170    281.00839    -8005.024   -7973.6771   -2057.3307    28208.484   0.26222423 
     180    282.68046     -8005.21   -7973.6765   -2118.7926    28208.484   0.27648184 
     190    291.53832   -8006.1995   -7973.6779   -2237.0667    28208.484   0.28923786 
     200    293.64302   -8006.4325   -7973.6762   -2373.3356    28208.484   0.30372277 
     210    298.64228   -8006.9936   -7973.6796   -2435.1957    28208.484   0.32052492 
     220    292.65421   -8006.3221   -7973.6761   -2273.8456    28208.484   0.33666335 
     230    296.18967   -8006.7198   -7973.6794   -2277.4624    28208.484   0.34931106 
     240    282.07352   -8005.1401   -7973.6743   -2198.7147    28208.484   0.36070053 
     250    293.47873    -8006.417    -7973.679   -2346.9356    28208.484   0.37209929 
     260    294.86866   -8006.5718   -7973.6788   -2406.0825    28208.484   0.38456478 
     270    292.66954   -8006.3399   -7973.6921   -2371.6679    28208.484   0.39632792 
     280    288.22645   -8005.8424   -7973.6903   -2343.9303    28208.484   0.40740341 
     290    280.03766   -8004.9272   -7973.6886   -2399.6918    28208.484   0.41930862 
     300    280.42672   -8004.9707   -7973.6886   -2493.7264    28208.484   0.43203295 
     310    287.66524   -8005.7795     -7973.69   -2540.7382    28208.484   0.44617059 
     320    287.59248   -8005.7709   -7973.6895   -2479.6365    28208.484   0.46153129 
     330    287.30367   -8005.7384   -7973.6892   -2430.7941    28208.484   0.47558463 
     340      291.107   -8006.1632   -7973.6897   -2433.3574    28208.484   0.48761679 
     350    290.07985   -8006.0486   -7973.6898   -2407.8749    28208.484   0.49931209 
     360    283.46216   -8005.3096    -7973.689    -2324.857    28208.484   0.51138392 
     370    283.31611   -8005.2933    -7973.689   -2223.9029    28208.484   0.52363749 
     380    293.81781   -8006.4657   -7973.6899   -2201.7975    28208.484   0.53571675 
     390    300.79692   -8007.2454   -7973.6911   -2203.1603    28208.484   0.54763687 
     400    296.63974     -8006.78   -7973.6894   -2207.2978    28208.484   0.55946952 
     410     295.9675   -8006.7055   -7973.6899    -2389.454    28208.484   0.57119336 
     420    296.34311   -8006.7466   -7973.6891   -2528.2941    28208.484   0.58115249 
     430    302.08464   -8007.3879   -7973.6899   -2546.6384    28208.484   0.58802692 
     440    300.89773   -8007.2566    -7973.691   -2408.1467    28208.484   0.59313659 
     450    295.75798   -8006.6815   -7973.6893   -2201.4544    28208.484   0.59704421 
     460    298.71554   -8007.0127   -7973.6905   -2097.6901    28208.484   0.60034051 
     470    293.57038   -8006.4367   -7973.6885   -1853.8963    28208.484   0.60455383 
     480    299.68957   -8007.1205   -7973.6897   -1687.1392    28208.484   0.60898733 
     490    304.28303    -8007.634   -7973.6908   -1569.5251    28208.484   0.61372446 
     500    297.76534   -8006.9049   -7973.6887   -1520.9163    28208.484   0.61909997 
     510     298.0343    -8006.936   -7973.6898   -1578.3555    28208.484     0.624484 
     520    298.51386   -8006.9892   -7973.6895   -1617.2528    28208.484   0.63055005 
     530    299.67651    -8007.119   -7973.6896   -1583.6011    28208.484   0.63765456 
     540    301.93935   -8007.3714   -7973.6896    -1486.536    28208.484   0.64551302 
     550    304.04909   -8007.6074   -7973.6903   -1392.2763    28208.484    0.6536082 
     560    304.32541   -8007.6381   -7973.6901   -1287.1967    28208.484   0.66116979 
     570    303.65289   -8007.5627   -7973.6898   -1155.3607    28208.484   0.66831766 
     580    306.61685   -8007.8931   -7973.6895   -1197.3354    28208.484   0.67540713 
     590    314.13334   -8008.7329   -7973.6909   -1349.2051    28208.484   0.68183493 
     600    314.58012   -8008.7816   -7973.6897   -1383.1623    28208.484   0.68848067 
     610    313.36382   -8008.6461   -7973.6899   -1339.6031    28208.484   0.69624527 
     620     312.9428   -8008.5985   -7973.6893   -1300.0364    28208.484   0.70606469 
     630    317.72028    -8009.132   -7973.6899   -1341.7477    28208.484   0.71807814 
     640    322.57063   -8009.6733   -7973.6901   -1410.5145    28208.484   0.73069429 
     650    323.60168   -8009.7886   -7973.6903   -1540.2113    28208.484   0.74223138 
     660    318.39172   -8009.2068   -7973.6897   -1568.6259    28208.484   0.75263353 
     670    316.27474   -8008.9702   -7973.6892   -1586.0839    28208.484    0.7619451 
     680    320.95534   -8009.4935   -7973.6904   -1558.4885    28208.484   0.77150239 
     690    319.85933   -8009.3708     -7973.69    -1459.468    28208.484   0.78296875 
     700    315.81982   -8008.9199   -7973.6897   -1330.2989    28208.484   0.79605918 
     710    316.18394   -8008.9601   -7973.6893   -1285.6029    28208.484   0.80930055 
     720    321.99795   -8009.6098   -7973.6904   -1374.2337    28208.484   0.82124899 
     730    320.60154   -8009.4538   -7973.6902   -1440.5044    28208.484   0.83277534 
     740    316.58517   -8009.0043   -7973.6888   -1452.0725    28208.484    0.8439361 
     750    321.27163   -8009.5293    -7973.691   -1655.1798    28208.484     0.854338 
     760    314.38368   -8008.7598   -7973.6899   -1838.5562    28208.484   0.86584884 
     770     305.9368   -8007.8166   -7973.6889   -1999.9526    28208.484   0.87941766 
     780    305.71483   -8007.7927   -7973.6897   -2140.7584    28208.484   0.89394007 
     790    305.84031   -8007.8065   -7973.6896   -2209.2571    28208.484   0.90782838 
     800    306.48205   -8007.8784   -7973.6899   -2275.1918    28208.484   0.92026204 
     810    304.33355   -8007.6388   -7973.6899   -2343.4421    28208.484   0.93178116 
     820    297.82924   -8006.9125   -7973.6892   -2314.2529    28208.484    0.9431626 
     830    296.11711   -8006.7216   -7973.6893   -2340.1192    28208.484   0.95457823 
     840    299.50491   -8007.0998   -7973.6896   -2406.4366    28208.484   0.96506277 
     850    304.52466   -8007.6597   -7973.6895   -2460.7845    28208.484   0.97329313 
     860     310.8399   -8008.3649   -7973.6902   -2449.0401    28208.484   0.97916609 
     870    310.67413   -8008.3459   -7973.6897   -2327.6881    28208.484   0.98350092 
     880    309.42712   -8008.2065   -7973.6894   -2225.4629    28208.484   0.98651824 
     890    311.26126   -8008.4116   -7973.6899    -2248.854    28208.484   0.98981853 
     900    313.26109   -8008.6341   -7973.6893   -2271.1415    28208.484     0.995508 
     910    320.18937   -8009.4082   -7973.6906   -2399.0494    28208.484    1.0049166 
     920    319.06768   -8009.2826   -7973.6901    -2517.896    28208.484    1.0179539 
     930    311.48412   -8008.4358   -7973.6893   -2630.8665    28208.484    1.0322955 
     940    307.33364   -8007.9728   -7973.6893   -2692.4224    28208.484    1.0452919 
     950    306.79072   -8007.9125   -7973.6895   -2690.0291    28208.484    1.0559933 
     960    307.40028   -8007.9805   -7973.6895    -2685.778    28208.484    1.0648912 
     970    308.12458   -8008.0613   -7973.6895   -2650.3957    28208.484    1.0729687 
     980    308.40186   -8008.0924   -7973.6897   -2580.8757    28208.484    1.0808973 
     990    307.35297   -8007.9752   -7973.6895    -2481.356    28208.484    1.0887898 
    1000    307.21435     -8007.96   -7973.6898   -2353.6684    28208.484    1.0961224 
    1010    306.76152   -8007.9091   -7973.6894   -2248.7956    28208.484    1.1027335 
    1020    309.26646    -8008.189   -7973.6898   -2286.0041    28208.484    1.1099454 
    1030    310.25342   -8008.2989   -7973.6897   -2305.1256    28208.484    1.1183111 
    1040    307.62812   -8008.0062   -7973.6898    -2294.831    28208.484    1.1271276 
    1050    300.85261   -8007.2498   -7973.6892   -2274.7356    28208.484    1.1353455 
    1060    298.03491   -8006.9356   -7973.6894   -2274.0022    28208.484    1.1412949 
    1070     298.1827   -8006.9525   -7973.6898   -2240.2755    28208.484    1.1449307 
    1080    298.32389   -8006.9674   -7973.6889   -2186.0158    28208.484    1.1478628 
    1090    304.12167   -8007.6156   -7973.6903   -2224.5843    28208.484    1.1507358 
    1100    303.21342   -8007.5135   -7973.6896   -2273.1413    28208.484    1.1542182 
    1110    302.55349   -8007.4391   -7973.6888   -2350.8777    28208.484    1.1583885 
    1120    311.89752   -8008.4827   -7973.6901   -2437.4889    28208.484     1.162828 
    1130    317.78566     -8009.14   -7973.6905   -2446.8483    28208.484     1.167408 
    1140    311.56568   -8008.4454   -7973.6898   -2410.0182    28208.484    1.1717043 
    1150    303.07264   -8007.4971   -7973.6889   -2380.3816    28208.484    1.1751291 
    1160    303.70308   -8007.5677   -7973.6892    -2470.872    28208.484    1.1775178 
    1170    310.51899   -8008.3284   -7973.6895   -2617.7569    28208.484    1.1788381 
    1180    316.91994   -8009.0426   -7973.6898   -2682.3818    28208.484    1.1790698 
    1190    320.34041   -8009.4241   -7973.6896   -2666.8258    28208.484    1.1789053 
    1200    321.06279   -8009.5055   -7973.6905   -2603.0061    28208.484    1.1796194 
    1210    314.26027   -8008.7456   -7973.6894   -2485.4053    28208.484    1.1821764 
    1220    309.32884    -8008.196   -7973.6899    -2464.998    28208.484    1.1865082 
    1230    306.19371   -8007.8458   -7973.6895   -2530.8384    28208.484    1.1911967 
    1240    306.63151   -8007.8948   -7973.6896   -2616.4378    28208.484    1.1944331 
    1250    309.06475   -8008.1663   -7973.6897   -2607.8093    28208.484    1.1957913 
    1260    312.48643   -8008.5482   -7973.6898    -2462.899    28208.484    1.1957707 
    1270    312.94072   -8008.5995   -7973.6905   -2234.5909    28208.484    1.1949586 
    1280    309.44145   -8008.2076   -7973.6889   -2027.1289    28208.484    1.1941489 
    1290    314.87458   -8008.8149   -7973.6902   -1974.2087    28208.484    1.1943163 
    1300    319.36818   -8009.3159   -7973.6899   -1982.4404    28208.484     1.195877 
    1310    321.84143   -8009.5922   -7973.6903   -1943.5386    28208.484    1.1987306 
    1320    321.73486     -8009.58     -7973.69    -1845.706    28208.484    1.2036004 
    1330    320.53672   -8009.4466   -7973.6902   -1700.8294    28208.484    1.2106875 
    1340    314.45984   -8008.7682   -7973.6898   -1509.1942    28208.484    1.2186301 
    1350    308.88407   -8008.1459   -7973.6894   -1443.5528    28208.484    1.2257175 
    1360    308.85021   -8008.1421   -7973.6894   -1546.3935    28208.484    1.2310073 
    1370    314.64585   -8008.7893   -7973.6901   -1721.3694    28208.484     1.234708 
    1380    316.29012   -8008.9734   -7973.6908   -1817.9195    28208.484    1.2377498 
    1390    307.32275   -8007.9718   -7973.6895   -1803.5548    28208.484    1.2409119 
    1400    301.76471   -8007.3515   -7973.6892   -1859.1426    28208.484    1.2443267 
    1410    303.86241   -8007.5861   -7973.6897   -1936.9087    28208.484    1.2481193 
    1420    306.88628   -8007.9231   -7973.6894   -1917.1497    28208.484    1.2526965 
    1430    311.21927   -8008.4068   -7973.6898   -1887.7633    28208.484    1.2583105 
    1440    313.42496   -8008.6528   -7973.6898   -1851.4527    28208.484    1.2642026 
    1450     313.3569   -8008.6451   -7973.6897   -1798.7574    28208.484     1.269636 
    1460    313.21275   -8008.6295   -7973.6901   -1825.1156    28208.484    1.2754342 
    1470    309.64761   -8008.2313   -7973.6896   -1804.0626    28208.484    1.2823313 
    1480    309.40126   -8008.2029   -7973.6887   -1783.0935    28208.484    1.2890305 
    1490    320.42565   -8009.4341   -7973.6901   -1893.3186    28208.484    1.2938055 
    1500    328.10175   -8010.2905   -7973.6903   -1974.4184    28208.484    1.2976917 
    1510    327.81197   -8010.2577   -7973.6898    -1937.058    28208.484    1.3022885 
    1520     324.2243   -8009.8576   -7973.6899   -1828.5619    28208.484    1.3070588 
    1530    318.99753   -8009.2739   -7973.6893   -1744.3097    28208.484    1.3111416 
    1540    315.99968   -8008.9401   -7973.6899   -1679.5222    28208.484    1.3147163 
    1550    311.82694   -8008.4737   -7973.6889   -1676.3191    28208.484     1.318865 
    1560    315.99733   -8008.9396   -7973.6896   -1782.1266    28208.484    1.3245612 
    1570    321.70035   -8009.5765   -7973.6904   -1943.6277    28208.484    1.3315419 
    1580    318.91113   -8009.2648   -7973.6898   -1980.5418    28208.484     1.338424 
    1590    316.40503   -8008.9842   -7973.6888   -1871.1257    28208.484    1.3448929 
    1600    323.69059   -8009.7984   -7973.6903   -1863.2593    28208.484    1.3517889 
    1610    324.55521    -8009.895   -7973.6903   -1926.3043    28208.484    1.3589892 
    1620    317.22283   -8009.0757    -7973.689    -2033.451    28208.484    1.3640281 
    1630    315.56944   -8008.8917   -7973.6895   -2189.5743    28208.484    1.3650114 
    1640          316   -8008.9396   -7973.6894   -2246.5115    28208.484     1.363698 
    1650     317.3618   -8009.0917   -7973.6895   -2167.3771    28208.484    1.3628757 
    1660    317.92845   -8009.1553   -7973.6899   -2101.0814    28208.484    1.3639966 
    1670    314.61233   -8008.7852   -7973.6897   -2010.9785    28208.484    1.3669961 
    1680    312.18324   -8008.5133   -7973.6888   -2055.2147    28208.484     1.371293 
    1690    317.45918   -8009.1028   -7973.6897    -2191.224    28208.484    1.3761955 
    1700    321.08797   -8009.5076   -7973.6898   -2266.1824    28208.484    1.3813209 
    1710    322.36089   -8009.6492   -7973.6893   -2262.0514    28208.484    1.3861808 
    1720    325.18317   -8009.9643   -7973.6896   -2258.3202    28208.484    1.3904451 
    1730    326.15411   -8010.0728   -7973.6898    -2317.316    28208.484     1.394947 
    1740     323.8725   -8009.8181   -7973.6896   -2287.8062    28208.484    1.4007384 
    1750    320.41839   -8009.4325   -7973.6894   -2200.4994    28208.484    1.4075406 
    1760     319.2517   -8009.3028   -7973.6898   -2148.7833    28208.484     1.414045 
    1770    317.70647   -8009.1306     -7973.69    -2060.265    28208.484    1.4199919 
    1780    313.91842   -8008.7076   -7973.6895   -1900.1987    28208.484    1.4259827 
    1790    313.00692   -8008.6058   -7973.6894   -1752.6987    28208.484    1.4322179 
    1800     316.3606   -8008.9805     -7973.69   -1656.4741    28208.484    1.4376798 
    1810    317.06323    -8009.059   -7973.6901   -1611.9912    28208.484    1.4414287 
    1820    314.75826    -8008.801   -7973.6892    -1594.078    28208.484    1.4434919 
    1830    319.39788   -8009.3191   -7973.6898   -1580.2478    28208.484    1.4448335 
    1840    326.94741   -8010.1618   -7973.6903   -1586.0007    28208.484    1.4478206 
    1850     328.2751   -8010.3099   -7973.6903   -1510.9657    28208.484    1.4534245 
    1860    325.54844   -8010.0044    -7973.689   -1434.8489    28208.484    1.4597334 
    1870    330.22766   -8010.5276   -7973.6902   -1485.8246    28208.484    1.4649668 
    1880    331.47708   -8010.6665   -7973.6897   -1548.2944    28208.484    1.4702024 
    1890    330.21474   -8010.5256   -7973.6896   -1516.0861    28208.484    1.4764703 
    1900    331.58833   -8010.6782    -7973.689   -1442.8287    28208.484    1.4834549 
    1910    337.92691   -8011.3872    -7973.691   -1475.0881    28208.484    1.4904186 
    1920     332.3277   -8010.7614   -7973.6897   -1417.3686    28208.484    1.4973123 
    1930    326.40875   -8010.1005   -7973.6891    -1294.946    28208.484    1.5028962 
    1940    327.61985   -8010.2367   -7973.6902   -1344.4187    28208.484    1.5071937 
    1950    326.33555   -8010.0933   -7973.6901   -1454.2005    28208.484    1.5117741 
    1960    320.98412   -8009.4961   -7973.6898    -1539.947    28208.484    1.5179832 
    1970    316.38994    -8008.983   -7973.6892   -1494.5471    28208.484    1.5266599 
    1980    318.66568   -8009.2379   -7973.6903    -1430.619    28208.484     1.537506 
    1990    319.09324   -8009.2848   -7973.6895   -1383.3475    28208.484     1.548395 
    2000    324.20331   -8009.8559   -7973.6905   -1553.3118    28208.484     1.556546 
Loop time of 1554.45 on 16 procs for 2000 steps with 864 atoms

Performance: 0.111 ns/day, 215.896 hours/ns, 1.287 timesteps/s
96.1% CPU use with 16 MPI tasks x 1 OpenMP threads

MPI task timing breakdown:
Section |  min time  |  avg time  |  max time  |%varavg| %total
---------------------------------------------------------------
Pair    | 969.58     | 1190.2     | 1378.2     | 341.6 | 76.57
Bond    | 0.0002017  | 0.00052759 | 0.00092649 |   0.0 |  0.00
Neigh   | 0.021511   | 0.049713   | 0.17322    |  21.4 |  0.00
Comm    | 163.47     | 350.69     | 575.26     | 626.7 | 22.56
Output  | 9.3558     | 13.306     | 20.887     |  89.0 |  0.86
Modify  | 0.011642   | 0.013056   | 0.01528    |   0.9 |  0.00
Other   |            | 0.1443     |            |       |  0.01

Nlocal:        54.0000 ave          63 max          48 min
Histogram: 5 0 1 2 2 1 1 2 0 2
Nghost:        409.688 ave         449 max         386 min
Histogram: 3 3 1 3 2 1 1 0 0 2
Neighs:         0.00000 ave           0 max           0 min
Histogram: 16 0 0 0 0 0 0 0 0 0
FullNghs:      1604.62 ave        2106 max        1301 min
Histogram: 5 0 2 2 2 0 2 1 1 1

Total # of neighbors = 25674
Ave neighs/atom = 29.715278
Ave special neighs/atom = 0.0000000
Neighbor list builds = 199
Dangerous builds = 198
unfix   1

velocity    all create 975.0 1312343 dist gaussian
fix     2 all npt temp 975.0 975.0 $(100.0*dt) aniso 0.0 1.01325 $(1000.0*dt)
fix     2 all npt temp 975.0 975.0 0.10000000000000000555 aniso 0.0 1.01325 $(1000.0*dt)
fix     2 all npt temp 975.0 975.0 0.10000000000000000555 aniso 0.0 1.01325 1
run     3000
Per MPI rank memory allocation (min/avg/max) = 8.893 | 8.897 | 8.900 Mbytes
Step Temp PotEng TotEng Press Volume c_msd[4] 
    2000          975   -8009.8559   -7901.0932    1195.5956    28208.484     1.556546 
    2010    908.62535   -8002.4317   -7901.0732    1549.2862    28209.788    1.5613672 
    2020    802.89811   -7990.4922   -7900.9277     2092.164    28214.304    1.5722581 
    2030    728.37471    -7981.763   -7900.5117    2544.8435    28223.102    1.5848502 
    2040    678.37284   -7975.4199   -7899.7464    2869.6496    28237.121    1.6000233 
    2050    651.57295   -7971.3333   -7898.6493     2877.673     28257.02     1.619942 
    2060    646.25209   -7969.4568   -7897.3664    2577.8631    28282.849    1.6449227 
    2070    647.20117   -7968.3237   -7896.1275    2027.6532    28314.025     1.673279 
    2080    658.46692   -7968.4606   -7895.0076    1218.8886    28349.422    1.7027207 
    2090    653.83312   -7966.8502   -7893.9141    679.34633    28387.485    1.7330277 
    2100    642.36167   -7964.4179   -7892.7615    433.71247    28427.092    1.7642937 
    2110    632.53772   -7962.0514   -7891.4908    518.17001    28467.752    1.7947218 
    2120    635.42094    -7960.984   -7890.1018    655.58939    28509.565    1.8224984 
    2130    638.05881   -7959.7966   -7888.6201    721.82766    28552.791    1.8480562 
    2140     644.7886   -7959.0153   -7887.0882    558.35207    28597.538      1.87049 
    2150    673.75779   -7960.6404   -7885.4817     85.60163    28643.424    1.8887247 
    2160    699.51639   -7961.8246   -7883.7925    -282.5301     28689.51    1.9055576 
    2170    714.50819   -7961.7642   -7882.0598   -468.45681    28735.007    1.9244597 
    2180    722.52432   -7960.9028   -7880.3041   -549.97685    28779.475      1.94677 
    2190    727.01974     -7959.63   -7878.5299    -598.8698    28822.699    1.9707018 
    2200    730.00044   -7958.1648   -7876.7321   -687.65982    28864.537    1.9938236 
    2210    728.82511   -7956.2149   -7874.9134   -857.45527    28904.764    2.0153223 
    2220    722.98274   -7953.7289   -7873.0791   -825.98991    28943.067    2.0340458 
    2230    721.40166   -7951.7073   -7871.2338   -772.51402     28979.45    2.0493707 
    2240     727.9698   -7950.5713   -7869.3652    -825.6169    29013.982    2.0632736 
    2250    736.87316   -7949.6679   -7867.4686   -700.77442    29046.619    2.0784987 
    2260    750.33064    -7949.255   -7865.5545   -630.03303    29077.578    2.0958903 
    2270    773.18874   -7949.8585   -7863.6082   -756.32295    29106.981    2.1156345 
    2280    783.62726   -7949.0608    -7861.646   -792.62032    29134.619    2.1392686 
    2290    788.47079    -7947.652   -7859.6969   -825.81172     29160.39    2.1672323 
    2300    799.46999   -7946.9334   -7857.7513   -698.52984    29184.257    2.1980515 
    2310    801.85126   -7945.2584   -7855.8107   -254.58437    29206.551    2.2297936 
    2320    814.96731   -7944.7823   -7853.8715   -50.370708    29228.128     2.260121 
    2330    835.13121   -7945.0767   -7851.9166   -134.05839    29249.434    2.2880728 
    2340    842.45492   -7943.9417   -7849.9646   -114.01875    29270.374    2.3138675 
    2350    846.66314   -7942.4906   -7848.0441   -18.143142    29290.977      2.33721 
    2360    857.46533   -7941.7918   -7846.1402   -111.15236    29311.398    2.3582784 
    2370     859.7342   -7940.1525   -7844.2478    -219.5462    29331.483    2.3801546 
    2380    858.19542   -7938.1167   -7842.3837   -235.56079    29351.018     2.406637 
    2390    857.34556   -7936.1684   -7840.5302   -221.50989    29369.948    2.4383353 
    2400    867.73724   -7935.4768   -7838.6794   -161.65536    29388.322    2.4745831 
    2410    880.97423   -7935.0947   -7836.8207   -122.91874    29406.266    2.5143612 
    2420    886.85846    -7933.909   -7834.9786   -142.60837     29423.85    2.5541815 
    2430    879.43013   -7931.2714   -7833.1697   -108.79417    29441.063    2.5899483 
    2440    883.10001   -7929.8955   -7831.3844   -109.47594    29457.971    2.6202137 
    2450    900.63526   -7930.0554   -7829.5882   -281.35217    29474.542    2.6478888 
    2460    908.70421   -7929.1666   -7827.7992   -245.63596     29490.48    2.6766904 
    2470     903.8685   -7926.8785   -7826.0506    -8.435124    29505.855    2.7079372 
    2480    903.89675   -7925.1711   -7824.3401    40.096969    29521.118    2.7423405 
    2490    912.28212   -7924.4054   -7822.6389    -61.99902    29536.394    2.7803527 
    2500    921.22289   -7923.7161   -7820.9523   -212.59286    29551.475    2.8199591 
    2510    929.79358   -7923.0092   -7819.2893   -227.42979    29566.069    2.8582128 
    2520    945.38306   -7923.1159    -7817.657   -122.85774    29580.146    2.8930343 
    2530    975.84874   -7924.9171   -7816.0597   -160.65794    29593.883    2.9230773 
    2540    1001.9851   -7926.3022   -7814.5293   -190.28235    29607.229    2.9504489 
    2550    1016.0911   -7926.4668   -7813.1203   -124.68832    29620.143    2.9804166 
    2560    1019.3309   -7925.5647   -7811.8568   -48.961626    29632.755    3.0161431 
    2570    1010.9473   -7923.5164   -7810.7437   -7.4010657    29645.231    3.0551872 
    2580    998.16374   -7921.1009   -7809.7542   -102.03371    29657.642    3.0929617 
    2590    997.41558   -7920.1071   -7808.8439   -249.84128    29669.784    3.1284259 
    2600    1012.4271   -7920.9356   -7807.9978   -296.49194    29681.363     3.163323 
    2610    1026.6482   -7921.7626   -7807.2385   -337.90321    29692.245    3.1997122 
    2620    1025.8557   -7921.0397   -7806.6039   -229.88474    29702.353     3.237935 
    2630    1009.7768   -7918.7356   -7806.0935     10.21947    29711.946    3.2755072 
    2640    1005.8151   -7917.8803   -7805.6801   -23.462336    29721.492    3.3099732 
    2650    1000.4938   -7916.9436    -7805.337   -182.46377    29730.965    3.3437649 
    2660    998.57662   -7916.4501   -7805.0574   -551.86049    29739.955    3.3796972 
    2670    996.13719   -7915.9495   -7804.8289   -878.09983    29747.696    3.4174639 
    2680    996.78125   -7915.8398   -7804.6473   -1151.3389    29753.427    3.4548278 
    2690    1001.7609   -7916.2662   -7804.5182   -1246.1912    29756.559     3.490751 
    2700    996.92747   -7915.6499   -7804.4411   -1092.3669    29756.914    3.5253471 
    2710    1000.8157   -7916.0672   -7804.4248   -894.26642    29754.804    3.5576784 
    2720    993.86507   -7915.3299   -7804.4628   -652.43103    29750.685    3.5880201 
    2730    984.01699   -7914.3124   -7804.5438   -318.91567    29745.142    3.6156086 
    2740    972.37688   -7913.1119   -7804.6418   -163.00108    29738.856    3.6416891 
    2750    964.66407   -7912.3454   -7804.7357   -136.42517    29732.193    3.6680184 
    2760    953.07211   -7911.1218   -7804.8052   -83.033951    29725.275    3.6943548 
    2770    951.70729   -7910.9904    -7804.826   -248.08173    29718.174    3.7197109 
    2780    968.39804   -7912.8293   -7804.8031   -690.48879    29710.484    3.7443648 
    2790    984.80585   -7914.6224   -7804.7658   -999.30951    29701.308    3.7676995 
    2800    991.50862   -7915.3472   -7804.7429   -1092.8958    29689.963    3.7879799 
    2810    990.67517   -7915.2693    -7804.758   -914.67066    29676.248    3.8062158 
    2820    978.63094   -7913.9653   -7804.7975   -537.53029    29660.588    3.8263853 
    2830    973.11516   -7913.3998   -7804.8474   -391.96506    29643.748    3.8503259 
    2840    965.44533   -7912.5905   -7804.8936   -311.10364    29626.114    3.8770662 
    2850     944.5184   -7910.2724     -7804.91   -208.76577    29607.887    3.9045274 
    2860    932.91781   -7908.9323   -7804.8639   -136.28286    29589.291    3.9279845 
    2870     934.6594   -7908.9955   -7804.7328   -119.21601    29570.497    3.9427566 
    2880     936.0456   -7908.9283    -7804.511   -88.414762    29551.575    3.9485614 
    2890    948.81972   -7910.0567   -7804.2144   -180.22141    29532.557    3.9497424 
    2900    959.73475   -7910.9219   -7803.8621   -208.55262    29513.289    3.9511981 
    2910    961.93577   -7910.7786   -7803.4733    -64.34322    29493.741    3.9540563 
    2920    974.62426   -7911.7777   -7803.0569   -53.446159    29474.163    3.9573339 
    2930    981.87839    -7912.153    -7802.623   -234.78498    29454.571    3.9611799 
    2940    978.96265    -7911.398   -7802.1933    -220.8275    29434.669    3.9686224 
    2950    975.72344   -7910.6149   -7801.7715   -125.07358    29414.451    3.9812858 
    2960    981.55887   -7910.8449   -7801.3505   -34.830199    29394.124     3.995628 
    2970    1006.8897   -7913.2663   -7800.9462    108.82865    29373.898    4.0072031 
    2980    1015.8188   -7913.9124   -7800.5963    324.80273    29354.096    4.0171394 
    2990    1015.9115    -7913.661   -7800.3345    535.24155    29335.198    4.0280721 
    3000    1011.1838   -7912.9601    -7800.161    742.23586    29317.664    4.0422548 
    3010    1013.4046   -7913.1279   -7800.0811     954.1907    29301.926     4.060136 
    3020    1004.5374   -7912.1404   -7800.0827    1094.2196    29288.419    4.0802797 
    3030    1015.2078   -7913.4202   -7800.1722    942.15249    29277.366    4.1000704 
    3040     1014.218   -7913.4912   -7800.3536    956.21792    29268.529    4.1230591 
    3050    1005.7741    -7912.821   -7800.6254    1046.2433    29261.886    4.1513417 
    3060    1002.2628   -7912.7835   -7800.9795    1047.8551    29257.578    4.1822799 
    3070    980.46273   -7910.7552   -7801.3832    999.52846    29255.611    4.2144416 
    3080    971.46745   -7910.1766    -7801.808    857.44586    29255.837    4.2451188 
    3090    964.56301   -7909.8196   -7802.2211    878.69112    29257.993    4.2737413 
    3100    963.00646   -7910.0464   -7802.6216    766.32253    29262.025    4.3006375 
    3110    940.22425   -7907.8631   -7802.9796    878.50268    29267.772    4.3261849 
    3120    943.50989   -7908.5215   -7803.2715    715.59742    29275.336    4.3516022 
    3130    966.39801    -7911.296   -7803.4928    368.70218    29284.369    4.3774006 
    3140    996.71031   -7914.8876   -7803.7031    210.26416    29294.176    4.4027187 
    3150    1012.2053   -7916.8694   -7803.9564     290.4015    29304.424    4.4289499 
    3160    1029.8137   -7919.1861   -7804.3089    377.53037    29315.201    4.4560018 
    3170    1007.0153   -7917.1015   -7804.7675     622.1472    29326.759    4.4847488 
    3180    988.38024   -7915.5504   -7805.2951    472.92985    29339.498    4.5151271 
    3190    970.08431   -7914.0534    -7805.839    268.95369    29353.158    4.5474044 
    3200     953.1651   -7912.6931   -7806.3661    211.56862    29367.312    4.5811267 
    3210    947.36444   -7912.5243   -7806.8444    119.79181    29381.781    4.6151908 
    3220    944.86173   -7912.6598   -7807.2591    46.102806    29396.378    4.6500383 
    3230    949.71298   -7913.5511   -7807.6092    -67.50639    29410.924     4.683514 
    3240    947.45678   -7913.5832   -7807.8929   -116.00908    29425.188    4.7126535 
    3250    942.53469   -7913.2533   -7808.1122   -153.97293    29439.022    4.7380715 
    3260    938.91731   -7912.9975   -7808.2599   -163.41715    29452.368    4.7627617 
    3270    949.37456   -7914.2434   -7808.3392   -264.71396    29465.169    4.7882515 
    3280    962.34761   -7915.7127   -7808.3614    -324.0126    29477.235    4.8146337 
    3290    978.50486   -7917.5158   -7808.3622    -217.6861    29488.469    4.8427883 
    3300    984.43131   -7918.1864   -7808.3716   -216.05664    29499.042    4.8762846 
    3310    980.25055    -7917.752   -7808.4036   -187.15316    29509.017    4.9173308 
    3320    986.00443   -7918.4492   -7808.4589   -189.97266    29518.443    4.9626208 
    3330    996.39877   -7919.6903   -7808.5405   -185.89387    29527.313    5.0083654 
    3340    987.09832   -7918.7674   -7808.6551    202.59874    29535.728    5.0529092 
    3350    974.70727   -7917.5254   -7808.7954    655.95308    29544.485    5.0977078 
    3360    963.41077    -7916.405    -7808.935    927.15063    29554.566    5.1453449 
    3370    960.58182   -7916.2122   -7809.0579    692.08247    29566.461    5.1953962 
    3380     960.1318    -7916.243   -7809.1388    214.73647     29579.69    5.2454227 
    3390    977.17495   -7918.1964    -7809.191   -264.58033    29593.194    5.2938613 
    3400     971.9664   -7917.6512   -7809.2269   -319.74981    29606.003    5.3420826 
    3410    988.50048   -7919.5462   -7809.2775   -487.69446    29617.861    5.3911223 
    3420    989.26134   -7919.7058   -7809.3522   -571.39969    29628.451    5.4440983 
    3430     971.4496   -7917.8308   -7809.4641   -456.15145     29637.63    5.5021287 
    3440    943.09932   -7914.7693   -7809.5651   -343.32225    29645.654    5.5624886 
    3450    934.87914   -7913.8912    -7809.604   -410.13255     29652.77     5.619722 
    3460    939.84801   -7914.4025   -7809.5611   -527.65108    29658.847    5.6702708 
    3470    928.97815   -7913.0654   -7809.4365   -422.18885    29663.676    5.7156989 
    3480     931.8376   -7913.1694   -7809.2216    -253.5865     29667.49    5.7577442 
    3490    938.79035   -7913.6338   -7808.9103   -8.9953294    29670.716    5.7956285 
    3500    939.20985   -7913.2873   -7808.5171    134.67749    29673.858    5.8282173 
    3510     954.7408   -7914.5492   -7808.0464    1.2724127    29677.193    5.8570952 
    3520    975.51249    -7916.341   -7807.5211    -244.5144    29680.458    5.8856751 
    3530    984.56759   -7916.8151   -7806.9851   -332.48672    29683.159    5.9181884 
    3540    980.47167   -7915.8391    -7806.466   -315.99401    29685.089    5.9564763 
    3550    966.55238   -7913.7792   -7805.9588   -131.74859    29686.324      5.99784 
    3560    964.62907   -7913.0529   -7805.4471    111.66503    29687.276    6.0358979 
    3570    961.42204   -7912.1631    -7804.915    81.035627    29688.421    6.0686112 
    3580    964.62296   -7911.9671    -7804.362   -230.30243    29689.688    6.0979237 
    3590    981.20692   -7913.2458   -7803.7907   -609.32881    29690.406    6.1267749 
    3600    991.50461   -7913.8315   -7803.2277   -788.18526    29689.781    6.1570232 
    3610    976.94577   -7911.6836   -7802.7038   -781.89356    29687.437    6.1895649 
    3620    955.33813   -7908.7697   -7802.2003   -798.93707    29683.387    6.2247299 
    3630    969.47489    -7909.826   -7801.6796   -1077.4654    29677.559    6.2604944 
    3640    979.10091   -7910.3684   -7801.1482   -1279.3668    29669.418    6.2930226 
    3650    967.41709   -7908.5467   -7800.6298   -1290.8371     29658.58    6.3175698 
    3660    969.10246   -7908.2155   -7800.1107   -1270.1544    29645.041    6.3300585 
    3670    1005.4875   -7911.7505   -7799.5868    -1271.205    29628.895    6.3304864 
    3680    1022.6935   -7913.1917   -7799.1087   -1075.6344    29610.249    6.3276111 
    3690     1020.678   -7912.5868   -7798.7286   -751.08017    29589.568    6.3302844 
    3700    1018.9354   -7912.1132   -7798.4494   -559.32478    29567.572    6.3400947 
    3710    1003.8644   -7910.2453   -7798.2627   -412.75737    29544.758    6.3558003 
    3720    987.32164   -7908.2762    -7798.139   -351.41904    29521.467    6.3734241 
    3730    981.70002   -7907.5551    -7798.045    -431.8309    29497.823    6.3881836 
    3740    966.27389   -7905.7398   -7797.9505    -191.4735    29473.763    6.3985421 
    3750    960.23379   -7904.9486   -7797.8331    165.74776    29449.812    6.4070081 
    3760    976.53908   -7906.6234    -7797.689    126.80857    29426.646    6.4195342 
    3770    999.25556    -7909.017   -7797.5485    95.398674    29404.266    6.4370425 
    3780    1020.3607   -7911.2893   -7797.4666     160.9284    29382.589    6.4582163 
    3790    1020.4688   -7911.3223   -7797.4875    379.87268    29361.752    6.4843449 
    3800    1001.2762   -7909.3028    -7797.609    863.92746    29342.267    6.5150443 
    3810    995.39107   -7908.8384    -7797.801    1085.0659    29325.053    6.5472441 
    3820    978.60956   -7907.2011   -7798.0358    1090.1402     29310.55    6.5780606 
    3830    946.28316   -7903.8244   -7798.2651    1122.5311    29298.766    6.6060644 
    3840    946.33301   -7904.0082   -7798.4434     973.7062    29289.658    6.6285427 
    3850    966.73079   -7906.4199   -7798.5796    746.25241    29282.849    6.6474314 
    3860    970.66292   -7906.9745   -7798.6956     625.5041    29277.864    6.6657855 
    3870    1001.6139   -7910.5571   -7798.8256   -15.044048    29274.234    6.6825278 
    3880    1001.0237    -7910.672   -7799.0063   -467.09806    29270.696    6.6989887 
    3890    981.84245   -7908.7671   -7799.2411   -666.38455    29266.273    6.7185027 
    3900    986.28204   -7909.5255   -7799.5043   -972.23537    29260.476    6.7406225 
    3910    982.18935    -7909.353   -7799.7883   -1027.3173    29252.735    6.7622368 
    3920    971.74512   -7908.4849   -7800.0852   -614.77606     29243.02    6.7827534 
    3930    964.06831   -7907.9211   -7800.3778   -35.989202    29232.208    6.8062691 
    3940    949.66677   -7906.5687    -7800.632    332.69216    29221.521    6.8338093 
    3950    960.89495   -7908.0352    -7800.846    174.61327    29211.675    6.8612225 
    3960    969.88798   -7909.2254    -7801.033    142.88573    29202.472    6.8865348 
    3970    969.22849   -7909.3278   -7801.2089    338.35845    29193.846    6.9085782 
    3980    983.33841   -7911.0752   -7801.3824    367.70102    29186.126    6.9222008 
    3990    1003.7174   -7913.5598   -7801.5936    300.61039    29179.363    6.9270394 
    4000    986.88054   -7911.9479   -7801.8599    498.28906    29173.471    6.9326161 
    4010    969.10362   -7910.2589    -7802.154    561.50049    29168.768    6.9462497 
    4020    964.73054   -7910.0513   -7802.4341    455.06574    29165.373    6.9652689 
    4030    972.02597   -7911.1261   -7802.6952    293.21475    29163.044    6.9810308 
    4040    992.16489   -7913.6407   -7802.9632     137.5594    29161.416    6.9921058 
    4050    1003.1708   -7915.1862    -7803.281    82.588576    29160.154    7.0024777 
    4060    986.31439   -7913.6848     -7803.66    279.42968    29159.155    7.0141451 
    4070    956.84646   -7910.7969   -7804.0592    585.52878    29158.805    7.0275224 
    4080    943.94148   -7909.7207   -7804.4226    672.09278    29159.708    7.0454824 
    4090    941.35652   -7909.7316   -7804.7218    629.14457     29162.04    7.0725871 
    4100     946.8517   -7910.5729   -7804.9502    603.47648    29165.688    7.1081984 
    4110    956.86587   -7911.8557   -7805.1159    607.97812    29170.569    7.1482535 
    4120    961.14187   -7912.4574   -7805.2406    606.30613    29176.655    7.1900692 
    4130    953.56532   -7911.7061   -7805.3345     638.7497    29183.933    7.2334281 
    4140    952.49673   -7911.6345    -7805.382     586.4415    29192.433    7.2751503 
    4150    961.84488   -7912.6846   -7805.3893    142.42233    29201.926    7.3158604 
    4160    938.05897    -7909.998   -7805.3561   0.69730026    29211.577    7.3589061 
    4170    922.41246   -7908.1489   -7805.2524    161.95224    29221.061    7.3992641 
    4180    919.56896   -7907.6107   -7805.0314    390.57758    29230.706    7.4305939 
    4190    930.75274   -7908.5073   -7804.6804    404.76772    29240.951    7.4532349 
    4200    948.59655   -7910.0298   -7804.2124    460.89674    29251.879    7.4766202 
    4210    954.17042    -7910.103   -7803.6639    493.84959    29263.575    7.5098592 
    4220    947.43705    -7908.744   -7803.0559    427.23824    29276.085     7.553652 
    4230    948.94558   -7908.2504   -7802.3941    389.18917    29289.272    7.6039051 
    4240    973.38212   -7910.2695   -7801.6873    486.14494    29303.078    7.6585631 
    4250    1001.4125   -7912.6914   -7800.9824    566.03757    29317.668     7.717419 
    4260    1007.2052   -7912.7016   -7800.3463    561.34713     29333.19    7.7756054 
    4270    988.92515   -7910.1235   -7799.8074    550.69994     29349.65    7.8266778 
    4280    967.81437   -7907.2948   -7799.3336    580.48758    29367.031    7.8693346 
    4290    958.87565   -7905.8363   -7798.8723    565.47583    29385.351    7.9104649 
    4300    958.46259   -7905.3179      -7798.4    781.55732    29404.626    7.9541982 
    4310    953.67373   -7904.2953   -7797.9116    1297.3021    29425.356    7.9987747 
    4320    962.70243   -7904.8021   -7797.4112    1345.7658    29448.481    8.0425194 
    4330     961.1367   -7904.1104   -7796.8942     1067.259    29474.156    8.0821394 
    4340    973.05448   -7904.9171   -7796.3714    596.14476    29501.743    8.1156038 
    4350     980.8751   -7905.2714   -7795.8533    423.75587    29530.266    8.1490371 
    4360    977.14479   -7904.3679    -7795.366    655.61455    29559.387    8.1880335 
    4370    989.58324   -7905.3067   -7794.9172    547.97613    29589.457     8.233266 
    4380    984.74679   -7904.3506   -7794.5006     304.8173    29620.289    8.2841044 
    4390    994.65719   -7905.0815    -7794.126   -112.93978    29651.309    8.3400172 
    4400    1016.8044   -7907.2178   -7793.7918   -642.22135    29681.606    8.3959876 
    4410    1035.0855   -7909.0206   -7793.5553   -1280.5371    29709.983     8.448537 
    4420    1021.9293   -7907.4395   -7793.4418   -1538.2196    29735.154    8.4986858 
    4430    1022.4666   -7907.5142   -7793.4565   -1831.1591    29756.465    8.5450811 
    4440    1020.1833   -7907.3874   -7793.5844   -2087.1422    29773.337    8.5843489 
    4450    997.50238   -7905.0818   -7793.8089   -2171.9398    29785.275    8.6118087 
    4460    985.51476   -7904.0288   -7794.0932   -2114.5557    29792.162    8.6269123 
    4470    983.60305   -7904.1374    -7794.415   -1918.3075    29794.197     8.632915 
    4480     997.0082   -7906.0011   -7794.7833   -1717.4553    29791.861    8.6322863 
    4490    1015.5804   -7908.5287   -7795.2392   -1719.3201    29785.606     8.633172 
    4500    1002.6485   -7907.6404   -7795.7935   -1532.3327    29775.591     8.645949 
    4510    982.60815   -7906.0359   -7796.4244   -1353.6459    29762.217    8.6748327 
    4520    960.18753   -7904.1757   -7797.0653   -1076.1239    29745.975     8.711684 
    4530    958.65398   -7904.6182    -7797.679   -864.70103    29727.478    8.7472688 
    4540     969.9037   -7906.4522    -7798.258   -684.05953    29707.264    8.7805083 
    4550    985.57261   -7908.7724   -7798.8303   -664.87963    29685.738    8.8098121 
    4560    988.50589   -7909.6864   -7799.4171   -599.44585    29663.029    8.8343187 
    4570    989.85712   -7910.4443   -7800.0242   -651.06572    29639.242    8.8556021 
    4580    979.55643   -7909.9073   -7800.6363   -760.02269    29614.304    8.8744332 
    4590    965.32118   -7908.9144   -7801.2313   -801.23436    29588.036    8.8899877 
    4600    954.67927   -7908.2681   -7801.7722   -768.12238    29560.373    8.9010714 
    4610    962.19959     -7909.58   -7802.2452   -768.63383    29531.375    8.9074308 
    4620    968.49169   -7910.6904   -7802.6537   -603.62468    29501.117    8.9097793 
    4630    966.58991   -7910.8279   -7803.0033   -234.89435    29470.016    8.9121387 
    4640    974.12118   -7911.9658   -7803.3011    15.171788    29438.842    8.9202983 
    4650     986.2517   -7913.5775   -7803.5596    232.91284    29408.201    8.9385233 
    4660    985.92094    -7913.778   -7803.7971     506.6274    29378.581    8.9666663 
    4670    978.93655   -7913.2225   -7804.0206    801.78052     29350.57    9.0005392 
    4680     963.8672   -7911.7324   -7804.2116    1033.7379    29324.786    9.0365972 
    4690    955.05226   -7910.8875     -7804.35    1149.2511    29301.689    9.0714036 
    4700    944.75248   -7909.8093   -7804.4207    1238.0779    29281.485    9.1015368 
    4710    928.25725   -7907.9575    -7804.409     1421.103    29264.356     9.126889 
    4720    932.89484   -7908.3797   -7804.3139    1415.6513    29250.574    9.1526367 
    4730    935.86144     -7908.54   -7804.1432    1266.2994    29240.098    9.1845874 
    4740    946.54914    -7909.513   -7803.9241    777.07507    29232.498    9.2220968 
    4750    957.97619   -7910.5417    -7803.678      350.983    29226.752    9.2612919 
    4760     963.2697    -7910.887   -7803.4328    260.75095    29221.937    9.2968513 
    4770    952.91528   -7909.4862   -7803.1871    401.79157    29217.822    9.3300701 
    4780     943.0838   -7908.1195   -7802.9171    484.84287    29214.655    9.3639549 
    4790    965.53945   -7910.3276   -7802.6203    322.94349    29212.534    9.3956982 
    4800    957.45854   -7909.1106   -7802.3046     538.7368    29211.253    9.4242598 
    4810    968.38203   -7910.0175    -7801.993    621.58023    29211.144     9.452342 
    4820    979.08137   -7910.8971   -7801.6791    826.45652    29212.433    9.4792549 
    4830    988.05246   -7911.6146   -7801.3959    1038.6858     29215.51    9.4988932 
    4840    1001.2574   -7912.8529   -7801.1612    1055.0285    29220.785    9.5118245 
    4850    992.53616   -7911.7122   -7800.9933    1115.1638    29228.309    9.5247449 
    4860    972.94727   -7909.4004   -7800.8667    1165.5485    29238.186    9.5389459 
    4870    970.56894     -7909.02   -7800.7516    1109.0383    29250.464     9.550155 
    4880    953.46683   -7906.9837   -7800.6231    1497.1689    29265.138    9.5595293 
    4890     955.8001   -7907.0902   -7800.4693    1715.0932    29282.894    9.5679925 
    4900    977.91328     -7909.37   -7800.2823    1499.1225     29304.13    9.5804647 
    4910    991.19478   -7910.6618   -7800.0925     1221.291    29328.425    9.6041359 
    4920     984.6044   -7909.7574   -7799.9233    1000.9867    29355.187    9.6405901 
    4930    969.87213   -7907.9554   -7799.7647    722.14664    29383.881    9.6901208 
    4940    957.98183   -7906.4559   -7799.5916    622.32774    29413.929    9.7489565 
    4950    953.85476   -7905.7806   -7799.3767    520.11171     29445.07    9.8064428 
    4960    960.95579   -7906.3005   -7799.1045    149.02072    29477.011      9.85823 
    4970    965.32279    -7906.449   -7798.7658    -216.6582    29508.973      9.90671 
    4980    972.40251   -7906.8454   -7798.3724   -334.57521    29540.206    9.9512546 
    4990    981.43153   -7907.4231   -7797.9429   -263.86444    29570.436    9.9906971 
    5000    979.02251    -7906.698   -7797.4865    -45.11686    29599.827    10.028924 
Loop time of 2604.57 on 16 procs for 3000 steps with 864 atoms

Performance: 0.100 ns/day, 241.164 hours/ns, 1.152 timesteps/s
96.5% CPU use with 16 MPI tasks x 1 OpenMP threads

MPI task timing breakdown:
Section |  min time  |  avg time  |  max time  |%varavg| %total
---------------------------------------------------------------
Pair    | 1963.3     | 2183.1     | 2378.3     | 296.9 | 83.82
Bond    | 0.00033021 | 0.00080061 | 0.0013876  |   0.0 |  0.00
Neigh   | 0.033598   | 0.036351   | 0.039869   |   0.9 |  0.00
Comm    | 103.68     | 294.82     | 516.52     | 806.5 | 11.32
Output  | 0.65384    | 0.67409    | 0.97595    |   9.5 |  0.03
Modify  | 107.5      | 125.91     | 138.13     |  83.9 |  4.83
Other   |            | 0.02033    |            |       |  0.00

Nlocal:        54.0000 ave          61 max          46 min
Histogram: 1 0 2 1 3 3 2 1 1 2
Nghost:        397.500 ave         416 max         381 min
Histogram: 1 3 1 2 2 1 1 3 1 1
Neighs:         0.00000 ave           0 max           0 min
Histogram: 16 0 0 0 0 0 0 0 0 0
FullNghs:      1531.50 ave        1819 max        1289 min
Histogram: 1 2 2 2 2 3 1 2 0 1

Total # of neighbors = 24504
Ave neighs/atom = 28.361111
Ave special neighs/atom = 0.0000000
Neighbor list builds = 300
Dangerous builds = 300
unfix   2

fix     3 all npt temp 975.0 975.0 $(100.0*dt) aniso 1.01325 1.01325 $(1000.0*dt)
fix     3 all npt temp 975.0 975.0 0.10000000000000000555 aniso 1.01325 1.01325 $(1000.0*dt)
fix     3 all npt temp 975.0 975.0 0.10000000000000000555 aniso 1.01325 1.01325 1
run     20000
Per MPI rank memory allocation (min/avg/max) = 8.897 | 8.899 | 8.901 Mbytes
Step Temp PotEng TotEng Press Volume c_msd[4] 
    5000    979.02251    -7906.698   -7797.4865    -45.11686    29599.827    10.028924 
    5010    969.93734   -7905.6838   -7797.4859    162.22235     29599.89    10.060575 
    5020    966.31533   -7905.2732   -7797.4793    109.81953     29600.27    10.093002 
    5030     958.2199   -7904.3373   -7797.4465    218.39389    29600.957     10.12601 
    5040    968.66094   -7905.4436    -7797.388    249.99062    29602.099    10.157375 
    5050    966.94611   -7905.1666   -7797.3023    479.39426    29603.872    10.185205 
    5060    970.86798   -7905.5013   -7797.1995    377.66077    29606.671    10.210138 
    5070    970.69219   -7905.3662   -7797.0841    206.82995    29610.325    10.233645 
    5080    939.16486   -7901.7034   -7796.9381    256.97789    29614.515    10.256016 
    5090    922.88015   -7899.6606   -7796.7119    170.81442    29619.278    10.277421 
    5100    929.81672   -7900.0708   -7796.3483   -76.942813    29624.434    10.297628 
    5110    945.41181   -7901.2918   -7795.8297   -389.21243    29629.418    10.320489 
    5120     969.8476    -7903.358   -7795.1701   -343.53732    29633.623     10.34903 
    5130    976.36412   -7903.3187   -7794.4038    46.090162    29637.129    10.380131 
    5140    986.88843   -7903.6639    -7793.575    252.56641    29640.705    10.411278 
    5150    992.57255   -7903.4263   -7792.7033    268.95398    29644.848    10.442163 
    5160    995.59717   -7902.8984    -7791.838    38.857033    29649.581    10.472531 
    5170    1008.9982   -7903.5675   -7791.0122   -191.81382    29654.429    10.500119 
    5180    991.72271   -7900.8868   -7790.2586    96.007261    29658.999    10.524008 
    5190    1002.7774    -7901.461   -7789.5997    297.32759    29663.773    10.546079 
    5200    1003.4838   -7900.9631    -7789.023    547.91054    29669.288    10.570608 
    5210    1014.9497   -7901.7827   -7788.5635    416.35673    29675.999    10.599016 
    5220    1005.7889   -7900.4214   -7788.2242    344.60454    29683.713    10.631133 
    5230    991.74256   -7898.6173   -7787.9869    334.13421     29692.27    10.668806 
    5240    1006.7896   -7900.1301   -7787.8212    21.128853    29701.566    10.717751 
    5250    1012.2621   -7900.6422   -7787.7228    -317.9462    29710.964    10.773207 
    5260    1006.1733   -7899.9483   -7787.7081   -247.17455    29719.785    10.827245 
    5270    1013.7159   -7900.8529   -7787.7714   -28.248245    29728.133     10.87695 
    5280    1025.1011   -7902.2729   -7787.9214   -37.231508    29736.407    10.919695 
    5290    1018.4808   -7901.7764   -7788.1633    12.067111    29744.651    10.954641 
    5300    1023.6254   -7902.6652   -7788.4782    147.65458    29752.998    10.989173 
    5310    1029.6736   -7903.7313   -7788.8696    233.77074    29761.706    11.030264 
    5320    1003.6482   -7901.2718   -7789.3134    478.60183    29771.035    11.077686 
    5330    975.51712   -7898.5796   -7789.7592     673.0796    29781.483    11.125579 
    5340    958.79859   -7897.0918   -7790.1364     805.2763    29793.524    11.163665 
    5350    976.67512   -7899.3885   -7790.4389    595.40552    29807.396    11.187737 
    5360    983.34579   -7900.3769   -7790.6832    392.25629    29822.709    11.201418 
    5370    998.22656   -7902.2599   -7790.9062    207.89846    29838.991    11.214539 
    5380    995.47756   -7902.1766   -7791.1296    281.80386    29855.895    11.238147 
    5390    979.97789   -7900.6706   -7791.3526    260.97712    29873.486    11.277775 
    5400     967.8767   -7899.5131    -7791.545    23.034245    29891.704     11.32503 
    5410    975.48544   -7900.5269   -7791.7101   -335.21232    29910.015    11.368527 
    5420    982.42948   -7901.4467   -7791.8552   -497.77489    29927.669    11.406466 
    5430    998.52136   -7903.3939   -7792.0074   -562.58623    29944.245    11.441079 
    5440    1007.0193   -7904.5246   -7792.1901   -458.50654    29959.625    11.477976 
    5450     1008.533     -7904.93   -7792.4266   -428.91708    29973.983    11.522259 
    5460    995.51726   -7903.7657   -7792.7143   -417.26835    29987.391    11.574672 
    5470    968.41677   -7901.0388   -7793.0105   -529.68506    29999.853     11.62919 
    5480    960.65935   -7900.4357   -7793.2727   -1000.0214    30011.051    11.676229 
    5490    957.19442   -7900.2616   -7793.4852   -1363.4347    30019.995    11.711805 
    5500    953.74892    -7900.041   -7793.6489    -1586.933    30025.821    11.738172 
    5510    954.61674   -7900.2578   -7793.7688   -1651.4232    30028.017     11.76394 
    5520    944.15798   -7899.1645   -7793.8423   -1486.5732    30026.421    11.796075 
    5530    941.32299   -7898.8565   -7793.8505   -1069.2949    30021.423    11.835292 
    5540    958.90129   -7900.7621   -7793.7952   -645.29324    30013.921    11.881266 
    5550    967.86304   -7901.6655    -7793.699   -178.60588    30004.909    11.934205 
    5560    967.36194   -7901.4878   -7793.5771    231.29519    29995.455    11.986497 
    5570    978.53434   -7902.5993   -7793.4423    403.78518    29986.463    12.025786 
    5580    999.70038   -7904.8321    -7793.314    380.11684    29978.329    12.054277 
    5590    1011.7773   -7906.0973    -7793.232    374.63678    29971.046    12.076783 
    5600    1013.0982   -7906.2444   -7793.2318    514.62354    29964.631    12.095858 
    5610    1011.8797   -7906.2044   -7793.3277    639.04464    29959.372    12.115133 
    5620    987.04685   -7903.6128   -7793.5063    750.89015    29955.575    12.137637 
    5630    980.66378   -7903.1369   -7793.7424    767.41014    29953.485    12.162872 
    5640    981.00169   -7903.4563   -7794.0241    950.08207    29953.209     12.18838 
    5650    969.05685   -7902.4533   -7794.3536    1296.0518    29955.178    12.210375 
    5660    962.21841   -7902.0609    -7794.724    1443.8909    29960.146    12.224325 
    5670    969.25066   -7903.2624    -7795.141    1296.2106    29968.445    12.231592 
    5680    953.68186   -7901.9865   -7795.6019    1271.7175    29979.866    12.241861 
    5690    941.54576   -7901.1233   -7796.0925    1158.4996    29994.326    12.264062 
    5700    937.53654   -7901.1749   -7796.5913    1118.8045    30011.643    12.301965 
    5710     950.1719   -7903.0919   -7797.0988    907.30653    30031.698    12.354128 
    5720     969.9052    -7905.829   -7797.6346    434.30235    30054.007    12.411804 
    5730     983.3857   -7907.9374   -7798.2393    108.76537    30077.558    12.465363 
    5740    972.62474   -7907.4313   -7798.9336    46.010491    30101.633    12.515075 
    5750    956.89355   -7906.4223   -7799.6794   -134.55513    30126.001    12.564233 
    5760     955.9503   -7907.0769   -7800.4392   -454.74698    30150.235     12.61159 
    5770    948.15384   -7906.9619   -7801.1939   -585.31759    30173.635     12.65711 
    5780    932.57335   -7905.9285   -7801.8986   -711.42042    30195.837    12.696275 
    5790    926.28271   -7905.8381   -7802.5099   -928.58689     30216.51    12.722992 
    5800    926.69335   -7906.3828   -7803.0088   -1053.9283    30235.152    12.741779 
    5810    928.44533   -7906.9706   -7803.4012    -1134.775    30251.432    12.758144 
    5820    921.92952   -7906.5248   -7803.6822   -1042.2959    30265.185    12.773395 
    5830     932.3698   -7907.8673     -7803.86   -1149.0612    30276.504    12.789482 
    5840    934.58817   -7908.1981   -7803.9433   -1238.7453    30285.185    12.809389 
    5850    938.82126   -7908.6766   -7803.9497   -1201.6961     30291.01    12.832438 
    5860    948.20548   -7909.6622   -7803.8885    -1019.862    30294.056    12.858386 
    5870     949.2576   -7909.6598   -7803.7687    -884.6503      30294.7      12.8878 
    5880    946.28518   -7909.1496     -7803.59   -947.80043    30293.206     12.92048 
    5890    937.64025    -7907.934   -7803.3388   -984.69171     30289.47    12.952662 
    5900    930.79596   -7906.8281   -7802.9964   -1011.3152    30283.384    12.978467 
    5910    922.69175   -7905.4656    -7802.538   -844.02713     30274.93    12.992763 
    5920    900.31787    -7902.364   -7801.9321   -682.74806    30264.436    13.000526 
    5930    904.95456   -7902.0995   -7801.1504   -838.62424    30252.196    13.009403 
    5940    929.52033   -7903.8653   -7800.1759   -857.97508    30237.954    13.020317 
    5950    949.94005   -7905.0501   -7799.0829    -554.1596    30221.694    13.031655 
    5960    961.82871   -7905.2885   -7797.9951   -430.77533    30204.009    13.042602 
    5970    961.94483   -7904.3215   -7797.0151   -502.23339    30185.207    13.047401 
    5980     975.9152   -7905.0561   -7796.1913   -835.86494    30165.082     13.04062 
    5990      1004.34   -7907.5827    -7795.547   -1114.6724    30142.929    13.026657 
    6000    1011.2648   -7907.9029   -7795.0948   -1074.4366    30118.157    13.013558 
    6010    1015.4319   -7908.0958   -7794.8228   -1007.4971    30090.759    13.002427 
    6020    1016.0344   -7908.0287   -7794.6886   -720.74104    30060.972    12.994598 
    6030    1008.6049   -7907.1671   -7794.6557   -275.88874    30029.436    12.999199 
    6040    991.45722   -7905.2817   -7794.6832    227.75285    29997.173    13.020227 
    6050    988.03722   -7904.9523   -7794.7353    300.44027    29965.254     13.04756 
    6060     998.3512   -7906.1836    -7794.816    135.68248    29933.899     13.07308 
    6070    1005.5978   -7907.1221   -7794.9462    161.65691    29902.821    13.096623 
    6080    1007.2089    -7907.491   -7795.1353    387.75059    29872.087    13.119589 
    6090    996.17442   -7906.5069   -7795.3821    790.98849     29842.21     13.14337 
    6100    994.04861   -7906.5492   -7795.6616     1208.291    29814.085    13.165553 
    6110    1014.8551   -7909.2085   -7795.9999    1313.2455    29788.577    13.179948 
    6120    1016.2194   -7909.7817   -7796.4209    1437.4916    29766.019    13.183991 
    6130     1018.357   -7910.5442   -7796.9449     1481.218    29746.658    13.184738 
    6140    1018.2833   -7911.1561   -7797.5651    1335.1994     29730.59    13.198856 
    6150    1006.6253    -7910.567   -7798.2765    1101.7304    29717.487    13.231902 
    6160      976.396   -7907.9251   -7799.0067    1150.7141    29706.927    13.272243 
    6170    964.32296    -7907.272   -7799.7003    1096.2256    29698.917    13.307257 
    6180    955.30643   -7906.8845   -7800.3186    1353.1331    29693.454    13.332305 
    6190    950.34115   -7906.8671   -7800.8552    1557.7992    29691.026    13.350169 
    6200    933.06699   -7905.3812   -7801.2962    1782.5198    29692.147    13.366798 
    6210    921.41074   -7904.4018   -7801.6171    1673.9061    29697.271    13.385699 
    6220    949.52627   -7907.7577   -7801.8366    1016.5557    29706.131    13.409467 
    6230    951.71508   -7908.1446   -7801.9794    579.04343    29717.442    13.439915 
    6240    926.11162   -7905.3627   -7802.0536    612.60556    29730.266     13.47588 
    6250    926.96396   -7905.4327   -7802.0285    582.00989    29744.585    13.515082 
    6260    959.37355   -7908.9294   -7801.9099    272.58873    29760.289    13.557836 
    6270    969.34393   -7909.8729   -7801.7411    12.495341    29776.766    13.604968 
    6280    967.71158   -7909.5101   -7801.5604   -88.679066    29793.461    13.649079 
    6290    964.47448   -7908.9487   -7801.3601    -203.2782    29810.102    13.679559 
    6300    977.53479   -7910.1847   -7801.1393   -434.42869    29826.408    13.695168 
    6310    978.40776    -7910.054   -7800.9112   -456.88123    29841.919    13.705056 
    6320    963.40203   -7908.1544   -7800.6854   -414.37109    29856.539    13.714669 
    6330     951.3296   -7906.5543   -7800.4321   -486.49441    29870.333    13.725887 
    6340    963.28469   -7907.5798    -7800.124   -709.07552    29883.129    13.741824 
    6350    975.33876   -7908.5678   -7799.7673   -832.39242    29894.446    13.766956 
    6360    970.11392   -7907.6045   -7799.3869   -763.61704    29904.005    13.801449 
    6370     969.3917   -7907.1124   -7798.9753   -796.47059     29911.88    13.836577 
    6380    976.55437   -7907.4588   -7798.5226    -875.9565    29917.983    13.863852 
    6390      976.043   -7906.9063   -7798.0272   -950.45598    29922.133    13.878971 
    6400    968.79065   -7905.5592   -7797.4892   -1022.9159    29924.113    13.878986 
    6410    957.91075   -7903.7449   -7796.8886   -682.51852    29923.849    13.868029 
    6420    958.19431   -7903.0838   -7796.1958   -242.76377    29922.025     13.86009 
    6430    976.51167   -7904.3402   -7795.4088   -203.19348     29919.53    13.863099 
    6440    997.07887   -7905.7927    -7794.567   -360.70917    29916.515     13.87528 
    6450    1008.0176   -7906.1864   -7793.7405    -458.7851    29912.652    13.891351 
    6460    1018.7952    -7906.635   -7792.9868    -462.5991    29907.711    13.904694 
    6470    1018.7387    -7905.982   -7792.3402   -349.47396    29901.674    13.914456 
    6480    1024.6495   -7906.1211   -7791.8199   -342.03678     29894.75    13.924787 
    6490    1025.1407   -7905.7839   -7791.4279   -533.97485    29886.913    13.936737 
    6500    1018.0641   -7904.7335   -7791.1669   -556.10248    29877.788    13.945106 
    6510     1008.451   -7903.5125   -7791.0183   -399.72117    29867.303    13.947977 
    6520    982.94885   -7900.5917   -7790.9423   -129.51205    29855.802    13.950361 
    6530    980.92687   -7900.3228   -7790.8989    88.050085    29843.875     13.95333 
    6540    993.31052   -7901.6839   -7790.8786    181.99507    29832.007    13.956321 
    6550    997.22485   -7902.1316   -7790.8897    150.58741    29820.409    13.965019 
    6560    996.37757   -7902.0944    -7790.947    52.735419    29809.026    13.980611 
    6570     992.5748   -7901.7745   -7791.0513    154.58949    29797.696    13.999787 
    6580    987.36494   -7901.3228   -7791.1808    417.86454    29786.644    14.019718 
    6590    984.43732   -7901.1475    -7791.332    605.10697    29776.416    14.039339 
    6600    976.96478   -7900.4722   -7791.4903    692.98997    29767.471    14.060852 
    6610    976.26797   -7900.5567   -7791.6525    637.34368    29760.007    14.082069 
    6620    972.83569   -7900.3265   -7791.8052    620.00831    29753.944    14.100857 
    6630    984.65161   -7901.7874   -7791.9481    665.75607    29749.271    14.118167 
    6640    1009.4809   -7904.7179   -7792.1088    781.63632    29746.095    14.137941 
    6650    1017.9533   -7905.8914   -7792.3372     1135.328     29744.75    14.161337 
    6660    1010.7477   -7905.3974    -7792.647    1255.8844    29745.958    14.184571 
    6670    995.23381   -7904.0368    -7793.017    1312.1354     29750.05     14.20795 
    6680    970.46256   -7901.6346   -7793.3781    1388.5157     29757.23    14.233771 
    6690    1003.1397   -7905.6223   -7793.7206    930.75976    29767.561    14.259298 
    6700    1004.3209    -7906.091   -7794.0575     590.2053    29780.169    14.283224 
    6710    983.26496   -7904.0648   -7794.3801    309.07642    29794.289    14.305499 
    6720    981.90036   -7904.1796   -7794.6471   -192.78792    29809.234    14.325225 
    6730    977.71692   -7903.9146   -7794.8488   -310.24205    29824.006    14.344893 
    6740     980.9108   -7904.4281   -7795.0061   -276.77454    29838.271    14.369128 
    6750    982.57982   -7904.7426   -7795.1343   -261.00957    29852.052    14.403773 
    6760    968.36356   -7903.2618   -7795.2394    -61.65272     29865.43    14.452083 
    6770    964.48309   -7902.8985   -7795.3089    24.966647    29878.799    14.511315 
    6780       968.01   -7903.3254   -7795.3425    -88.03383    29892.316    14.575934 
    6790    952.56081   -7901.5907   -7795.3311   -250.20269    29905.774    14.639321 
    6800    958.17783   -7902.1627   -7795.2765   -667.58112     29918.75    14.697089 
    6810    965.58903   -7902.8991   -7795.1862   -1037.2515    29930.328    14.746598 
    6820    965.54477   -7902.7911   -7795.0832   -1034.5518    29939.713    14.785019 
    6830    985.33088   -7904.8926   -7794.9774   -1130.9902    29946.769    14.811665 
    6840    988.05918   -7905.1086   -7794.8891    -1314.438    29951.258    14.832652 
    6850    963.59135   -7902.3093   -7794.8192   -1290.8635    29952.793    14.857942 
    6860    966.86662   -7902.5979   -7794.7424   -1405.0715    29951.302    14.891079 
    6870    977.22785   -7903.6587   -7794.6475   -1419.5478    29946.574    14.931093 
    6880    991.86416   -7905.2093   -7794.5653   -1458.5875    29938.485    14.972606 
    6890    994.29453   -7905.4325   -7794.5175   -1423.6237    29926.943    15.012172 
    6900    986.82258   -7904.6008   -7794.5193   -1260.6868    29911.991    15.048895 
    6910    975.77431   -7903.3903   -7794.5412    -931.5433    29894.011    15.083054 
    6920    986.40775     -7904.61   -7794.5747   -849.07845     29873.62    15.114288 
    6930    990.87659   -7905.1677    -7794.634    -671.9976    29851.065    15.145013 
    6940    995.96856    -7905.838   -7794.7363   -563.43234    29826.683    15.184328 
    6950    1003.7817   -7906.8631   -7794.8897   -478.28706     29800.73     15.23389 
    6960    1002.0042   -7906.8764   -7795.1013   -203.97053    29773.448    15.287731 
    6970    996.15738   -7906.4989   -7795.3761   -63.721892    29745.386    15.338954 
    6980    990.52151    -7906.215   -7795.7208   -98.720822    29716.848    15.384145 
    6990     965.6946   -7903.8363   -7796.1116   -136.12229    29687.809     15.42527 
    7000    957.39371    -7903.305   -7796.5063   -343.65878    29658.138    15.462083 
    7010    966.03672   -7904.6544   -7796.8915   -642.87436    29627.361     15.49494 
    7020    962.51389   -7904.6517   -7797.2819   -794.14518    29594.845    15.522096 
    7030    936.21585   -7902.0889   -7797.6526   -595.41166    29560.296    15.538329 
    7040    917.02432    -7900.244   -7797.9486   -171.75393    29524.125    15.543153 
    7050     919.7887   -7900.7247   -7798.1208    316.77776    29487.254    15.547283 
    7060    928.41676   -7901.7383   -7798.1721    851.14857    29450.791    15.556398 
    7070      922.459   -7901.0101   -7798.1084    1173.6618    29415.881    15.568128 
    7080    924.92404   -7901.1118   -7797.9351    1209.6396    29383.249    15.578728 
    7090    930.19365   -7901.4075    -7797.643     997.8458    29353.008    15.580709 
    7100     938.6561     -7901.95   -7797.2415    873.89754     29324.76    15.573058 
    7110    939.53065   -7901.5293   -7796.7232     1006.805    29298.275    15.559921 
    7120    966.97698   -7903.9625   -7796.0948    996.22675    29273.762    15.548636 
    7130    977.10407   -7904.3702   -7795.3728    1449.6055    29251.364    15.545312 
    7140    996.54871   -7905.7825    -7794.616    2063.3022    29232.018    15.547191 
    7150     988.4328   -7904.1199   -7793.8587    2587.2356    29217.078    15.550243 
    7160    995.89756   -7904.2379    -7793.144    2549.9952    29207.629    15.559509 
    7170    1007.5282   -7904.8654   -7792.4742    2177.6356     29203.68    15.579063 
    7180    1005.1365   -7904.0103   -7791.8858    1964.8081    29204.541    15.602638 
    7190    995.87866   -7902.4784   -7791.3867    1861.9122    29209.767    15.623017 
    7200    977.02529   -7899.9486   -7790.9599    2029.1032    29219.216    15.638069 
    7210    985.21501   -7900.4786   -7790.5764    2214.5684    29233.241    15.649191 
    7220     1013.566   -7903.3023   -7790.2375    2293.8306    29252.283    15.661286 
    7230    1019.9652   -7903.7727    -7789.994    2473.4855    29276.627    15.680751 
    7240    1002.2887   -7901.6744   -7789.8676    2510.3561    29306.677    15.708304 
    7250    1003.0771   -7901.7234   -7789.8286     2162.325    29342.531    15.740379 
    7260     1022.306   -7903.8995   -7789.8597    1639.0248     29383.53    15.770354 
    7270    1042.0074   -7906.2301   -7789.9926    1097.1677    29428.572    15.793044 
    7280    1036.7128   -7905.9153   -7790.2684    976.63952     29476.56    15.813496 
    7290    1013.5364   -7903.7415     -7790.68    1075.4708    29527.182    15.841875 
    7300    994.87434   -7902.1605   -7791.1808    998.76732    29580.578    15.883708 
    7310    960.39641   -7898.8334   -7791.6997    752.02247     29636.57    15.938398 
    7320    944.38086   -7897.5178   -7792.1707    178.42405    29694.527    16.000291 
    7330    945.09919    -7897.981   -7792.5538   -561.27342    29753.132    16.061831 
    7340    949.14446   -7898.7246   -7792.8461   -1101.7551    29810.717    16.115704 
    7350    959.59635   -7900.1161   -7793.0717   -1563.9763    29865.928    16.160941 
    7360     964.8957   -7900.8906    -7793.255    -1871.834    29917.657    16.203076 
    7370     961.6412   -7900.6895   -7793.4169   -1885.4473    29965.162    16.246633 
    7380    955.63792   -7900.1639   -7793.5611   -1639.5709    30008.355    16.291689 
    7390    958.48362   -7900.6061   -7793.6858   -1454.5133    30047.683    16.333267 
    7400    961.70574   -7901.0732   -7793.7935   -1281.1481    30083.579    16.366988 
    7410    966.60111   -7901.7176   -7793.8918    -1327.937    30116.372    16.393257 
    7420    969.63546   -7902.1598   -7793.9955   -1553.2054    30145.962    16.413862 
    7430    967.56546   -7902.0552   -7794.1218   -1714.3842     30171.87    16.429058 
    7440    963.33522   -7901.7404   -7794.2789   -1639.6945    30193.767    16.440324 
    7450    982.29755   -7904.0707   -7794.4939   -1764.3179    30211.712    16.453106 
    7460    993.81649   -7905.6876   -7794.8259   -1845.2368    30225.482    16.473626 
    7470    983.62408   -7905.0556   -7795.3309   -1825.8145    30234.929    16.502117 
    7480    981.88492   -7905.5669   -7796.0362   -2236.7641    30239.958    16.534221 
    7490    959.08303   -7903.9023   -7796.9151   -2562.5206    30239.748    16.565378 
    7500    926.09561   -7901.1731   -7797.8658   -2684.2402    30233.555    16.589234 
    7510    920.14542   -7901.4252   -7798.7816   -2647.1584    30221.096    16.600816 
    7520    932.46172   -7903.6343   -7799.6168   -2340.0352    30202.516    16.602736 
    7530     950.8059   -7906.4468   -7800.3829   -2028.2918    30178.479    16.604933 
    7540    938.17565   -7905.7221   -7801.0672   -1449.5764    30149.825    16.614763 
    7550    934.36622   -7905.8738   -7801.6438    -979.8387    30117.846    16.636156 
    7560    947.20019   -7907.7799   -7802.1183   -783.50364    30083.651     16.66933 
    7570    951.89606   -7908.7035   -7802.5181   -681.43764    30047.739    16.702123 
    7580    941.01592   -7907.8195   -7802.8477   -559.05563    30010.391    16.722011 
    7590     930.9665   -7906.9461   -7803.0954   -576.08479    29971.883    16.731016 
    7600    933.26074   -7907.3615   -7803.2549    -721.4956    29932.206    16.739355 
    7610    933.61936   -7907.4721   -7803.3254   -759.43827    29891.091    16.754483 
    7620    932.87934   -7907.3697   -7803.3056    -615.0156    29848.505     16.77674 
    7630    936.67166   -7907.6805   -7803.1933   -380.68604    29804.795    16.802916 
    7640    940.03198   -7907.8461   -7802.9842   -217.10604    29760.499    16.829158 
    7650    961.86888   -7909.9969    -7802.699   -427.82714    29715.949    16.848436 
    7660    982.24823   -7911.9498   -7802.3785   -724.52838    29670.746    16.858933 
    7670    964.89356   -7909.6874   -7802.0521   -526.47246    29624.372     16.86604 
    7680    935.19506   -7906.0068   -7801.6844    64.604142    29577.299    16.872041 
    7690    936.20044   -7905.6564   -7801.2219    448.50305    29530.762    16.877919 
    7700    944.00094     -7905.95   -7800.6453    662.69357    29485.661     16.88973 
    7710     967.2364   -7907.8862   -7799.9895    680.41284    29442.472    16.906189 
    7720     977.4207   -7908.3282   -7799.2955    759.83432    29401.284    16.922995 
    7730    981.21352    -7908.064   -7798.6081    785.30159    29362.235    16.939512 
    7740    992.37645   -7908.6533   -7797.9522    674.61292    29325.355    16.962754 
    7750    983.60899   -7907.0762   -7797.3532    674.99762     29290.42    17.001349 
    7760    954.94395   -7903.3251   -7796.7997    1091.0148    29257.496    17.047866 
    7770    939.41417   -7901.0312   -7796.2382    1398.5752    29227.349    17.085877 
    7780    957.27678   -7902.4322   -7795.6466      1422.28    29200.562    17.108654 
    7790    963.19363   -7902.4843   -7795.0386     1742.842     29177.29    17.120065 
    7800    979.72492   -7903.7406   -7794.4508    1889.6575    29158.073    17.123559 
    7810    998.30696   -7905.2771   -7793.9144    2062.9118    29143.227    17.122932 
    7820    993.85229   -7904.3306   -7793.4648    2121.7442    29133.025    17.132177 
    7830    999.96543    -7904.659   -7793.1114    1873.3501    29127.497    17.167354 
    7840    998.14963    -7904.188   -7792.8429    1597.4137    29126.121    17.228026 
    7850    990.91267   -7903.1947   -7792.6569    1229.4417    29128.217    17.299602 
    7860    974.31134   -7901.2043   -7792.5185     1140.058    29133.032     17.37089 
    7870    963.99547   -7899.9294   -7792.3942    1241.3004     29140.32    17.437391 
    7880    972.38578   -7900.7289   -7792.2578    1194.2184    29150.214    17.491516 
    7890    1001.3881   -7903.8367   -7792.1304    828.93851    29162.534    17.526025 
    7900     1005.527   -7904.2252   -7792.0572    714.42788    29176.586    17.545058 
    7910    993.58844   -7902.8889   -7792.0526    900.80559    29192.097    17.551276 
    7920    1001.7177   -7903.8431      -7792.1    834.87402    29209.359    17.549587 
    7930    1014.8208   -7905.4092   -7792.2044    423.01601    29228.204    17.551749 
    7940    1010.9557   -7905.1606    -7792.387      152.382    29247.812    17.561874 
    7950    1007.1351   -7904.9898   -7792.6423   -41.698606    29267.566    17.576699 
    7960    1005.8651   -7905.1708   -7792.9651   -237.61715    29287.028    17.595158 
    7970    999.29342    -7904.825   -7793.3523      -340.29    29305.782    17.621002 
    7980    978.30994   -7902.9058   -7793.7739   -291.61905    29323.613    17.653834 
    7990    956.59334   -7900.8935    -7794.184   -51.046516    29340.647    17.690279 
    8000    952.28628   -7900.7737   -7794.5447    117.41317    29357.373    17.723777 
    8010    955.59963   -7901.4499   -7794.8513     138.9843    29374.146    17.751055 
    8020    951.03813    -7901.193   -7795.1032     228.3755    29391.073    17.778167 
    8030    960.93843   -7902.4982    -7795.304   -36.434952    29408.262     17.80812 
    8040    968.95154   -7903.5544   -7795.4664   -483.07792    29425.154    17.845416 
    8050    968.84981   -7903.6862   -7795.6095   -610.61368    29440.857    17.899418 
    8060    966.23273   -7903.5257    -7795.741   -516.21998    29455.082    17.968487 
    8070    949.91037   -7901.8113   -7795.8473   -186.32766    29468.059     18.03743 
    8080     952.9391   -7902.2104   -7795.9086    102.98226    29480.494    18.092715 
    8090    979.20345   -7905.1667   -7795.9351    16.101595    29492.953    18.136278 
    8100    980.37963   -7905.3201   -7795.9573    30.374701    29505.352    18.178627 
    8110     982.9103   -7905.6468   -7796.0017    -223.2517    29517.632    18.227847 
    8120    979.80209   -7905.3614    -7796.063   -578.51432    29529.284    18.287895 
    8130    968.83251   -7904.2215   -7796.1468   -563.60086    29539.615    18.352642 
    8140    946.79631   -7901.8373   -7796.2208    -372.8664    29548.637     18.41083 
    8150    960.03532   -7903.3621   -7796.2687   -642.37293    29556.618    18.455045 
    8160    963.78831   -7903.7898   -7796.2778   -732.48887    29563.146    18.488783 
    8170    964.33019   -7903.8378   -7796.2653   -651.09095    29568.001    18.516629 
    8180    968.34061   -7904.2394   -7796.2196    -450.1393    29571.391    18.545814 
    8190    971.81506   -7904.5469   -7796.1395   -32.019692    29573.787    18.580002 
    8200    968.89951    -7904.105   -7796.0228    706.35775     29576.16    18.610075 
    8210    982.53342   -7905.4812   -7795.8781    1149.7003    29580.028    18.630404 
    8220    976.71444   -7904.6684   -7795.7144    1486.3014    29586.449    18.650174 
    8230    974.10776   -7904.2076   -7795.5444    1485.6687     29596.09    18.675193 
    8240    982.68665   -7904.9749   -7795.3547    1287.9859    29608.981    18.703407 
    8250    988.28425    -7905.406   -7795.1614    1171.5402    29624.703    18.732599 
    8260    994.82801   -7905.9599   -7794.9853    931.68819    29642.926    18.761837 
    8270    992.18752   -7905.5187   -7794.8387    666.87721    29663.121    18.788904 
    8280    983.20234   -7904.3997    -7794.722    719.85139    29684.757    18.814737 
    8290    994.57591   -7905.5747   -7794.6283    845.68986    29707.898    18.846627 
    8300    1006.8666   -7906.8908   -7794.5733    759.83082    29732.771    18.887829 
    8310    1016.0821   -7907.9323   -7794.5868    313.37172    29759.134    18.933901 
    8320    1023.2305   -7908.8317   -7794.6888   -164.18348    29786.032    18.981313 
    8330    1006.1651   -7907.1333    -7794.894    -410.3813    29812.427    19.032921 
    8340    962.20214   -7902.4973   -7795.1622   -317.03777     29837.79    19.092512 
    8350    933.57161   -7899.5533    -7795.412   -159.42507    29862.267    19.155489 
    8360    938.33142   -7900.2582   -7795.5859   -316.89135    29886.137    19.218537 
    8370    953.68975   -7902.0703   -7795.6848   -496.71194    29909.123    19.277392 
    8380    967.81763   -7903.7003   -7795.7388    -650.1407    29930.816    19.326886 
    8390    983.84407   -7905.5301   -7795.7808   -866.87136    29950.852    19.367003 
    8400    988.24217    -7906.078   -7795.8381   -856.53206    29968.822    19.404892 
    8410    1000.7657   -7907.5745   -7795.9376   -868.81335    29984.672    19.444822 
    8420    1000.8868   -7907.7511   -7796.1006   -802.32268    29998.421    19.485855 
    8430    986.06524   -7906.3236   -7796.3265   -743.56495    30010.238    19.525767 
    8440    978.21986   -7905.7096   -7796.5877   -700.86511    30020.257    19.561758 
    8450    978.65963    -7906.042   -7796.8711   -524.28349     30028.62    19.593715 
    8460    982.94045   -7906.8249   -7797.1764   -443.91001    30035.706     19.62713 
    8470    978.24344   -7906.6356   -7797.5111   -476.57344    30041.702    19.671301 
[...]
   22890    1001.9038   -7908.3754   -7796.6115    1531.7818    29282.684    63.512782 
   22900    999.37393   -7907.9543   -7796.4726    1860.7698    29285.143     63.51993 
   22910     993.7848   -7907.2331   -7796.3749    2077.7915    29291.758    63.519565 
   22920    981.08153   -7905.7528   -7796.3117    2228.4069    29303.077    63.516409 
   22930    975.22284   -7905.0546    -7796.267    1908.1233    29319.389    63.512701 
   22940    974.55246   -7904.9316   -7796.2188    1204.4415    29340.075    63.513744 
   22950    977.45229   -7905.1902   -7796.1539    697.05261    29363.741    63.524995 
   22960    998.91604    -7907.521   -7796.0904    310.06998    29389.231     63.55061 
   22970    1010.5546   -7908.7959    -7796.067    119.71487     29415.73     63.59631 
   22980    1004.1515   -7908.1409   -7796.1262   -29.331209    29442.784    63.658431 
   22990    995.28377   -7907.2915   -7796.2661   -152.83346    29470.044    63.709847 
   23000    987.84412   -7906.6834   -7796.4879   -145.70854    29497.235    63.728002 
   23010    981.14209   -7906.2428    -7796.795   -118.28376    29524.346    63.717442 
   23020     963.1797   -7904.6255   -7797.1814   -87.724725    29551.426    63.699563 
   23030    949.61635   -7903.5455   -7797.6144     -180.967    29578.504    63.686619 
   23040    953.38975   -7904.4161    -7798.064   -348.42363    29605.371     63.68288 
   23050    955.63405   -7905.1192   -7798.5168   -463.39373    29631.662    63.694029 
   23060    970.12122   -7907.2154   -7798.9969   -714.25481    29657.055    63.718231 
   23070    961.55409   -7906.7748   -7799.5119   -827.02814    29681.032    63.744473 
   23080    952.36022   -7906.2814   -7800.0442   -891.99474    29703.282     63.76412 
   23090    957.02305   -7907.3319   -7800.5745    -1030.139    29723.624    63.786247 
   23100    951.33097   -7907.2132   -7801.0908    -1315.469    29741.703    63.818725 
   23110    934.59827   -7905.8217   -7801.5658   -1464.0155    29756.923     63.85018 
   23120    945.74178   -7907.4778   -7801.9789   -1631.8994    29768.882    63.874182 
   23130    957.63111   -7909.1685   -7802.3433   -1636.0162    29777.207    63.904803 
   23140    945.71637   -7908.1684   -7802.6724   -1254.8942    29781.915    63.947917 
   23150    945.73698   -7908.4494    -7802.951   -1130.1279    29783.734    63.999697 
   23160    955.45306   -7909.7674   -7803.1852   -1345.9276    29782.911    64.057255 
   23170    944.41179   -7908.7293   -7803.3788    -1290.906    29779.072    64.115294 
   23180    938.21267   -7908.1774   -7803.5184   -1331.0695    29772.231    64.161392 
   23190    933.62477   -7907.7378   -7803.5906   -1442.8717    29762.281     64.19016 
   23200    920.17557   -7906.2154   -7803.5684   -1208.1191    29749.073    64.212857 
   23210    936.23938    -7907.882   -7803.4431   -1019.6396        29733     64.23453 
   23220    930.35583   -7906.9818   -7803.1992   -601.98905    29714.583    64.244953 
   23230    940.23558   -7907.7305   -7802.8458   -512.56856    29694.618    64.235107 
   23240    960.86896   -7909.5673   -7802.3809   -634.32891    29673.333    64.220328 
   23250    970.77546   -7910.1357   -7801.8442   -827.94404    29650.462    64.218913 
   23260    965.70202   -7908.9817   -7801.2562    -694.6647    29625.665    64.240123 
   23270    975.87405   -7909.4839   -7800.6237   -416.73922    29599.171    64.279435 
   23280     985.2103   -7909.8527    -7799.951   -43.164494      29571.6    64.325701 
   23290    998.91666   -7910.7044   -7799.2737    343.73559    29543.759    64.370543 
   23300     999.0524   -7910.0695   -7798.6237    741.12498    29516.544    64.409012 
   23310    1004.0656   -7910.0335   -7798.0285    993.44181    29490.815    64.429905 
   23320    1006.6217    -7909.787   -7797.4968    1156.7046    29467.141    64.425016 
   23330    1006.5398   -7909.3287   -7797.0477    1102.7288    29445.869    64.405946 
   23340    991.28516   -7907.2542   -7796.6749    944.78279    29426.938    64.382742 
   23350    984.48443   -7906.1794   -7796.3587    622.30881    29409.968     64.37728 
   23360     980.9742   -7905.4967   -7796.0676    323.25758    29394.287    64.411582 
   23370    999.63035   -7907.3118   -7795.8016   -61.148082    29379.194    64.470036 
   23380    1014.8995   -7908.8007   -7795.5872   -269.62516    29363.903    64.526182 
   23390    1009.2217   -7908.0361   -7795.4559   -172.75297    29347.972    64.568449 
   23400    1010.3473   -7908.1133   -7795.4075    117.11091    29331.594    64.590755 
   23410    1008.1128   -7907.8902   -7795.4337    375.73944    29315.363    64.592326 
   23420    1002.8543    -7907.411   -7795.5411    492.73781    29299.817    64.583854 
   23430    981.80506   -7905.2355   -7795.7137    645.54716    29285.255    64.588901 
   23440    958.66709   -7902.8545   -7795.9137    806.91112    29272.018    64.614332 
   23450    944.45147   -7901.4546   -7796.0996    683.26203    29260.407    64.651886 
   23460    937.98982   -7900.8821   -7796.2479    260.59637    29250.166    64.697994 
   23470    940.85644   -7901.2991   -7796.3452   -229.54002    29240.402    64.757317 
   23480    944.03398    -7901.693   -7796.3846   -528.93606    29230.078    64.822649 
   23490      945.099   -7901.7852    -7796.358   -457.48729    29218.574    64.881349 
   23500    948.36128    -7902.037   -7796.2459   -154.24328    29206.004    64.932945 
   23510    933.31545   -7900.1264   -7796.0137    426.70689    29193.053    64.983896 
   23520    945.44949   -7901.0915   -7795.6252    679.27317    29180.859    65.031492 
   23530    967.33118    -7902.969   -7795.0618    612.18388     29170.01    65.076759 
   23540    975.03143   -7903.1229   -7794.3567    468.04133     29160.42    65.127319 
   23550    994.68891   -7904.5142   -7793.5552     263.3209    29151.767    65.188218 
   23560    1003.5831   -7904.6629   -7792.7117    233.70841    29143.666    65.259669 
   23570    998.74203   -7903.2953   -7791.8842    418.63335    29136.074    65.337092 
   23580    1010.6137   -7903.8409   -7791.1055    528.82204    29129.324    65.412942 
   23590    1019.6879   -7904.1526   -7790.4048    727.54815    29123.708    65.489332 
   23600     1001.757   -7901.5615    -7789.814    1070.0544    29119.694    65.573779 
   23610     1024.351   -7903.5931   -7789.3252    997.88816    29117.914    65.665096 
   23620    1050.4254    -7906.121   -7788.9445    772.00212    29118.295    65.767108 
   23630    1049.2109   -7905.7722   -7788.7311    891.88531    29120.458    65.882489 
   23640    1030.4597   -7903.6349   -7788.6855    1375.5701    29124.657    66.001185 
   23650     1028.302   -7903.4862   -7788.7775    1922.9419    29131.927    66.106873 
   23660    1044.3655    -7905.519   -7789.0184     2215.766     29143.44    66.190983 
   23670    1027.2628   -7904.0165   -7789.4238    2403.0799    29159.889    66.259254 
   23680    1009.3623   -7902.5572   -7789.9613    2370.1436    29181.732     66.32876 
   23690    1004.2912   -7902.6205   -7790.5903    1830.6813    29208.855    66.410035 
   23700    992.85896   -7902.0361   -7791.2812    1536.5181      29240.3     66.50188 
   23710      992.815    -7902.754   -7792.0039     1282.118    29275.386    66.601716 
   23720    1002.1328   -7904.5373   -7792.7479    1002.8645    29313.558    66.708081 
   23730    997.50439   -7904.7841   -7793.5109     636.6245    29354.193    66.815535 
   23740    991.57991   -7904.8798   -7794.2676    76.297861    29396.435    66.914584 
   23750    980.29682   -7904.3295   -7794.9759    -403.3586    29439.094    66.999577 
   23760    979.25598   -7904.8599   -7795.6224   -707.84743    29481.067    67.084306 
   23770    965.79083   -7903.9269   -7796.1915   -604.68267    29521.718    67.179906 
   23780    973.23235   -7905.2577   -7796.6922   -675.88206    29561.098    67.279834 
   23790    972.00019   -7905.5507   -7797.1226   -829.98133    29599.067     67.36926 
   23800    989.73595   -7907.9141   -7797.5075   -1210.5699    29635.198     67.44233 
   23810    996.46469   -7909.0328   -7797.8757   -1517.6224    29668.664    67.505697 
   23820    981.91039   -7907.7709   -7798.2373   -1578.2627      29698.8    67.564433 
   23830    988.28287   -7908.8314    -7798.587   -1804.1147    29725.355    67.620096 
   23840    992.16603   -7909.6111   -7798.9335   -1887.8956    29747.874    67.686503 
   23850    972.15131   -7907.7198   -7799.2748   -1655.4366    29766.177    67.773587 
   23860    947.21286   -7905.2361   -7799.5731   -1392.9929    29780.726    67.877575 
   23870    936.84019   -7904.2981   -7799.7921   -1422.5075     29792.03    67.985392 
   23880    936.58043   -7904.3924   -7799.9154   -1646.9443    29800.064    68.083656 
   23890     945.0585   -7905.3782   -7799.9555   -1780.0039     29804.36    68.174475 
   23900    966.91027   -7907.8061   -7799.9458   -1793.2279    29804.601    68.256651 
   23910    975.65272   -7908.7487   -7799.9131   -1747.3282    29800.777    68.328429 
   23920    988.72346   -7910.1939   -7799.9003   -1956.7204    29792.882    68.386907 
   23930    980.40736   -7909.2767   -7799.9108   -1677.9763    29780.628    68.433355 
   23940    962.04652   -7907.2524   -7799.9347   -1119.3816     29764.57    68.473928 
   23950    942.48102   -7905.0579   -7799.9227   -684.64988     29745.91    68.520425 
   23960    944.74075   -7905.2345   -7799.8472   -389.29245    29725.637    68.583619 
   23970    956.92312   -7906.4508   -7799.7046   -157.99901    29704.437    68.659664 
   23980    968.71679   -7907.5704   -7799.5086   -36.051892    29682.819    68.727767 
   23990    999.58003   -7910.8026   -7799.2979    30.076316    29661.066    68.768654 
   24000    1010.3214   -7911.8162   -7799.1133    257.55188    29639.372    68.781366 
   24010    1004.6556   -7911.0669   -7798.9961    621.14088    29618.254    68.770575 
   24020    986.68545   -7908.9992    -7798.933    789.54869    29598.465    68.755095 
   24030    988.32409   -7909.1547   -7798.9057     549.7959    29580.336    68.751503 
   24040    995.34012   -7909.9434   -7798.9117    323.64282    29563.418    68.759993 
   24050     987.9219   -7909.1641   -7798.9599    317.99129    29547.236    68.776897 
   24060    978.43171   -7908.1956   -7799.0501    293.47401    29531.703    68.794902 
   24070    969.53353   -7907.3179    -7799.165     321.6611    29516.794    68.810915 
   24080     970.3507   -7907.5388   -7799.2947    276.16221    29502.541    68.830129 
   24090    972.26689   -7907.9025   -7799.4447    164.30318    29488.857    68.858844 
   24100    965.38444   -7907.3164   -7799.6263    13.753307    29475.497    68.889751 
   24110    952.97723   -7906.1316   -7799.8256    77.448548    29462.188    68.905032 
   24120    951.46971   -7906.1623   -7800.0244     197.7487    29449.007    68.901228 
   24130    946.97418   -7905.8337   -7800.1973    368.21975    29436.229    68.891247 
   24140    948.72104   -7906.1642   -7800.3329     453.6876     29424.21    68.890141 
   24150    959.29532   -7907.4423   -7800.4314    382.83444    29413.112      68.9095 
   24160    960.19166    -7907.624   -7800.5132    384.33415    29402.841    68.952503 
   24170    938.83793   -7905.2928    -7800.564    351.94911    29393.386    69.003999 
   24180    925.95885   -7903.8352   -7800.5431    237.69496    29384.659    69.034941 
   24190    929.86846   -7904.1365   -7800.4083    220.98756    29376.458    69.037221 
   24200    941.98662   -7905.2349   -7800.1549    320.78244    29368.744    69.021668 
   24210    943.32999   -7905.0223   -7799.7924    539.03913    29361.748    68.985318 
   24220    967.82666   -7907.3083   -7799.3458    515.59224    29355.865    68.920781 
   24230    966.91278   -7906.6919   -7798.8314    632.68348    29351.144    68.842464 
   24240    971.89333   -7906.6951   -7798.2789    742.29183    29347.811    68.766366 
   24250    1000.0706   -7909.2594      -7797.7    788.84559    29346.115    68.707498 
   24260    1018.1584   -7910.7198   -7797.1427    913.00542    29346.199    68.669211 
   24270     1028.348    -7911.378   -7796.6643    1014.5881    29348.317    68.651373 
   24280     1044.349   -7912.8029   -7796.3042      1202.16    29352.737    68.659496 
   24290     1059.514   -7914.2925   -7796.1022    1239.1932    29359.815    68.684925 
   24300    1054.7094   -7913.7525   -7796.0981    1150.5038    29369.658    68.711119 
   24310    1027.9105   -7910.9448   -7796.2799    974.04531    29382.073    68.727491 
   24320    1004.8775   -7908.6887   -7796.5931    833.84365    29396.708    68.722762 
   24330     987.9594   -7907.1881   -7796.9797    852.67696    29413.275    68.709772 
   24340    992.13943   -7908.0928   -7797.4181    869.69213    29431.799    68.714018 
   24350    997.49456   -7909.1857   -7797.9136    566.05844    29452.248    68.743342 
   24360    999.00141   -7909.9117   -7798.4716    140.86197    29474.009    68.789245 
   24370    1005.8797   -7911.3043   -7799.0969   -326.14259    29496.124    68.833923 
   24380    991.76394   -7910.4138    -7799.781   -362.79115    29517.656    68.863001 
   24390    964.49528   -7908.0685   -7800.4776   -157.54473    29538.454     68.87621 
   24400    941.57201   -7906.1515   -7801.1177    87.230855    29558.961    68.882903 
   24410     947.5216    -7907.364   -7801.6666    68.547493     29579.66    68.897828 
   24420    973.20991   -7910.7118   -7802.1488   -45.786511    29600.555    68.928421 
   24430    981.33315   -7912.0691   -7802.5999   -84.472973    29621.422    68.971889 
   24440    986.90948   -7913.1375   -7803.0463   -180.83522    29642.148    69.021824 
   24450    978.91323   -7912.6835   -7803.4842   -394.08252     29662.51    69.074967 
   24460     966.7297   -7911.7397   -7803.8996   -452.15285    29682.072    69.126984 
   24470    947.68872   -7909.9826   -7804.2665    -372.9203    29700.696    69.176511 
   24480    931.70936    -7908.483   -7804.5495   -442.83189    29718.515    69.231297 
   24490     931.2849   -7908.6166   -7804.7304   -739.94863    29735.331    69.287714 
   24500    936.45854   -7909.2739   -7804.8105   -873.78117    29750.574    69.335939 
   24510     946.9938    -7910.447   -7804.8084   -937.19006    29763.894    69.370038 
   24520    949.05212   -7910.6165   -7804.7483   -937.26642    29775.122    69.390654 
   24530    939.70502     -7909.46   -7804.6345   -859.96614    29784.265    69.407683 
   24540    927.27241   -7907.8884   -7804.4498   -833.31594    29791.472    69.433521 
   24550    943.36155   -7909.4174    -7804.184   -991.18697    29796.768    69.466903 
   24560    971.07642   -7912.1763   -7803.8513   -1198.2444    29799.807    69.508418 
   24570    973.75344   -7912.1206   -7803.4969   -1030.9624     29800.22     69.55447 
   24580    979.03869   -7912.3633   -7803.1501   -854.57132    29798.271     69.59551 
   24590    974.14872   -7911.4762   -7802.8084   -592.24299    29794.394     69.63081 
   24600    962.48281   -7909.8354    -7802.469   -330.35955    29789.144    69.668571 
   24610    959.71159   -7909.1677   -7802.1105   -55.476192     29783.12    69.723832 
   24620    957.04617   -7908.4751   -7801.7152    160.22739    29776.935    69.802455 
   24630     953.7879   -7907.6751   -7801.2786     191.0331    29771.062    69.896975 
   24640    962.34258   -7908.1495   -7800.7987    76.659037    29765.584    69.980494 
   24650    981.42461   -7909.7724    -7800.293   -50.413469    29760.254    70.019839 
   24660    981.46908   -7909.2754    -7799.791   -67.916993    29754.815    70.017705 
   24670    987.74792   -7909.5071   -7799.3224   -268.67035    29749.155    70.003226 
   24680    989.43381   -7909.2625   -7798.8897   -307.06272    29742.899    70.003647 
   24690    976.73605   -7907.4538   -7798.4974    -132.8732    29735.969    70.038773 
   24700    971.00356   -7906.4462   -7798.1293   -208.39097    29728.644    70.111906 
   24710    969.35378   -7905.9045   -7797.7716   -336.66871    29720.799    70.206347 
   24720    973.75008   -7906.0543    -7797.431   -459.13991    29712.146    70.296861 
   24730    980.30593   -7906.4701   -7797.1155   -563.24889    29702.394    70.375739 
   24740    988.20673   -7907.0778   -7796.8419   -605.70187    29691.318    70.452951 
   24750    993.39516   -7907.4411   -7796.6264     -517.705    29678.832    70.529947 
   24760    994.84501   -7907.4496   -7796.4732   -235.44522     29665.13    70.603856 
   24770    1001.3297   -7908.0863   -7796.3865    223.65008    29650.846    70.686725 
   24780    1005.4347   -7908.5176   -7796.3599    637.90782    29636.985    70.787795 
   24790    1016.7698   -7909.8279   -7796.4057    744.61972    29624.403    70.901951 
   24800    1009.1802   -7909.0886    -7796.513    819.51635    29613.436    71.001392 
   24810    1010.8283   -7909.4289   -7796.6695    629.47432     29604.18    71.062919 
   24820    1013.3098   -7909.8988   -7796.8626    606.26379    29596.333    71.095603 
   24830     1008.343   -7909.5731   -7797.0909    742.19384    29589.832    71.122132 
   24840    1002.9012   -7909.2205   -7797.3453    896.07016    29584.955    71.160883 
   24850    991.51154   -7908.2156    -7797.611     989.6229    29582.053     71.21009 
   24860    983.81433   -7907.6213   -7797.8754    961.68636    29581.332    71.258019 
   24870    986.85011   -7908.2144   -7798.1298    808.90436    29582.772    71.295594 
   24880    996.47667   -7909.5553   -7798.3969    518.96278    29586.034    71.318354 
   24890    977.81132   -7907.7575   -7798.6812    333.44161    29590.522    71.334553 
   24900    953.19743   -7905.2785   -7798.9478    324.01708    29595.881    71.348421 
   24910    956.80395   -7905.9015   -7799.1685    137.78147    29602.001    71.355013 
   24920    966.07693   -7907.1125   -7799.3452    81.519078    29608.535    71.361403 
   24930     981.4109   -7908.9839    -7799.506    143.46287    29615.378    71.380653 
   24940    987.31795   -7909.8139   -7799.6771    20.550687    29622.622    71.412624 
   24950    986.33147    -7909.904   -7799.8772   -284.95158    29629.991    71.441196 
   24960     975.8302   -7908.9588   -7800.1034   -418.97469    29636.861    71.448991 
   24970    959.08934   -7907.3201   -7800.3322   -200.24969    29642.961    71.431002 
   24980    953.43061   -7906.8929   -7800.5363    162.58944    29648.738    71.394634 
   24990    955.57005   -7907.2975   -7800.7022    482.24417    29654.975    71.351365 
   25000    956.55703   -7907.5376   -7800.8322    621.92495    29662.408     71.30476 
Loop time of 17329.9 on 16 procs for 20000 steps with 864 atoms

Performance: 0.100 ns/day, 240.694 hours/ns, 1.154 timesteps/s
96.6% CPU use with 16 MPI tasks x 1 OpenMP threads

MPI task timing breakdown:
Section |  min time  |  avg time  |  max time  |%varavg| %total
---------------------------------------------------------------
Pair    | 12686      | 14427      | 16006      | 899.5 | 83.25
Bond    | 0.0025337  | 0.0057598  | 0.0090954  |   2.9 |  0.00
Neigh   | 0.22095    | 0.23614    | 0.24768    |   1.2 |  0.00
Comm    | 650.91     | 2060.3     | 3901.8     |2427.7 | 11.89
Output  | 1.5944     | 1.7073     | 3.3493     |  32.5 |  0.01
Modify  | 669.99     | 841.03     | 1117.7     | 578.6 |  4.85
Other   |            | 0.142      |            |       |  0.00

Nlocal:        54.0000 ave          62 max          46 min
Histogram: 1 2 1 2 1 2 4 1 0 2
Nghost:        410.000 ave         419 max         396 min
Histogram: 1 1 0 2 1 1 4 1 2 3
Neighs:         0.00000 ave           0 max           0 min
Histogram: 16 0 0 0 0 0 0 0 0 0
FullNghs:      1531.88 ave        1840 max        1302 min
Histogram: 3 1 1 3 1 2 2 2 0 1

Total # of neighbors = 24510
Ave neighs/atom = 28.368056
Ave special neighs/atom = 0.0000000
Neighbor list builds = 2000
Dangerous builds = 2000
unfix   3
                
Total wall time: 5:58:17
