LAMMPS (29 Sep 2021 - Update 3)
OMP_NUM_THREADS environment is not set. Defaulting to 1 thread. (src/comm.cpp:98)
  using 1 OpenMP thread(s) per MPI task
units	metal
atom_style	full

read_data	mixed.data
Reading data file ...
  orthogonal box = (0.0000000 0.0000000 0.0000000) to (15.866041 15.852264 77.123517)
  2 by 1 by 8 MPI processor grid
  reading atoms ...
  864 atoms
Finding 1-2 1-3 1-4 neighbors ...
  special bond factors lj:    0        0        0       
  special bond factors coul:  0        0        0       
     0 = max # of 1-2 neighbors
     0 = max # of 1-3 neighbors
     0 = max # of 1-4 neighbors
     1 = max # of special neighbors
  special bonds CPU = 0.006 seconds
  read_data CPU = 0.029 seconds

pair_style	quip
pair_coeff	* * /ocean/projects/cts180021p/wuziqi/clease/mint-PD/PhaseDiagram-Clease/Liquid/GAP_potential/gap_LiKCl.xml "Potential xml_label=GAP_2021_9_27_0_1_17_37_618" 17 19 3

neighbor	0.3 bin
neigh_modify	delay 10

timestep	0.001
compute	msd all msd
thermo_style	custom step temp pe etotal press vol c_msd[4]
thermo	10
dump	1 all custom 10 xyz-mix.dump type id x y z
dump	2 all custom 10 force-mix.dump type id fx fy fz

fix     1 all nve
run     2000
Neighbor list info ...
  update every 1 steps, delay 10 steps, check yes
  max neighbors/atom: 2000, page size: 100000
  master list distance cutoff = 6.22
  ghost atom cutoff = 6.22
  binsize = 3.11, bins = 6 6 25
  1 neighbor lists, perpetual/occasional/extra = 1 0 0
  (1) pair quip, perpetual
      attributes: full, newton on
      pair build: full/bin
      stencil: full/bin/3d
      bin: standard
Per MPI rank memory allocation (min/avg/max) = 8.889 | 8.906 | 8.916 Mbytes
Step Temp PotEng TotEng Press Volume c_msd[4] 
       0            0   -8878.9247   -8878.9247   -11708.833    19397.542            0 
      10    108.80145    -8891.078    -8878.941   -13519.947    19397.542 0.00037756483 
      20    255.99871   -8907.5101   -8878.9531   -15433.074    19397.542  0.004636157 
      30    288.56988   -8911.1358   -8878.9454   -14361.122    19397.542  0.015943357 
      40    289.10053   -8911.1934   -8878.9438   -12512.136    19397.542  0.032214776 
      50    304.26419   -8912.8839   -8878.9428   -12190.839    19397.542  0.050010352 
      60    330.67215   -8915.8353   -8878.9484    -12512.07    19397.542  0.067008738 
      70    319.75479    -8914.613   -8878.9439   -12021.554    19397.542  0.084636553 
      80     311.7171   -8913.7131   -8878.9406   -11242.174    19397.542   0.10335882 
      90    344.97025   -8917.4272   -8878.9452   -11377.847    19397.542   0.12285636 
     100    369.47631   -8920.1625   -8878.9469   -11460.202    19397.542   0.14373353 
     110    369.44402   -8920.1551   -8878.9431   -10737.559    19397.542   0.16547428 
     120    381.04496   -8921.4513   -8878.9452   -10101.733    19397.542   0.18697263 
     130    387.01967   -8922.1174   -8878.9447    -9853.945    19397.542   0.20927079 
     140    390.46305   -8922.5002   -8878.9434   -10154.629    19397.542   0.23274757 
     150    401.17379   -8923.6966   -8878.9451   -10935.233    19397.542   0.25686229 
     160    405.60936   -8924.1923    -8878.946   -11533.497    19397.542   0.28181117 
     170    403.00983   -8923.9035   -8878.9472   -11313.905    19397.542   0.30705714 
     180    385.93942   -8921.9971   -8878.9449   -10395.352    19397.542   0.33328028 
     190    384.55592   -8921.8429   -8878.9451   -9702.4152    19397.542    0.3615061 
     200    397.89654   -8923.3338   -8878.9478   -9508.3306    19397.542   0.39138176 
     210    403.74057   -8923.9838    -8878.946   -9854.3562    19397.542   0.41959204 
     220    419.25516   -8925.7147   -8878.9462   -11120.155    19397.542   0.44190424 
     230    437.64496   -8927.7678   -8878.9478   -12741.979    19397.542   0.46059951 
     240    436.22365   -8927.6096   -8878.9482   -13773.271    19397.542   0.48016288 
     250     417.4692   -8925.5154   -8878.9461   -14188.084    19397.542   0.50051511 
     260    403.07006   -8923.9093   -8878.9463   -14452.366    19397.542   0.51954432 
     270    390.78955   -8922.5388   -8878.9456   -14869.677    19397.542   0.53842732 
     280    390.91941   -8922.5534   -8878.9458   -15753.944    19397.542   0.55789535 
     290    394.53071   -8922.9579   -8878.9474   -16866.473    19397.542   0.57907365 
     300    385.46639   -8921.9447   -8878.9454   -17556.881    19397.542   0.60332818 
     310    388.07639   -8922.2367   -8878.9462   -18102.563    19397.542   0.62988844 
     320    395.22438   -8923.0346   -8878.9467   -18476.923    19397.542   0.65693198 
     330     392.7193   -8922.7554    -8878.947   -18634.964    19397.542   0.68294096 
     340    387.36548    -8922.158   -8878.9468   -18928.114    19397.542    0.7064488 
     350    383.70376     -8921.75   -8878.9472   -19255.038    19397.542   0.72809194 
     360    380.16279   -8921.3526   -8878.9449   -19764.905    19397.542   0.74756432 
     370    391.53302   -8922.6238   -8878.9477   -20433.416    19397.542   0.76345228 
     380    397.18733   -8923.2529   -8878.9461   -20848.612    19397.542   0.77799013 
     390    399.66038   -8923.5327     -8878.95   -20962.623    19397.542    0.7926845 
     400    376.74168   -8920.9703   -8878.9442   -20594.318    19397.542   0.80792627 
     410    384.01385   -8921.7861   -8878.9488   -20827.442    19397.542   0.82090067 
     420    385.42711   -8921.9432   -8878.9482    -21282.02    19397.542   0.83289421 
     430    375.82197   -8920.8694   -8878.9459   -21749.833    19397.542   0.84474346 
     440    377.40301   -8921.0478   -8878.9479   -22280.425    19397.542   0.85654263 
     450    373.39276   -8920.5987   -8878.9462   -22358.315    19397.542   0.87121917 
     460    380.55104   -8921.3982   -8878.9472   -22127.174    19397.542   0.88923864 
     470    389.08947   -8922.3531   -8878.9496   -21563.629    19397.542   0.90990069 
     480    377.88025   -8921.0989   -8878.9458   -20903.426    19397.542   0.93174236 
     490    381.74982   -8921.5319   -8878.9472   -20620.986    19397.542   0.94962563 
     500    394.14575   -8922.9156   -8878.9481   -20486.731    19397.542   0.96309083 
     510    397.04898   -8923.2389   -8878.9475   -19997.235    19397.542   0.97658553 
     520    399.82595   -8923.5491    -8878.948   -19535.484    19397.542   0.99241283 
     530    404.27704   -8924.0446   -8878.9469    -19115.46    19397.542    1.0084992 
     540     411.3451   -8924.8362     -8878.95   -18661.849    19397.542    1.0226069 
     550    394.09812   -8922.9082    -8878.946   -17821.103    19397.542    1.0374953 
     560    386.81962   -8922.0987   -8878.9484   -17144.624    19397.542    1.0531551 
     570    383.04436   -8921.6747   -8878.9456   -16711.306    19397.542    1.0690946 
     580    397.22268   -8923.2587   -8878.9479   -16702.646    19397.542    1.0866029 
     590    408.28446   -8924.4929   -8878.9481   -16623.668    19397.542    1.1074158 
     600    405.74477   -8924.2095   -8878.9481   -16314.107    19397.542    1.1302748 
     610    396.02325   -8923.1251   -8878.9481    -15628.66    19397.542    1.1519665 
     620     395.3341   -8923.0495   -8878.9494   -15051.831    19397.542    1.1694303 
     630    394.27036   -8922.9318   -8878.9503   -14512.907    19397.542    1.1828305 
     640    383.62649   -8921.7417   -8878.9476   -14067.198    19397.542    1.1945401 
     650    385.14193   -8921.9112    -8878.948   -13839.463    19397.542    1.2068311 
     660     395.4713   -8923.0651   -8878.9497   -13755.797    19397.542    1.2218962 
     670     396.9724   -8923.2312   -8878.9483   -13681.042    19397.542    1.2411479 
     680    400.76426   -8923.6562   -8878.9504   -13529.754    19397.542    1.2649597 
     690    395.59922   -8923.0782   -8878.9485   -13202.541    19397.542    1.2892968 
     700    393.08673   -8922.7984    -8878.949    -12863.36    19397.542    1.3108518 
     710    392.46287   -8922.7295   -8878.9497   -12776.215    19397.542    1.3306314 
     720    392.69983   -8922.7538   -8878.9476   -12960.731    19397.542    1.3493343 
     730    407.70626    -8924.431   -8878.9507   -13617.908    19397.542    1.3652761 
     740    418.60831   -8925.6458   -8878.9494   -14182.857    19397.542    1.3758719 
     750    427.35697   -8926.6222   -8878.9499   -14411.802    19397.542    1.3817369 
     760    426.23067   -8926.4956    -8878.949   -14240.457    19397.542    1.3874968 
     770    425.68986   -8926.4355   -8878.9492   -14121.142    19397.542    1.3956033 
     780    424.34662   -8926.2861   -8878.9496   -14199.692    19397.542    1.4059418 
     790    416.51178   -8925.4118   -8878.9493   -14348.579    19397.542    1.4172819 
     800    406.85203   -8924.3329   -8878.9479   -14603.708    19397.542    1.4293586 
     810     409.3926   -8924.6176   -8878.9492   -14954.594    19397.542    1.4437899 
     820    411.52943   -8924.8561   -8878.9494   -15227.004    19397.542     1.461671 
     830    414.76526   -8925.2161   -8878.9484   -15348.177    19397.542    1.4822988 
     840    425.47297   -8926.4126   -8878.9505   -15497.059    19397.542    1.5061095 
     850    424.10961   -8926.2589   -8878.9489    -15461.05    19397.542    1.5339208 
     860    425.84903   -8926.4531    -8878.949   -15668.017    19397.542    1.5638872 
     870    428.28778   -8926.7265   -8878.9503   -15975.954    19397.542    1.5941429 
     880    422.32484   -8926.0597   -8878.9487   -16050.391    19397.542    1.6254163 
     890    420.59441   -8925.8681   -8878.9502   -16210.368    19397.542    1.6579317 
     900    412.78354   -8924.9958   -8878.9492   -16186.118    19397.542    1.6917804 
     910    408.88335   -8924.5603   -8878.9488   -16398.021    19397.542    1.7253326 
     920    415.25495   -8925.2723     -8878.95   -16866.947    19397.542    1.7566903 
     930    417.79568   -8925.5555   -8878.9498    -17314.63    19397.542    1.7866576 
     940    414.15774   -8925.1502   -8878.9503   -17816.895    19397.542    1.8175362 
     950    410.14766   -8924.7024   -8878.9498   -18397.528    19397.542     1.850555 
     960    412.13206   -8924.9218   -8878.9478   -18864.984    19397.542    1.8837942 
     970    427.90234   -8926.6835   -8878.9503   -19165.223    19397.542    1.9147148 
     980    431.11936    -8927.043    -8878.951    -19021.79    19397.542    1.9457246 
     990    415.64991   -8925.3145   -8878.9482   -18606.767    19397.542    1.9812421 
    1000    413.92707   -8925.1233   -8878.9491   -18513.829    19397.542    2.0201072 
    1010    417.45395   -8925.5177     -8878.95   -18558.895    19397.542    2.0574524 
    1020    414.66605   -8925.2045   -8878.9479    -18540.13    19397.542    2.0909232 
    1030    425.32279   -8926.3944    -8878.949   -18804.281    19397.542    2.1200334 
    1040    437.39791    -8927.743   -8878.9506    -19174.44    19397.542    2.1461906 
    1050    432.04437    -8927.144   -8878.9488   -19430.964    19397.542    2.1724444 
    1060    423.10855   -8926.1471   -8878.9487    -19670.97    19397.542     2.200914 
    1070    416.30819    -8925.389   -8878.9492   -19752.208    19397.542     2.232564 
    1080    410.19009   -8924.7058   -8878.9485   -19471.789    19397.542    2.2656179 
    1090    411.43188   -8924.8454   -8878.9496   -18927.842    19397.542    2.2963807 
    1100    413.58688   -8925.0849   -8878.9486   -18540.027    19397.542    2.3238349 
    1110    425.71996   -8926.4384   -8878.9486   -18620.545    19397.542    2.3474636 
    1120    443.01807   -8928.3709   -8878.9516   -18883.908    19397.542    2.3679172 
    1130    437.42575   -8927.7454   -8878.9499   -18767.479    19397.542    2.3882255 
    1140    422.48256   -8926.0773   -8878.9487   -18476.767    19397.542    2.4089666 
    1150    414.07643   -8925.1393   -8878.9485   -18282.798    19397.542    2.4284943 
    1160    416.01416   -8925.3558   -8878.9488   -18291.885    19397.542     2.446853 
    1170    419.66714   -8925.7642   -8878.9497   -18446.717    19397.542    2.4644412 
    1180    424.21945   -8926.2706   -8878.9483    -18449.36    19397.542    2.4806419 
    1190    440.19598   -8928.0557   -8878.9512   -18343.062    19397.542    2.4945267 
    1200    440.38662   -8928.0752   -8878.9494   -17908.359    19397.542     2.507228 
    1210    440.40752   -8928.0774   -8878.9493   -17509.071    19397.542    2.5196997 
    1220    445.29341   -8928.6232   -8878.9501   -17433.008    19397.542    2.5321836 
    1230    444.31811   -8928.5138   -8878.9494   -17404.254    19397.542    2.5456285 
    1240    444.21916   -8928.5028   -8878.9495   -17567.287    19397.542    2.5617678 
    1250    447.95301   -8928.9197   -8878.9499   -17998.888    19397.542    2.5810013 
    1260    447.05056     -8928.82   -8878.9509   -18113.089    19397.542    2.6027835 
    1270    433.76409   -8927.3363   -8878.9493   -17647.746    19397.542    2.6267411 
    1280    426.49744   -8926.5249   -8878.9485   -17215.404    19397.542    2.6522665 
    1290    438.76938   -8927.8949   -8878.9495   -17215.004    19397.542     2.679609 
    1300     454.8554   -8929.6913   -8878.9515   -17412.029    19397.542    2.7096074 
    1310    451.74789   -8929.3435   -8878.9504   -17515.094    19397.542    2.7419599 
    1320    440.03726   -8928.0361   -8878.9493    -17582.78    19397.542    2.7732724 
    1330    433.51813    -8927.309   -8878.9494   -17627.787    19397.542    2.7991894 
    1340    430.66307   -8926.9918   -8878.9507   -17406.648    19397.542    2.8192899 
    1350    422.06307   -8926.0311   -8878.9493    -17030.68    19397.542    2.8369839 
    1360    423.68793   -8926.2128   -8878.9498   -16872.793    19397.542    2.8564726 
    1370    432.23825   -8927.1671   -8878.9502   -16941.721    19397.542    2.8798412 
    1380    440.61409   -8928.1014   -8878.9502   -17160.411    19397.542     2.904214 
    1390    442.38617   -8928.3005   -8878.9516   -17288.698    19397.542    2.9262872 
    1400    432.82497   -8927.2303    -8878.948   -17111.965    19397.542    2.9462931 
    1410    443.20721   -8928.3906   -8878.9502   -17379.272    19397.542    2.9656964 
    1420     452.8574   -8929.4692   -8878.9523   -17581.285    19397.542    2.9866189 
    1430    440.33742   -8928.0699   -8878.9496    -17078.18    19397.542    3.0107644 
    1440    434.09539   -8927.3728   -8878.9488   -16559.852    19397.542    3.0372306 
    1450    446.59797     -8928.77   -8878.9513   -16458.202    19397.542    3.0634597 
    1460    455.16552   -8929.7248   -8878.9504   -16509.198    19397.542    3.0883146 
    1470     460.5176    -8930.323   -8878.9516   -16639.411    19397.542    3.1117695 
    1480    455.78137    -8929.792   -8878.9489   -16643.605    19397.542    3.1332037 
    1490    461.66937   -8930.4506   -8878.9507   -16632.215    19397.542     3.152331 
    1500    464.06114   -8930.7172   -8878.9504   -16316.323    19397.542    3.1724877 
    1510    464.69685   -8930.7871   -8878.9495    -16148.36    19397.542    3.1960897 
    1520    471.22077   -8931.5167   -8878.9514   -16208.841    19397.542    3.2225013 
    1530    471.47122   -8931.5429   -8878.9496   -16597.639    19397.542    3.2496574 
    1540    479.04999   -8932.3903   -8878.9516   -17340.131    19397.542    3.2743864 
    1550    475.60674   -8932.0055   -8878.9508   -17872.304    19397.542    3.2971604 
    1560    465.76065   -8930.9064   -8878.9501   -17822.552    19397.542    3.3221892 
    1570    460.06152    -8930.271   -8878.9505    -17442.47    19397.542    3.3512444 
    1580    459.40082   -8930.1971   -8878.9502   -16941.542    19397.542    3.3813068 
    1590    460.93829   -8930.3707   -8878.9523   -16350.345    19397.542    3.4083736 
    1600     448.2201   -8928.9504   -8878.9508   -15603.607    19397.542    3.4316634 
    1610     443.9941   -8928.4772    -8878.949    -15275.86    19397.542    3.4534934 
    1620    463.51034   -8930.6582    -8878.953   -15593.563    19397.542    3.4766509 
    1630    474.66564   -8931.9011   -8878.9514   -16126.405    19397.542    3.5034224 
    1640    481.75389   -8932.6918   -8878.9514   -16542.721    19397.542    3.5333548 
    1650    479.37897   -8932.4264    -8878.951   -16541.998    19397.542    3.5648125 
    1660    474.97776   -8931.9337   -8878.9492   -16284.173    19397.542    3.5952514 
    1670    481.99089    -8932.719   -8878.9522   -15990.017    19397.542    3.6221631 
    1680      474.213   -8931.8498   -8878.9506   -15457.654    19397.542    3.6454728 
    1690    462.13083    -8930.502   -8878.9506   -14731.806    19397.542     3.665115 
    1700    458.63731   -8930.1109   -8878.9492   -14389.905    19397.542    3.6801149 
    1710    473.55465   -8931.7771   -8878.9513   -14547.389    19397.542    3.6915037 
    1720    483.59001    -8932.897   -8878.9518   -15013.331    19397.542    3.7021408 
    1730    481.36556   -8932.6472   -8878.9501   -15645.926    19397.542    3.7142289 
    1740    484.05437   -8932.9483   -8878.9513   -16474.749    19397.542    3.7288904 
    1750    482.16869   -8932.7383   -8878.9516   -16722.219    19397.542     3.747119 
    1760    470.26243   -8931.4082   -8878.9497   -16475.495    19397.542    3.7689551 
    1770    472.75321   -8931.6852   -8878.9489   -16480.419    19397.542    3.7930019 
    1780    495.80424   -8934.2609   -8878.9532   -16801.632    19397.542     3.817904 
    1790    498.29189   -8934.5359   -8878.9506   -17030.699    19397.542    3.8432118 
    1800    497.22115   -8934.4163   -8878.9505   -17233.599    19397.542    3.8677962 
    1810    498.13201   -8934.5195   -8878.9521   -17294.852    19397.542    3.8916583 
    1820    485.17576   -8933.0725   -8878.9504   -16971.976    19397.542    3.9157232 
    1830    479.44537   -8932.4337   -8878.9509   -16627.564    19397.542    3.9391486 
    1840    478.88134   -8932.3712   -8878.9513   -16398.764    19397.542    3.9621449 
    1850     478.6415   -8932.3435   -8878.9503   -16406.049    19397.542    3.9857213 
    1860     486.1211   -8933.1789   -8878.9514   -16705.544    19397.542    4.0086822 
    1870    492.79459   -8933.9238   -8878.9519   -17221.514    19397.542    4.0297149 
    1880    491.36379   -8933.7648   -8878.9525   -18037.772    19397.542    4.0499732 
    1890    475.70955   -8932.0166   -8878.9505   -18910.363    19397.542    4.0709101 
    1900    464.92588   -8930.8141   -8878.9509   -19819.272    19397.542    4.0929306 
    1910    455.59431   -8929.7727   -8878.9505   -20229.987    19397.542    4.1160109 
    1920    452.87672   -8929.4684   -8878.9493   -20242.611    19397.542    4.1384657 
    1930    467.97161   -8931.1539   -8878.9509   -20369.825    19397.542    4.1581839 
    1940    485.34862   -8933.0926   -8878.9512   -20514.477    19397.542    4.1756159 
    1950    495.78252   -8934.2578   -8878.9525   -20428.878    19397.542    4.1936772 
    1960    500.11778   -8934.7389     -8878.95   -20591.437    19397.542    4.2145461 
    1970    511.99695   -8936.0681    -8878.954   -21344.221    19397.542    4.2363696 
    1980    499.23942   -8934.6421   -8878.9512   -21654.428    19397.542    4.2540635 
    1990    487.56603   -8933.3391   -8878.9504    -21588.86    19397.542    4.2657075 
    2000    485.14508   -8933.0707    -8878.952   -21134.343    19397.542    4.2770463 
Loop time of 1599.22 on 16 procs for 2000 steps with 864 atoms

Performance: 0.108 ns/day, 222.114 hours/ns, 1.251 timesteps/s
96.5% CPU use with 16 MPI tasks x 1 OpenMP threads

MPI task timing breakdown:
Section |  min time  |  avg time  |  max time  |%varavg| %total
---------------------------------------------------------------
Pair    | 385.56     | 848.31     | 1596.7     |1105.0 | 53.05
Bond    | 0.00016022 | 0.00042453 | 0.0010242  |   0.0 |  0.00
Neigh   | 0.014615   | 0.030159   | 0.063156   |   7.7 |  0.00
Comm    | 1.8792     | 654.98     | 1075.8     |1210.0 | 40.96
Output  | 0.58522    | 29.206     | 63.416     | 432.3 |  1.83
Modify  | 0.0096726  | 0.01116    | 0.013643   |   1.0 |  0.00
Other   |            | 66.69      |            |       |  4.17

Nlocal:        54.0000 ave          90 max          29 min
Histogram: 3 3 0 2 3 1 0 2 0 2
Nghost:        493.750 ave         643 max         369 min
Histogram: 3 1 0 3 2 2 1 2 0 2
Neighs:         0.00000 ave           0 max           0 min
Histogram: 16 0 0 0 0 0 0 0 0 0
FullNghs:      2706.00 ave        5944 max         890 min
Histogram: 6 0 2 1 3 0 2 0 0 2

Total # of neighbors = 43296
Ave neighs/atom = 50.111111
Ave special neighs/atom = 0.0000000
Neighbor list builds = 200
Dangerous builds = 200
unfix   1

velocity    all create 675.0 1312343 dist gaussian
fix     2 all npt temp 675.0 675.0 $(100.0*dt) aniso 0.0 1.01325 $(1000.0*dt)
fix     2 all npt temp 675.0 675.0 0.10000000000000000555 aniso 0.0 1.01325 $(1000.0*dt)
fix     2 all npt temp 675.0 675.0 0.10000000000000000555 aniso 0.0 1.01325 1
run     3000
Per MPI rank memory allocation (min/avg/max) = 8.894 | 8.909 | 8.920 Mbytes
Step Temp PotEng TotEng Press Volume c_msd[4] 
    2000          675   -8933.0707   -8857.7734   -19968.152    19397.542    4.2770463 
    2010    614.74977   -8926.5562   -8857.9799   -17878.887    19383.763    4.3001148 
    2020    528.93764   -8917.3872   -8858.3834   -13886.635    19345.258    4.3236625 
    2030     554.3335   -8920.5511   -8858.7144   -11766.777    19287.359    4.3380158 
    2040    590.43472   -8924.7413   -8858.8775   -9916.6064    19213.725     4.341722 
    2050    607.41325   -8926.6137   -8858.8559   -7001.2971    19127.821    4.3380562 
    2060    619.70281   -8927.7074   -8858.5786   -3469.8971    19034.624    4.3294475 
    2070    627.28788   -8928.0245   -8858.0496    79.763763    18940.001    4.3199916 
    2080    625.71877   -8927.1497   -8857.3498    3454.3615    18849.651    4.3117347 
    2090    613.96338   -8925.0285     -8856.54    6684.9802     18768.61    4.3017703 
    2100    612.31436   -8923.9417   -8855.6371    9429.9971    18700.994     4.286278 
    2110    630.59626   -8925.0306   -8854.6866    11403.518    18649.678    4.2643284 
    2120    661.56652   -8927.5835   -8853.7848    12422.536    18616.076     4.238861 
    2130    659.20089   -8926.5595   -8853.0247    12912.758     18600.26    4.2146442 
    2140    650.60151   -8925.0323   -8852.4567    12134.097    18601.464    4.1938423 
    2150    669.10288   -8926.6832   -8852.0438      9824.79    18617.497    4.1761446 
    2160    671.15466   -8926.5929   -8851.7246     7583.322    18644.774    4.1620524 
    2170    656.57911   -8924.7089   -8851.4665    5426.1946    18679.844    4.1529122 
    2180    630.72669   -8921.5532   -8851.1947    3280.8594    18719.638    4.1499796 
    2190    625.84425   -8920.6511   -8850.8372    619.13598     18761.19    4.1537629 
    2200    655.30099   -8923.4489   -8850.3491   -2216.8873    18801.123    4.1636837 
    2210    661.65478   -8923.5876   -8849.7791   -3756.6846    18836.147    4.1789216 
    2220    656.78424   -8922.4735   -8849.2082   -4252.3127    18864.561    4.1988699 
    2230    655.41343   -8921.7516   -8848.6392   -4164.4201     18886.06    4.2238469 
    2240    654.93372   -8921.1153   -8848.0565   -3695.7867    18901.139    4.2533661 
    2250    668.04178   -8921.9784   -8847.4573   -3433.1667    18910.659    4.2873906 
    2260    662.83555   -8920.8043    -8846.864    -2909.642    18915.307    4.3260055 
    2270     662.9022   -8920.2457    -8846.298   -2230.1706    18915.985    4.3662123 
    2280    678.44406   -8921.4373   -8845.7558   -1469.0717    18913.747    4.4036364 
    2290    685.39045   -8921.7066   -8845.2503   -542.67907    18909.729    4.4350521 
    2300    685.57354   -8921.2853   -8844.8086   -181.90206    18905.077    4.4573782 
    2310    686.49279   -8921.0263    -8844.447     -87.7711    18900.327    4.4701633 
    2320     690.3314   -8921.1744   -8844.1669    91.952638     18895.64    4.4753832 
    2330    687.10277   -8920.5934    -8843.946    659.53073    18891.272    4.4737836 
    2340     682.9634   -8919.9352   -8843.7496     924.1274    18887.853    4.4666176 
    2350    691.48558   -8920.6999   -8843.5636    841.98448    18885.717    4.4556136 
    2360    682.22161   -8919.4966   -8843.3937    825.40855    18884.761    4.4394887 
    2370    674.23482   -8918.4573   -8843.2453    488.80889     18884.88     4.416819 
    2380    679.64616   -8918.9235   -8843.1079   -144.30325    18885.608    4.3880947 
    2390    696.43872   -8920.6596   -8842.9708   -1025.7801    18886.084    4.3574576 
    2400    720.43309   -8923.2307   -8842.8653    -1209.758    18885.302    4.3314675 
    2410    698.35044   -8920.7256   -8842.8235   -155.14425    18883.121    4.3120434 
    2420    688.56242   -8919.6422   -8842.8321    312.18084    18880.711    4.2941955 
    2430    699.36532   -8920.8854   -8842.8702   -82.378765    18878.672    4.2779836 
    2440    702.69743   -8921.3477   -8842.9607   -187.04783    18876.611    4.2651983 
    2450    711.48341   -8922.5069   -8843.1399    -3.858321    18874.376     4.254774 
    2460    709.08693   -8922.5234   -8843.4237    363.17276    18872.213    4.2462306 
    2470    702.08469   -8922.1186      -8843.8    772.19516    18870.596    4.2375981 
    2480    689.78265   -8921.1844   -8844.2381    1207.2527    18870.045    4.2284083 
    2490    677.98455    -8920.334   -8844.7038     995.3998    18871.012    4.2216918 
    2500    673.79522   -8920.3328     -8845.17    239.44248    18873.205    4.2196032 
    2510    688.06088   -8922.3917   -8845.6375   -594.55931    18875.655     4.222915 
    2520     708.2394    -8925.147   -8846.1418   -960.41932    18877.329     4.231209 
    2530    701.42911   -8924.9452   -8846.6997   -254.36352    18877.849    4.2421249 
    2540    683.65969   -8923.5351   -8847.2718    545.76018    18878.032    4.2497802 
    2550     668.4081   -8922.3716   -8847.8097    683.47511    18878.861    4.2500898 
    2560    660.61786   -8921.9769   -8848.2839    83.699273    18880.478    4.2433399 
    2570    667.82568   -8923.1942   -8848.6972   -721.86699    18882.166    4.2325301 
    2580    668.53324   -8923.6363   -8849.0604   -1181.0233    18882.927    4.2225598 
    2590     664.6382   -8923.5166   -8849.3752   -787.90764     18882.23    4.2157237 
    2600    681.48819   -8925.6703   -8849.6493   -143.99462    18880.551    4.2097907 
    2610    697.19497   -8927.6853   -8849.9122    156.25483    18878.655    4.2031997 
    2620    698.84584   -8928.1551   -8850.1977    167.41182    18876.951    4.1941881 
    2630    705.46334   -8929.2164   -8850.5209   -315.20226    18875.423    4.1807758 
    2640    704.77755   -8929.5142   -8850.8952   -715.93652    18873.524    4.1650791 
    2650    674.25467   -8926.5033   -8851.2891   -676.84299     18870.77    4.1483467 
    2660    662.59699   -8925.5638   -8851.6501   -925.43543    18867.143    4.1287775 
    2670    691.47067   -8929.1243   -8851.9897   -1422.2533    18862.345    4.1073552 
    2680    712.42791   -8931.8377   -8852.3653   -919.69631    18855.891    4.0876355 
    2690    693.92223   -8930.1921   -8852.7841    494.93663    18848.455    4.0710207 
    2700    664.11479   -8927.2639   -8853.1809    1646.8899    18841.766    4.0575695 
    2710    658.74917   -8926.9846   -8853.5001    2014.5324    18837.268     4.045416 
    2720    684.85285   -8930.1725   -8853.7761    1352.4301    18835.366    4.0325411 
    2730    687.00489   -8930.6911   -8854.0546    563.65538    18835.248    4.0196498 
    2740    675.30924   -8929.6694   -8854.3377    361.75571    18835.935    4.0075356 
    2750     678.5666   -8930.2951      -8854.6     503.3957    18837.124    3.9982693 
    2760    694.54121   -8932.3292   -8854.8521     948.1274    18839.009    3.9935199 
    2770    703.77328   -8933.6384   -8855.1315    1186.2441    18842.072    3.9944194 
    2780    699.56291   -8933.4996   -8855.4623    1367.5177    18846.638    4.0012788 
    2790    691.47837   -8932.9648   -8855.8293    1487.0438    18852.929    4.0146495 
    2800    694.47711   -8933.6811   -8856.2112     877.2386    18861.001    4.0339988 
    2810    706.20882   -8935.3838   -8856.6051     -703.533    18869.981    4.0554524 
    2820    709.94462   -8936.2224    -8857.027   -2066.1011     18877.92    4.0767991 
    2830    691.22168   -8934.5744   -8857.4676   -2394.5547    18883.134    4.0985049 
    2840    677.88221   -8933.4968    -8857.878   -2352.9069    18885.158    4.1226819 
    2850    694.46986   -8935.7339   -8858.2647   -2514.5244    18884.021    4.1514272 
    2860    676.68382   -8934.1247   -8858.6396    -2119.758    18879.665    4.1859933 
    2870    687.58563   -8935.6956   -8858.9944    -2187.257    18872.517    4.2213585 
    2880    707.44287   -8938.2631   -8859.3468   -2270.2639    18862.625    4.2561009 
    2890    712.80841   -8939.2403   -8859.7254   -1941.8413    18849.978    4.2907274 
    2900    718.81711   -8940.3131   -8860.1279   -2237.0859    18834.911    4.3235605 
    2910    723.98155   -8941.3519   -8860.5907   -2379.9895     18817.17    4.3543955 
    2920    671.58789   -8935.9713   -8861.0546   -1121.1373      18796.8    4.3891325 
    2930    657.69463   -8934.8015   -8861.4347   -816.01052    18775.171    4.4296078 
    2940    698.08051   -8939.6398   -8861.7679   -1179.5983    18752.779    4.4743851 
    2950    696.56563   -8939.8024   -8862.0995   -765.14028    18729.328    4.5196988 
    2960    687.35756   -8939.1038    -8862.428   -189.31443    18705.306    4.5595805 
    2970    687.13189   -8939.3971   -8862.7465   -63.668545    18681.406    4.5943739 
    2980    686.55047   -8939.6482   -8863.0625    361.71014    18657.882    4.6266961 
    2990    675.26554   -8938.6931   -8863.3662    888.33399    18635.239    4.6582548 
    3000    674.00826   -8938.8362   -8863.6495    1010.8581    18614.096    4.6898517 
    3010    690.59395   -8940.9666   -8863.9298    669.50493     18594.56    4.7198902 
    3020    688.27065   -8941.0043   -8864.2267    709.17568    18576.276    4.7470247 
    3030    685.79458   -8941.0245    -8864.523    800.42055    18559.232    4.7708428 
    3040    708.62953   -8943.8817    -8864.833    134.47494    18543.412    4.7916778 
    3050    709.29488    -8944.315   -8865.1921    -89.98298     18528.11    4.8094513 
    3060    696.64717   -8943.3049   -8865.5929   -182.58729    18512.977    4.8248056 
    3070    712.67969   -8945.5448   -8866.0443   -827.64378     18497.83    4.8384863 
    3080    723.22125   -8947.2487   -8866.5722   -1399.5998     18481.93    4.8525378 
    3090    720.24894   -8947.5158   -8867.1709   -956.79178     18464.68    4.8702251 
    3100    709.25841   -8946.9163   -8867.7974    263.43184    18446.621    4.8899496 
    3110    704.00819   -8946.9588   -8868.4257    1545.0404    18429.227    4.9088784 
    3120    699.66785    -8947.081    -8869.032    2552.4393     18414.06    4.9277373 
    3130     696.0801    -8947.262   -8869.6132    3315.5689     18402.34    4.9479441 
    3140    691.86502   -8947.3178   -8870.1392    3384.8334    18394.914    4.9693665 
    3150    721.80065   -8951.1702   -8870.6523    1996.1537    18391.677    4.9880146 
    3160     727.1078   -8952.2885   -8871.1785    799.43261    18391.039    5.0023916 
    3170    718.97279   -8951.9154   -8871.7129    300.50542     18391.51    5.0144244 
    3180     711.2863   -8951.5831    -8872.238    2.3126515    18392.382     5.029285 
    3190    711.62097   -8952.1435   -8872.7611   -341.68454    18393.241    5.0510662 
    3200    707.10542   -8952.1663   -8873.2876   -712.20178    18393.666     5.079663 
    3210    715.08983   -8953.5936   -8873.8243   -1691.0495    18393.138    5.1122866 
    3220    739.30513   -8956.8797   -8874.4091   -2941.4343    18390.513    5.1493184 
    3230    746.64506   -8958.3852   -8875.0958   -3975.8742    18384.283    5.1915848 
    3240    737.25955    -8958.116   -8875.8735   -3729.3971    18373.361    5.2398423 
    3250    751.71817   -8960.5884   -8876.7331   -3183.9571    18358.006    5.2935195 
    3260    751.38173   -8961.4816   -8877.6638   -2294.0946    18339.019    5.3502917 
    3270    747.70193   -8962.0374   -8878.6301   -1007.1538    18317.592    5.4069168 
    3280    736.29533    -8961.716   -8879.5811    486.16484    18295.366    5.4620048 
    3290    724.34384   -8961.2542   -8880.4526     1566.424    18274.159    5.5155517 
    3300    745.88715   -8964.4853   -8881.2804    1184.6085    18255.139     5.568385 
    3310    757.66614   -8966.6817   -8882.1629    444.96468    18237.935    5.6193919 
    3320    715.76425   -8962.8834   -8883.0389   -141.50066    18221.695    5.6703856 
    3330     731.3527   -8965.4574   -8883.8739   -1727.9279    18205.536    5.7242052 
    3340    760.72658   -8969.6223   -8884.7622   -3099.9419    18187.646    5.7805866 
    3350    754.35819    -8969.874   -8885.7242   -3101.0679    18166.558    5.8425548 
    3360    761.89283   -8971.7396   -8886.7493    -2488.381    18142.281    5.9109164 
    3370    760.45245    -8972.648   -8887.8184   -1098.7019    18115.698    5.9829591 
    3380    736.35784   -8970.9968    -8888.855    795.72445    18088.557    6.0576325 
    3390    736.66868   -8971.9893   -8889.8128    2056.2317    18063.023    6.1330675 
    3400    758.25142   -8975.3594   -8890.7753    1936.0159    18040.482    6.2079092 
    3410    755.79224   -8976.1032   -8891.7935    1788.0412    18020.869    6.2823486 
    3420    757.23313   -8977.3236   -8892.8531    1460.6225    18003.892     6.351795 
    3430    776.29961   -8980.5949   -8893.9975    88.854695    17988.988    6.4127619 
    3440    779.41806   -8982.2014   -8895.2562   -1597.8388    17974.517     6.468295 
    3450    767.37434   -8982.1838   -8896.5821   -2339.5835    17958.626    6.5233792 
    3460    768.69853   -8983.6677   -8897.9182   -2870.5244     17940.38    6.5791614 
    3470    785.00417    -8986.853   -8899.2846   -3485.9599    17919.212    6.6328757 
    3480    786.11988   -8988.3892   -8900.6963    -3781.724    17894.534    6.6842416 
    3490    781.41472   -8989.2809   -8902.1129   -3296.0908    17866.206    6.7361122 
    3500    781.18858    -8990.645   -8903.5022    -2372.873    17834.909    6.7911065 
    3510    792.96266   -8993.3323   -8904.8761   -1845.9674    17801.785    6.8500449 
    3520    814.31023   -8997.1765    -8906.339   -2504.0989     17767.44    6.9131579 
    3530    808.17999   -8998.0476   -8907.8939   -2106.1586    17731.494    6.9801749 
    3540    812.00447   -9000.0644   -8909.4841   -1680.2552     17694.35    7.0484423 
    3550     834.5359   -9004.2376   -8911.1439   -1434.0704    17656.592    7.1180152 
    3560    860.94741   -9008.9832   -8912.9432   -1746.5682    17618.499    7.1922099 
    3570    866.62025   -9011.5742   -8914.9014   -1676.4037    17579.874    7.2744019 
    3580    846.35764   -9011.3085   -8916.8961   -1049.6958    17540.869    7.3630565 
    3590    827.05386   -9011.0903   -8918.8312    134.58165    17502.292    7.4521894 
    3600    824.90561   -9012.7077   -8920.6883    774.39778    17465.339    7.5342407 
    3610    852.26038   -9017.6811   -8922.6102   -297.87722    17430.527    7.6026512 
    3620    845.67499   -9018.9711   -8924.6348   -1340.4709    17396.829    7.6563791 
    3630    841.39389   -9020.5625   -8926.7037   -2272.2963    17363.019    7.6989446 
    3640    820.88202   -9020.3303   -8928.7597   -2699.3437    17328.162    7.7388432 
    3650    811.51641   -9021.2622   -8930.7364   -2257.7603     17291.92    7.7829567 
    3660    846.56694   -9027.1571   -8932.7213   -1173.4876    17254.835    7.8324554 
    3670    843.40481   -9028.8621    -8934.779    1432.6274    17218.275    7.8837609 
    3680    835.40486   -9029.9563   -8936.7657    3425.7976    17184.849    7.9315721 
    3690    881.71834   -9037.1857   -8938.8287    2834.5875    17156.334     7.976493 
    3700    890.12025   -9040.3955   -8941.1012    3022.2808    17132.253    8.0257436 
    3710    877.77701   -9041.3984   -8943.4811    3262.2159    17112.455    8.0812669 
    3720    863.56364    -9042.209   -8945.8772    3405.1358    17097.026    8.1418603 
    3730    856.76558   -9043.8037   -8948.2302    3772.1056    17085.941    8.2084203 
    3740    848.47224    -9045.229   -8950.5807    4014.7833     17079.33     8.283604 
    3750    817.20939   -9043.9729   -8952.8119    3825.3118    17077.252    8.3654886 
    3760    825.95924   -9047.0836   -8954.9466    2619.1486    17079.215    8.4472239 
    3770    833.07838   -9049.9899   -8957.0587    1159.9744     17083.85    8.5192109 
    3780    827.63773   -9051.4895   -8959.1653    74.961238    17089.588    8.5740193 
    3790    843.50421   -9055.4038   -8961.3097   -1053.5955    17095.179    8.6131662 
    3800      843.898   -9057.6975   -8963.5594   -1368.3135    17099.524    8.6436346 
    3810    799.56761   -9054.9611   -8965.7681   -925.82666    17102.315    8.6729161 
    3820    791.19048    -9056.086   -8967.8275   -1247.4774    17103.954    8.7023214 
    3830    820.82236   -9061.4498   -8969.8858   -1998.7259    17104.151    8.7308446 
    3840     811.4312   -9062.5118   -8971.9954   -1567.2176    17102.352    8.7613228 
    3850    814.64315   -9064.9798   -8974.1051    -2796.287    17098.758    8.7993097 
    3860    823.23939    -9068.117   -8976.2834   -4168.6732    17092.321    8.8480562 
    3870    817.74632   -9069.7294   -8978.5086    -4711.354    17081.735    8.9050051 
    3880      792.244   -9069.0891   -8980.7131   -3950.3726    17066.622    8.9710246 
    3890    798.98171   -9071.9766    -8982.849   -2304.5095    17047.874    9.0475215 
    3900    800.53037   -9074.2577   -8984.9574   -85.386677    17027.383    9.1267697 
    3910    783.20772   -9074.3508   -8986.9828    1457.7015    17007.426    9.2015942 
    3920     781.1539   -9076.0628    -8988.924    1911.6142    16989.587    9.2732084 
    3930    811.00484   -9081.3598    -8990.891    1015.7251    16974.207    9.3446708 
    3940    813.55451   -9083.7234   -8992.9702    1462.4283    16960.564    9.4134153 
    3950    783.24554   -9082.3765   -8995.0043    3151.6603     16949.03    9.4749181 
    3960    781.47117   -9084.1563    -8996.982    4370.7968    16941.155    9.5307506 
    3970    780.78346   -9086.0438   -8998.9462    4670.6149    16938.069     9.588455 
    3980    779.84074    -9087.899   -9000.9066    4273.9979    16939.921    9.6458272 
    3990    790.84636   -9091.0949   -9002.8748    3754.0756    16946.204    9.6937671 
    4000    777.56998   -9091.6095   -9004.8704    2625.6743    16956.195    9.7286367 
    4010    751.74815   -9090.6232   -9006.7646    1698.6251    16968.714    9.7563041 
    4020    768.89857   -9094.3777   -9008.6059    253.59027    16982.605     9.782931 
    4030    771.60639   -9096.5423   -9010.4684   -1208.1482    16996.354    9.8064989 
    4040     722.1143    -9092.818   -9012.2651    -1475.092    17008.571    9.8239878 
    4050    698.92637   -9091.8436   -9013.8774   -2117.0353    17018.842    9.8334344 
    4060    719.81887   -9095.6888   -9015.3919   -3163.0205    17026.547    9.8317184 
    4070    729.22693   -9098.2291   -9016.8827   -3641.5226    17030.737    9.8245019 
    4080    740.53602   -9100.9764   -9018.3685   -3488.3367    17031.008    9.8238608 
    4090    747.67681   -9103.2904   -9019.8859   -2195.0768    17027.673     9.837555 
    4100    754.36518   -9105.5983   -9021.4477    -522.9634    17022.124    9.8644708 
    4110    744.02561   -9106.0499   -9023.0527     899.8803    17016.164    9.9015258 
    4120    720.81553   -9105.0331    -9024.625    1811.1513    17011.275    9.9479133 
    4130    715.68858   -9105.9612    -9026.125     1169.759    17008.293    10.002816 
    4140    736.59126   -9109.7839   -9027.6161   -666.41284    17006.489    10.061551 
    4150    724.73086    -9109.958   -9029.1132   -678.01874    17004.222    10.119694 
    4160    721.91214   -9111.1107   -9030.5803   -930.23134    17001.254    10.174769 
    4170    729.20294   -9113.3933   -9032.0496    -2052.749    16997.303    10.225609 
    4180    741.06081   -9116.2219   -9033.5555   -2281.7991    16991.362    10.272695 
    4190    740.91932   -9117.7619   -9035.1113   -491.76382    16983.331    10.319561 
    4200    717.71007   -9116.6937   -9036.6321    1360.0905    16974.954    10.368687 
    4210    706.41542   -9116.8642   -9038.0625    1780.8479    16968.079    10.418955 
    4220    724.05192    -9120.217   -9039.4479    1626.5137      16963.2    10.469125 
    4230    709.82709   -9120.0078   -9040.8255    1956.7391     16960.17    10.515863 
    4240    690.09042   -9119.0977    -9042.117    2416.8141    16959.286    10.551678 
    4250     697.9499   -9121.2083    -9043.351    2004.2625    16960.906    10.573893 
    4260    701.97091   -9122.8705   -9044.5646    1587.0929    16964.598    10.585833 
    4270    702.58095   -9124.1676   -9045.7937    1326.1113    16969.901    10.590378 
    4280    684.75955   -9123.3741   -9046.9881    1148.2654    16976.528    10.588778 
    4290    682.60744   -9124.2613   -9048.1154    392.25257    16984.178    10.584405 
    4300    693.47485   -9126.5713   -9049.2131   -733.39666    16992.034    10.581551 
    4310    674.52095   -9125.5226   -9050.2788   -696.23838    16999.086    10.581613 
    4320    662.65611   -9125.1731   -9051.2528   -976.65971    17005.249    10.580468 
    4330    682.70397   -9128.3404   -9052.1837   -3201.9911    17010.046    10.576029 
    4340    682.94084   -9129.2895   -9053.1065    -4844.336    17011.386    10.568117 
    4350    665.52184   -9128.2613   -9054.0214    -4006.991    17007.767    10.563137 
    4360    641.62155   -9126.4189   -9054.8451   -2184.1896    17000.063    10.570544 
    4370    669.83675   -9130.3118   -9055.5905   -2195.5424    16989.995    10.593654 
    4380    661.29054   -9130.0767   -9056.3088   -1925.5405    16977.844    10.631123 
    4390    634.89051   -9127.7465   -9056.9235   -732.62248    16964.002    10.678953 
    4400    678.41245   -9133.1508   -9057.4729    396.60024    16949.702    10.730417 
    4410    688.18706   -9134.7791   -9058.0108    2093.5173    16936.217    10.780566 
    4420    657.36144   -9131.8706   -9058.5409    3805.7462    16925.254    10.829761 
    4430    650.89771   -9131.6396   -9059.0309    4043.3326    16918.424    10.881601 
    4440    668.79111   -9134.1017   -9059.4971    2735.7371    16915.875    10.934361 
    4450    681.73576   -9136.0151   -9059.9665    1252.3032    16916.255    10.983754 
    4460    683.98869   -9136.7539   -9060.4539    889.28745    16918.065    11.028435 
    4470    680.66102   -9136.8826   -9060.9538    1795.6965    16920.909    11.069882 
    4480    688.01722   -9138.2289   -9061.4795    2855.9707    16925.619    11.107778 
    4490    670.40827    -9136.781    -9061.996    3282.3857    16933.227    11.137496 
    4500    675.22602   -9137.8221   -9062.4996    2251.2012    16944.003     11.15593 
    4510    660.92115   -9136.6929   -9062.9662    558.30733    16956.893    11.167971 
    4520    644.78079   -9135.3149   -9063.3886   -1255.4875    16970.105    11.180017 
    4530    640.37842   -9135.1767   -9063.7416   -3070.0048    16981.737    11.196614 
    4540    658.36075   -9137.4731    -9064.032   -5582.1468    16989.786    11.222499 
    4550    676.49059    -9139.784   -9064.3204   -6773.0657    16991.858    11.261338 
    4560    664.12565   -9138.7045   -9064.6203   -6390.1341    16986.837     11.31311 
    4570     676.9481   -9140.4381   -9064.9235   -5327.0388    16975.209    11.372695 
    4580    693.60592   -9142.6151   -9065.2423   -3147.8682      16958.3    11.437742 
    4590    685.95431   -9142.0875   -9065.5682   -951.19648     16938.43     11.50614 
    4600    696.24115   -9143.5709   -9065.9042    242.19084    16917.882    11.575091 
    4610    711.51914   -9145.6511     -9066.28    1095.9072    16897.998    11.641956 
    4620    712.50423   -9146.2088   -9066.7279    2232.5555    16879.744    11.704101 
    4630    698.01673   -9145.1163   -9067.2514    3132.4972    16864.179    11.756119 
    4640    673.23671   -9142.9031   -9067.8025    4795.4984    16852.339    11.791969 
    4650     687.1901   -9145.0427   -9068.3856      4832.52    16845.583    11.808443 
    4660    684.36129   -9145.3482   -9069.0067    4389.8052    16844.007    11.809417 
    4670    664.28548   -9143.7398   -9069.6378    3687.2386     16847.04    11.797625 
    4680    652.04141   -9142.9581   -9070.2219    2279.5274    16853.829    11.773669 
    4690    664.95387   -9144.9256    -9070.749    787.88283    16862.857    11.738303 
    4700    672.66025   -9146.2688   -9071.2326    68.426097    16872.616    11.694697 
    4710    669.52855   -9146.3713   -9071.6844   -431.59031    16882.283    11.651246 
    4720    683.29513    -9148.351   -9072.1284   -529.55296    16891.364    11.613568 
    4730    672.35088   -9147.5786   -9072.5768   -613.53858    16899.703    11.585686 
    4740    648.01578   -9145.2765   -9072.9894   -1163.8716    16907.213    11.569494 
    4750    666.79016   -9147.7488   -9073.3673   -2340.7005     16913.31    11.564444 
    4760     657.1829   -9147.0192   -9073.7094   -2877.9892    16916.874    11.569634 
    4770    657.03606   -9147.3129   -9074.0195   -3054.7811    16917.363    11.584667 
    4780    666.67759   -9148.6816   -9074.3127   -2875.0069    16914.667    11.611563 
    4790    658.94669   -9148.0904   -9074.5839   -2171.5407    16909.033    11.651356 
    4800    684.65404   -9151.2173   -9074.8431    -1464.595    16901.209    11.698237 
    4810    693.51218   -9152.4847   -9075.1224   -315.59753    16892.041     11.74676 
    4820     666.5547   -9149.7703   -9075.4152    1575.5823    16882.796    11.796382 
    4830    666.94613   -9150.0933   -9075.6945    3078.1048    16875.333    11.842695 
    4840     670.0465   -9150.7053   -9075.9606    3754.1073    16871.162    11.878231 
    4850    669.08169    -9150.864   -9076.2269    3428.9018     16870.89     11.89836 
    4860    670.31061   -9151.2582    -9076.484    3157.7283    16874.234    11.904376 
    4870    673.01683   -9151.8229   -9076.7468    2438.3912    16880.806    11.898411 
    4880     675.8843   -9152.4271   -9077.0312     869.4198    16889.751    11.882148 
    4890    652.96879   -9150.1358   -9077.2961   -146.04213    16899.522    11.857181 
    4900    665.66536   -9151.7613   -9077.5053   -650.88624     16909.02    11.825925 
    4910    672.97301   -9152.7294   -9077.6582   -1712.1007    16917.602    11.793276 
    4920    663.82526   -9151.8419   -9077.7911   -2283.5288    16924.268    11.760989 
    4930    649.56565   -9150.3532   -9077.8932   -2340.8779    16928.431    11.730183 
    4940    653.08045   -9150.7917   -9077.9395   -2568.2959     16930.02    11.705914 
    4950    681.89334   -9154.0292   -9077.9629   -2758.1455     16928.85    11.692078 
    4960    677.37884    -9153.558   -9077.9954   -1383.3017    16924.975    11.687663 
    4970    678.50042   -9153.7393   -9078.0516    -107.2293    16919.679    11.683185 
    4980    676.45417   -9153.5799   -9078.1204    1236.8484    16914.385    11.670604 
    4990    664.12161    -9152.273   -9078.1892    1950.6653    16910.431      11.6518 
    5000    662.81796   -9152.1803   -9078.2419     1554.267    16908.466    11.627114 
Loop time of 2023.86 on 16 procs for 3000 steps with 864 atoms

Performance: 0.128 ns/day, 187.395 hours/ns, 1.482 timesteps/s
96.2% CPU use with 16 MPI tasks x 1 OpenMP threads

MPI task timing breakdown:
Section |  min time  |  avg time  |  max time  |%varavg| %total
---------------------------------------------------------------
Pair    | 506.48     | 1209       | 1950.7     |1518.6 | 59.74
Bond    | 0.00021839 | 0.00055178 | 0.0015979  |   0.0 |  0.00
Neigh   | 0.022452   | 0.054835   | 0.098876   |  11.1 |  0.00
Comm    | 12.394     | 619.66     | 1331.8     |1746.1 | 30.62
Output  | 0.19237    | 0.20779    | 0.43824    |  13.1 |  0.01
Modify  | 60.485     | 194.93     | 632.06     |1340.2 |  9.63
Other   |            | 0.01315    |            |       |  0.00

Nlocal:        54.0000 ave          85 max          27 min
Histogram: 5 1 0 1 1 2 0 2 1 3
Nghost:        557.125 ave         775 max         367 min
Histogram: 4 0 1 1 2 2 2 2 0 2
Neighs:         0.00000 ave           0 max           0 min
Histogram: 16 0 0 0 0 0 0 0 0 0
FullNghs:      3095.00 ave        6089 max         714 min
Histogram: 5 1 0 2 0 2 0 2 2 2

Total # of neighbors = 49520
Ave neighs/atom = 57.314815
Ave special neighs/atom = 0.0000000
Neighbor list builds = 300
Dangerous builds = 300
unfix   2

fix     3 all npt temp 675.0 675.0 $(100.0*dt) aniso 1.01325 1.01325 $(1000.0*dt)
fix     3 all npt temp 675.0 675.0 0.10000000000000000555 aniso 1.01325 1.01325 $(1000.0*dt)
fix     3 all npt temp 675.0 675.0 0.10000000000000000555 aniso 1.01325 1.01325 1
run     20000
Per MPI rank memory allocation (min/avg/max) = 8.894 | 8.912 | 8.921 Mbytes
Step Temp PotEng TotEng Press Volume c_msd[4] 
    5000    662.81796   -9152.1803   -9078.2419     1554.267    16908.466    11.627114 
    5010    665.52449   -9152.4713   -9078.2311    933.16931    16909.181    11.625684 
    5020    663.02974   -9152.1654   -9078.2035    1263.0882    16911.013    11.620923 
    5030    658.64775   -9151.6185   -9078.1453    1498.2485    16914.205    11.618853 
    5040     659.8531   -9151.6623   -9078.0547    801.28202      16918.9    11.617545 
    5050    625.09925   -9147.6354   -9077.9046    1188.2088    16924.576    11.615622 
    5060     640.8456   -9149.1649   -9077.6776    1860.4435    16931.579     11.61244 
    5070    683.19579   -9153.5709   -9077.3594    811.50703    16940.421    11.607628 
    5080    686.41211    -9153.573   -9077.0027   -1143.4463    16950.088     11.60421 
    5090    684.95572   -9153.0554   -9076.6475    -2778.301    16958.585    11.609353 
    5100    710.56962   -9155.5759   -9076.3108   -3500.9023    16964.209    11.629407 
    5110    694.17668   -9153.4633   -9076.0269   -3287.2404    16966.204    11.666862 
    5120    683.38997   -9152.0312    -9075.798   -3309.5667    16964.652    11.720396 
    5130    695.89109   -9153.2111   -9075.5834   -3212.7891    16959.564    11.787268 
    5140    699.68572   -9153.4339   -9075.3829   -1379.7302    16951.198    11.864283 
    5150    692.45593   -9152.4261   -9075.1816    725.02247     16941.39    11.944507 
    5160    703.78118   -9153.4771   -9074.9693    1403.8105    16932.209    12.014913 
    5170    706.16128   -9153.5499   -9074.7765    2254.8317    16924.559    12.071833 
    5180    691.13766   -9151.7425   -9074.6451     3601.028    16919.414    12.111132 
    5190    708.92152   -9153.6732   -9074.5919    2967.7476    16917.903    12.128382 
    5200    730.96993   -9156.1808     -9074.64    1367.3804    16919.486    12.126785 
    5210    727.62376   -9156.0224   -9074.8549    85.059207    16922.569    12.107455 
    5220    703.55102   -9153.7306   -9075.2485   -585.91231    16925.825    12.074925 
    5230    681.33141   -9151.7943   -9075.7907   -949.45857    16928.493    12.034659 
    5240    674.40729   -9151.6768   -9076.4456   -1143.4899    16930.168    11.990473 
    5250    674.30714   -9152.3867   -9077.1667   -1820.0687    16930.586    11.944744 
    5260    688.27441   -9154.7155   -9077.9375   -3445.3669    16928.934    11.902311 
    5270    675.72806   -9154.1053   -9078.7269   -3611.1316    16923.762    11.867152 
    5280    655.36143   -9152.5655    -9079.459   -2485.3719    16914.863    11.836528 
    5290    651.61525   -9152.7727   -9080.0841   -1237.3139    16903.323    11.807128 
    5300    655.61018   -9153.7167   -9080.5824   -580.62572    16890.396      11.7841 
    5310    665.39075   -9155.2094   -9080.9841   -711.86638    16876.757    11.773261 
    5320    667.96865   -9155.8321   -9081.3192   -319.54748    16862.421    11.772017 
    5330    653.57604   -9154.4874     -9081.58    524.00839    16847.774    11.777014 
    5340    659.91562   -9155.3881   -9081.7735    1091.8831    16833.639    11.789329 
    5350    674.52565   -9157.1635   -9081.9191    1998.8257    16820.667    11.812143 
    5360    692.15341   -9159.2649   -9082.0542    4390.5298    16809.942    11.844134 
    5370    696.10876   -9159.8662   -9082.2142    6776.5319    16803.829    11.878761 
    5380    699.21044   -9160.4523   -9082.4543    8351.3148    16804.764    11.905955 
    5390    660.87217   -9156.4689   -9082.7476    8784.2642    16814.418      11.9234 
    5400    666.46606    -9157.392   -9083.0467    6551.5772    16833.116    11.932717 
    5410    684.78454   -9159.7036   -9083.3149    3079.0999    16858.693    11.934564 
    5420    671.70093   -9158.4748   -9083.5456     573.2905    16887.712    11.926532 
    5430    649.35347   -9156.1549   -9083.7185   -1347.0523    16917.455     11.90977 
    5440    649.92447   -9156.3114   -9083.8113   -3430.9782    16945.787    11.889852 
    5450    648.55649   -9156.1659   -9083.8185   -5440.7909    16970.515    11.872154 
    5460    641.52023    -9155.312   -9083.7495   -7274.8806    16989.454    11.859155 
    5470    663.93351   -9157.7112   -9083.6484   -8135.0307    17000.659     11.85201 
    5480    651.97748    -9156.276   -9083.5469   -6657.1332    17003.309    11.857847 
    5490    653.94748   -9156.3852   -9083.4364   -4650.2126    16998.836    11.882025 
    5500    680.60454   -9159.2118   -9083.2893   -3742.2284    16989.275    11.923995 
    5510    672.32161   -9158.1176   -9083.1191   -2523.4874    16975.792    11.977326 
    5520    644.51146   -9154.8144   -9082.9182   -1219.5354    16959.645    12.033085 
    5530    629.84722   -9152.8906   -9082.6302   -23.866919    16942.204    12.082499 
    5540    650.77701   -9154.8241    -9082.229    903.84732    16924.756    12.122127 
    5550      678.007   -9157.3786   -9081.7459    1702.3652    16908.326    12.149165 
    5560    674.92876   -9156.5166   -9081.2273    2721.7754    16893.789    12.154543 
    5570    698.10435   -9158.5871   -9080.7125    3812.7133    16882.194    12.131862 
    5580    696.86354   -9157.9503   -9080.2141    4848.8239    16874.691    12.089759 
    5590    683.59392   -9156.0326   -9079.7767    4844.3956    16872.219    12.038495 
    5600    684.78446   -9155.7692   -9079.3805    3675.2689    16874.749    11.981768 
    5610    695.43441   -9156.5942   -9079.0174    1996.5047    16881.121    11.920441 
    5620    700.07098   -9156.7917   -9078.6977    1443.5315    16889.729    11.857331 
    5630    695.27202   -9155.9908   -9078.4322    769.09532    16899.824    11.795373 
    5640    685.36222   -9154.6622    -9078.209    55.872921    16910.695    11.733096 
    5650    683.43032   -9154.2554   -9078.0177   -328.67736    16921.625    11.673189 
    5660    706.46255   -9156.6848   -9077.8778   -1110.2138    16932.142    11.623391 
    5670     689.9694   -9154.7858   -9077.8186   -937.36685    16941.587    11.590201 
    5680    693.73695   -9155.2244    -9077.837   -1453.7335    16949.949    11.576565 
    5690    716.82881   -9157.8755   -9077.9122   -2545.7655    16956.683    11.582027 
    5700    690.14817   -9155.0439   -9078.0568   -2152.8588    16960.821    11.602273 
    5710    652.17231   -9150.9645   -9078.2136    -944.1926     16962.74     11.62915 
    5720    685.93344   -9154.8526   -9078.3357   -1061.9219    16963.495    11.658971 
    5730      716.767   -9158.4218   -9078.4654   -907.36407    16963.143    11.692423 
    5740    686.11406   -9155.1756   -9078.6386    573.72827    16962.021     11.72598 
    5750    688.32196   -9155.6158   -9078.8325    172.12255    16961.347    11.752266 
    5760    695.21835   -9156.5876   -9079.0349   -850.04667    16960.813    11.768389 
    5770    682.75976     -9155.42   -9079.2571   -766.91081    16959.505    11.780542 
    5780    681.18408   -9155.4774   -9079.4903   -973.91719    16957.369     11.79223 
    5790    675.27419   -9155.0496   -9079.7218   -859.71119    16954.265    11.799133 
    5800    668.10405   -9154.4544   -9079.9264   -393.19101    16950.285    11.797202 
    5810    672.72887   -9155.1476   -9080.1037    458.80411    16945.935    11.781717 
    5820    668.95383   -9154.8735   -9080.2507    1068.7924     16942.07    11.751085 
    5830    682.08249   -9156.4689   -9080.3816    507.42707    16939.249    11.703644 
    5840    676.23925    -9155.926   -9080.4905   -73.650016    16936.985    11.644722 
    5850    658.44357   -9154.0183   -9080.5679   -49.532697    16934.726    11.583995 
    5860    691.25778   -9157.7231   -9080.6123   -845.39202     16932.33    11.525575 
    5870    713.29693   -9160.2349   -9080.6655   -974.20602    16929.113    11.476992 
    5880    678.69326   -9156.4492   -9080.7399   0.17000052    16925.001    11.443118 
    5890    692.39409    -9158.057   -9080.8194    666.57131    16920.897    11.426211 
    5900    694.05266   -9158.3409   -9080.9183    1970.3436    16917.614    11.423742 
    5910    676.13895   -9156.4811   -9081.0567    3125.4219    16916.449    11.426821 
    5920    679.07294   -9156.9716     -9081.22    2481.0406    16918.407    11.433067 
    5930    677.12578   -9156.9171   -9081.3827    1774.9597    16922.987    11.448172 
    5940    673.27007   -9156.6432   -9081.5389    546.92341    16929.387    11.473221 
    5950    662.49785   -9155.5714   -9081.6687   -992.53144    16936.307    11.507328 
    5960    666.30415   -9156.0932   -9081.7659   -2076.2113    16942.163    11.547739 
    5970    681.53424   -9157.8806   -9081.8544   -2169.2001    16945.872    11.599966 
    5980    667.72437   -9156.4133   -9081.9276    -1416.142    16947.341    11.664823 
    5990    691.13907   -9159.0811   -9081.9835   -841.04783    16947.288    11.734604 
    6000    690.99985   -9159.1322   -9082.0502    8.7856765    16946.362    11.797325 
    6010    658.81358   -9155.6281   -9082.1364     1128.076    16945.474    11.844441 
    6020    667.25248   -9156.6641   -9082.2311    1275.7389    16945.695    11.878182 
    6030    658.83787   -9155.7987   -9082.3044    1790.3348    16947.323    11.908436 
    6040    667.83992   -9156.8625   -9082.3639    2610.2915     16950.88    11.939978 
    6050    681.17017    -9158.407   -9082.4215    2837.8914    16957.154    11.970505 
    6060    680.12557   -9158.3569   -9082.4878    1741.3072    16966.271    11.993904 
    6070    692.30268   -9159.8073   -9082.5799    -193.5097    16977.096     12.00543 
    6080    687.46833   -9159.3933   -9082.7051     -1716.81    16987.677    12.006844 
    6090    674.00422   -9158.0553   -9082.8691   -2344.0802    16996.417     11.99783 
    6100    673.88413   -9158.2263   -9083.0535   -2545.2077    17002.585    11.977367 
    6110    679.94112   -9159.0981   -9083.2496   -2207.1241    17005.996    11.950489 
    6120     690.6689   -9160.5259   -9083.4808   -1037.4688    17007.102    11.926052 
    6130    673.33416   -9158.8715   -9083.7601   -5.5401285    17007.076    11.909403 
    6140     645.4114   -9156.0404   -9084.0438    68.652176    17006.957    11.896707 
    6150    656.68404    -9157.549   -9084.2949   -1631.3161    17006.729    11.882895 
    6160     661.8781   -9158.3691   -9084.5356   -2615.4298    17004.835    11.873054 
    6170    649.06632    -9157.155   -9084.7507   -1953.6705    17000.349    11.872324 
    6180    695.61098   -9162.5729   -9084.9764   -2703.4254    16993.663    11.880639 
    6190    697.90968   -9163.1345   -9085.2816   -3060.8091    16984.199    11.897341 
    6200    664.47799   -9159.7829   -9085.6594   -1818.9361    16971.732    11.919229 
    6210    664.86885    -9160.225   -9086.0579   -637.48062    16957.409    11.941886 
    6220    659.24643   -9159.9822   -9086.4423    635.62378    16942.569    11.964883 
    6230    652.71006   -9159.6137   -9086.8029    1165.4483    16928.489    11.989167 
    6240    666.54569   -9161.5148   -9087.1607    569.19305    16915.673    12.016418 
    6250    660.96222   -9161.2538   -9087.5224    842.43761    16903.706    12.047352 
    6260    661.28128   -9161.6536   -9087.8866    913.75453    16892.702    12.078598 
    6270    661.30026   -9162.0105   -9088.2415    119.72624     16882.68    12.104906 
    6280    661.86132   -9162.4222   -9088.5906    278.16931    16873.028    12.125958 
    6290    664.96298   -9163.1171   -9088.9394    537.02675    16863.754    12.143898 
    6300    645.80341   -9161.3101   -9089.2698    1683.1729    16855.262    12.164071 
    6310    652.33785   -9162.3271   -9089.5578    2390.2209    16848.594      12.1905 
    6320    683.80334   -9166.1133    -9089.834    1857.1204     16844.39    12.221469 
    6330    675.03036   -9165.4354   -9090.1348    1720.0886    16842.212    12.253518 
    6340    656.54885   -9163.6934   -9090.4544    2608.8954    16841.987    12.286052 
    6350    654.87027   -9163.8055   -9090.7537    2756.8734    16844.452    12.320998 
    6360    659.64487   -9164.6148   -9091.0304    2053.9683    16849.715    12.355944 
    6370     655.8857   -9164.4377   -9091.2727    1477.3616    16857.122    12.382328 
    6380    670.53179   -9166.2955   -9091.4967    93.726159    16865.921    12.401219 
    6390    663.76275   -9165.7679   -9091.7241   -1042.5374    16874.768    12.421328 
    6400    638.21551   -9163.1195   -9091.9256   -2074.5782    16882.457    12.445657 
    6410    649.08222   -9164.4911    -9092.085   -3635.5151    16887.817    12.473345 
    6420    657.01434   -9165.4988   -9092.2079   -3754.3919    16889.451    12.507815 
    6430    664.85228   -9166.4868   -9092.3215   -2795.1137    16887.201    12.545353 
    6440    660.46948   -9166.1112   -9092.4349   -597.96682    16882.165    12.575838 
    6450    649.06282   -9164.9393   -9092.5354    1259.7284    16876.521    12.592683 
    6460    641.48878   -9164.1618   -9092.6028    2633.4012    16872.246    12.596055 
    6470    625.90126   -9162.4258   -9092.6056    3359.1304    16870.758    12.585674 
    6480    615.05846   -9161.1166   -9092.5059    2882.6207    16872.745    12.563693 
    6490    649.67128   -9164.7456   -9092.2738    1151.4475    16877.636    12.537633 
    6500    665.63928    -9166.156   -9091.9029   -494.19023     16883.73    12.516108 
    6510    645.44324   -9163.4344   -9091.4343   -1078.5657    16889.365    12.502646 
    6520    649.92194   -9163.3561   -9090.8563   -1467.1257    16893.821    12.496461 
    6530    661.88206   -9164.0021   -9090.1682   -2030.6076    16896.667    12.493884 
    6540    682.06027   -9165.5181   -9089.4333   -2293.0289    16897.336    12.488078 
    6550    666.43395   -9163.0643   -9088.7226   -1153.0465    16895.724    12.471588 
    6560    651.07132   -9160.7012   -9088.0732    84.737659    16892.907    12.443071 
    6570    648.62628   -9159.8047   -9087.4495    345.45616    16890.113    12.411098 
    6580    664.48719   -9160.9787   -9086.8541    52.495919    16887.673    12.382282 
    6590    670.80558   -9161.1326   -9086.3032   -61.477566    16885.324    12.355408 
    6600    679.07574   -9161.5721   -9085.8202    339.01741    16882.984    12.327085 
    6610    701.95438   -9163.7059   -9085.4019    798.94658    16881.055    12.297426 
    6620    689.23944   -9161.9536   -9085.0679    1235.0405    16879.967    12.269584 
    6630    657.19374   -9158.1108   -9084.7998    1867.1442    16880.219    12.244488 
    6640    668.30685   -9159.0949   -9084.5443    797.12655    16882.258    12.219934 
    6650    673.39518   -9159.4016   -9084.2833   -85.892824    16885.146    12.197828 
    6660     671.2621    -9158.918   -9084.0377   -563.24401    16887.946    12.182989 
    6670    675.01612    -9159.101   -9083.8019   -838.67525    16890.161    12.172389 
    6680    668.66071   -9158.1579   -9083.5678   -292.05206    16891.577    12.163184 
    6690    678.62863   -9159.0304   -9083.3283    528.00656    16892.699    12.154126 
    6700    697.03824   -9160.8527   -9083.0971    1371.6264    16894.379     12.14621 
    6710    704.95363   -9161.5503   -9082.9117    1724.1121    16897.435    12.142837 
    6720    705.96782   -9161.5605   -9082.8087    1912.2766    16902.271    12.148622 
    6730    689.55953   -9159.6987   -9082.7773    2135.4783    16909.103    12.163283 
    6740    682.82776   -9158.9636   -9082.7931    2452.4551    16918.137    12.179339 
    6750    691.57095     -9159.98   -9082.8342    2022.9326     16929.61    12.191455 
    6760    698.74805   -9160.8533   -9082.9069    562.93862    16943.033    12.198267 
    6770    686.68913    -9159.619   -9083.0178   -475.32031    16956.977    12.200858 
    6780    686.58782   -9159.7531   -9083.1632   -1711.2715    16970.269    12.203212 
    6790    703.79393   -9161.8635   -9083.3542    -3051.671    16981.594    12.210996 
    6800    682.89398   -9159.7738   -9083.5959   -2469.0385    16989.738    12.226258 
    6810      698.944     -9161.85   -9083.8817    -1546.244    16995.202    12.244707 
    6820    722.03688      -9164.8   -9084.2557   -1237.3662    16998.873    12.266011 
    6830    678.35071   -9160.3711      -9084.7    167.62721    17001.302    12.290997 
    6840    699.32157   -9163.2112   -9085.2008    400.19942    17003.759    12.310429 
    6850    699.86951   -9163.8455    -9085.774    390.53331    17006.623    12.316889 
    6860     689.1483    -9163.283   -9086.4074    735.97753      17009.9    12.307795 
    6870    695.23582   -9164.6274   -9087.0728     1092.117    17013.926    12.284064 
    6880     683.1668   -9163.9442   -9087.7359    1801.1999    17019.129    12.252119 
    6890    657.52598   -9161.6658   -9088.3177    2202.6817    17026.175    12.222347 
    6900    676.25357   -9164.2247   -9088.7876    1568.8748    17035.395    12.196315 
    6910    697.79758    -9167.046   -9089.2056    626.40572     17046.16    12.168985 
    6920     661.8748   -9163.4066   -9089.5735    637.36939    17057.591    12.136184 
    6930    660.86511    -9163.575   -9089.8545   -438.63853    17069.428    12.096128 
    6940    680.19018    -9165.941   -9090.0648   -1372.3687    17080.656    12.052502 
    6950    653.96917   -9163.1748   -9090.2235   -677.26244    17090.437    12.009923 
    6960    641.91744   -9161.9221   -9090.3152    490.47595    17099.416    11.971407 
    6970    670.81228   -9165.1811   -9090.3509    767.29519     17108.72     11.93947 
    6980    684.11666   -9166.6945   -9090.3803    487.02274    17118.675    11.918936 
    6990    657.22552   -9163.7292   -9090.4147    306.44026    17129.053    11.910959 
    7000    655.13461   -9163.5071   -9090.4259   -1236.1004     17139.48     11.90826 
    7010    656.65454   -9163.6334   -9090.3826   -2750.1212    17148.425    11.906467 
    7020     661.0461   -9164.0496   -9090.3089    -2636.829    17154.434    11.908368 
    7030    667.06254   -9164.6341   -9090.2222   -2320.4019    17157.493    11.915366 
    7040    653.66746   -9163.0434   -9090.1258   -1566.3062    17158.028    11.923926 
    7050    624.89953    -9159.683   -9089.9745    343.16222    17157.005    11.932268 
    7060    634.04446   -9160.4538   -9089.7252     1535.444    17156.313    11.940567 
    7070    683.32071   -9165.6139   -9089.3885    1051.4385     17157.15    11.950142 
    7080    691.38844   -9166.1621   -9089.0366    1144.4822    17159.187    11.961479 
    7090    659.71576   -9162.3058   -9088.7135    2099.1515    17162.542    11.973537 
    7100    675.54983   -9163.7456    -9088.387    1119.5424    17167.936    11.982771 
    7110    692.74306   -9165.3349   -9088.0583    535.41723    17174.531    11.990941 
    7120    641.78798   -9159.3436   -9087.7512     1450.253     17181.77    12.003591 
    7130    632.16289   -9157.9351   -9087.4164    641.00198    17190.324    12.022397 
    7140    676.22195   -9162.4376    -9087.004   -1461.6471    17199.313    12.045342 
    7150    664.38218   -9160.6817   -9086.5689   -1810.6337    17206.773    12.067809 
    7160    681.20847   -9162.1546   -9086.1648   -1957.7767    17212.158    12.087121 
    7170    702.36071   -9164.1487   -9085.7993   -1753.8599    17215.338    12.108074 
    7180    674.19432   -9160.7094    -9085.502   -48.676973    17216.726    12.131327 
    7190    679.22584   -9161.0136   -9085.2449    1418.9999    17218.028    12.149227 
    7200    719.18165   -9165.2404   -9085.0146    1170.0879    17220.688    12.155565 
    7210    703.90536   -9163.3958   -9084.8741    133.07292    17224.525     12.14977 
    7220    657.44402   -9158.1401   -9084.8012   -324.93238    17228.543    12.134648 
    7230    688.89278   -9161.5829   -9084.7359   -1424.1141    17232.037    12.114565 
    7240    701.54412   -9162.9579   -9084.6996   -1904.7657    17233.969    12.097291 
    7250    661.52786   -9158.4942   -9084.6998   -2159.8765    17233.797     12.08738 
    7260    683.22526   -9160.9202   -9084.7054   -3329.7511    17231.146    12.083861 
    7270    704.69061   -9163.3538   -9084.7445    -3408.025    17225.006    12.086415 
    7280     691.5233   -9161.9835   -9084.8431   -2042.2258    17215.371    12.094843 
    7290    692.07113   -9162.1663   -9084.9648    275.43818    17203.751    12.104906 
    7300    696.36561   -9162.7698   -9085.0892    2916.3879    17192.665    12.112434 
    7310     673.5538   -9160.3473   -9085.2114    5344.1579    17184.941    12.116178 
    7320    660.65143   -9159.0193   -9085.3227    6505.0092    17183.057    12.112599 
    7330    666.53987   -9159.7709   -9085.4174    5945.3128    17188.144    12.102772 
    7340    691.87861   -9162.7047   -9085.5246    4468.1336    17199.537    12.088822 
    7350    685.18372   -9162.0819   -9085.6486    3482.1105    17215.709    12.072656 
    7360     692.4869   -9163.0234   -9085.7754    1402.0453    17235.341     12.05427 
    7370    708.83947   -9164.9819   -9085.9098   -1417.0762    17256.138    12.039038 
    7380    673.82265   -9161.2188   -9086.0529   -3055.0753    17275.175    12.032941 
    7390    670.17539   -9160.9436   -9086.1845   -3810.6136    17290.613    12.037991 
    7400    703.96814   -9164.8526   -9086.3239   -4074.4968    17301.633    12.056471 
    7410    690.23493   -9163.5082   -9086.5114   -3089.1392    17308.114    12.088555 
    7420    650.48263   -9159.2734    -9086.711   -1934.1066    17311.096    12.130547 
    7430     660.6285   -9160.5547   -9086.8606   -2190.1902    17311.744     12.17456 
    7440    679.53581    -9162.769   -9086.9657   -1954.9204    17310.009    12.213845 
    7450    679.98981   -9162.8985   -9087.0446   -683.45407    17306.258    12.249552 
    7460    695.62018   -9164.7176   -9087.1202   -616.59934    17301.681    12.287744 
    7470    680.82693   -9163.1519   -9087.2047   -525.24872    17296.554    12.333365 
    7480    688.05179   -9164.0587   -9087.3055    -284.1111    17290.954    12.382531 
    7490     700.7106   -9165.5977   -9087.4324    17.657856    17285.126    12.425054 
    7500    686.11986   -9164.1351   -9087.5974     764.6076    17279.492    12.455256 
    7510    661.76682   -9161.5964   -9087.7753    812.07761     17274.72    12.472612 
    7520    644.79187   -9159.8422   -9087.9147    454.71788    17270.927    12.480489 
    7530    650.01484    -9160.513   -9088.0029   -486.10657    17267.656    12.482201 
    7540    649.46488   -9160.4818    -9088.033   -786.46979    17263.982    12.476687 
    7550     678.9975   -9163.7673   -9088.0241   -1247.0529    17259.471    12.460904 
    7560    692.93094   -9165.3196   -9088.0222   -890.18179    17253.759    12.436665 
    7570    658.09254   -9161.4373   -9088.0261    629.65798    17247.274     12.40685 
    7580    659.70885   -9161.5765    -9087.985     1455.229    17241.547    12.370553 
    7590    692.47691   -9165.1469   -9087.9001    825.74857    17237.371    12.332688 
    7600    691.35581    -9164.942   -9087.8203    2.5233946    17234.179    12.303143 
    7610    692.92043    -9165.094   -9087.7977    -880.6161    17231.034    12.285125 
    7620    660.69363   -9161.5138   -9087.8124   -219.43186     17227.17    12.276916 
    7630    660.51307   -9161.4943   -9087.8131   -142.31733    17223.078    12.278029 
    7640    709.39237   -9166.9573   -9087.8235   -692.25764     17218.81    12.286958 
    7650    680.50265   -9163.7999   -9087.8888    1198.5813    17214.114    12.305771 
    7660    661.27763   -9161.7426   -9087.9761     2534.509    17210.752    12.337206 
    7670      710.685   -9167.3532   -9088.0752    1883.5551    17210.028    12.379604 
    7680    689.15067    -9165.097   -9088.2212    1551.4127    17211.405    12.427105 
    7690     653.4765   -9161.2936   -9088.3973    1635.1527    17214.494    12.473337 
    7700    676.84021   -9164.0527   -9088.5501    709.18706    17219.208    12.516627 
    7710    685.98911   -9165.2062    -9088.683    206.70404    17224.684    12.557527 
    7720    691.20885   -9165.9552   -9088.8498    154.05013    17230.313    12.594031 
    7730    661.62547   -9162.8484   -9089.0431    942.00685    17236.121    12.626615 
    7740      646.659   -9161.3568    -9089.221    1164.8485    17242.826    12.654754 
    7750    676.92208   -9164.8984   -9089.3868   -218.53798    17250.502     12.67747 
    7760    672.43335   -9164.5763   -9089.5654   -1516.6157    17257.832    12.694007 
    7770    671.37567   -9164.6816   -9089.7886   -2929.3061    17263.326    12.702968 
    7780     679.5599   -9165.8943   -9090.0884   -3576.6066     17265.58    12.706446 
    7790    676.12716   -9165.9343   -9090.5113   -3158.2426    17263.992    12.705778 
    7800    674.58213   -9166.3244   -9091.0737   -2673.7427    17258.972    12.696842 
    7810    667.05047   -9166.1666   -9091.7562   -2629.4823    17251.067     12.68076 
    7820    666.89163   -9166.9296   -9092.5368   -3027.1802    17240.355    12.664472 
    7830    649.04303   -9165.7588    -9093.357   -2258.3369    17226.653    12.656871 
    7840    634.62949   -9164.8973   -9094.1034   -1171.6447    17210.754    12.660829 
    7850    656.21953   -9167.9561   -9094.7538    -401.6567    17193.819    12.672103 
    7860    652.53806   -9168.0906    -9095.299    1733.7957    17176.925    12.684354 
    7870    641.89799   -9167.3233   -9095.7186    3951.4341    17162.239    12.701462 
    7880    652.49719   -9168.8218   -9096.0348    3859.0452    17151.871    12.728609 
    7890    660.49147   -9169.9694   -9096.2906    2848.8134    17145.794    12.761877 
    7900    660.43246   -9170.1704   -9096.4982     1886.957     17142.91    12.790143 
    7910    655.10126   -9169.7381   -9096.6606    1545.4557    17142.194    12.805531 
    7920    645.41792   -9168.7621   -9096.7648    1532.8936    17143.214    12.805061 
    7930    650.51208   -9169.3816    -9096.816    779.11188      17145.8    12.795844 
    7940     647.0561   -9168.9847   -9096.8046   -195.65261    17149.179    12.787824 
    7950    680.17438   -9172.6321   -9096.7576   -1089.9646    17152.309    12.784973 
    7960    659.29402   -9170.2401   -9096.6949   -724.37607    17154.352     12.78916 
    7970    625.74341   -9166.3978   -9096.5952   -321.37952    17155.594    12.800785 
    7980    657.66382   -9169.7854    -9096.422   -972.06501    17156.347    12.815647 
    7990    661.80274    -9170.012   -9096.1869   -670.34487    17156.158    12.828263 
    8000    651.00619   -9168.5443   -9095.9236   -968.93347    17155.192    12.837169 
    8010    647.67265   -9167.8627   -9095.6138   -1885.4641    17153.123     12.84467 
    8020    660.64954   -9168.9431   -9095.2467   -2028.4907      17149.1    12.848712 
    8030    659.94107    -9168.461   -9094.8436   -969.89267    17143.047    12.846708 
    8040    630.18097   -9164.7016    -9094.404    834.15759    17136.112    12.843323 
    8050    636.66081   -9164.9238   -9093.9034    1555.5398    17130.059    12.842321 
    8060    649.38922   -9165.7793   -9093.3389    1742.7849    17125.736    12.845003 
    8070    656.30878    -9165.976   -9092.7638    1274.4923    17123.299    12.851424 
    8080    667.99638   -9166.7335   -9092.2175    87.780291    17122.222    12.863769 
    8090     676.8748   -9167.2302   -9091.7238   -1601.7228    17121.188    12.881286 
    8100    675.12384   -9166.6146   -9091.3035   -2623.2668    17118.506    12.898136 
    8110    674.01231   -9166.1619   -9090.9748   -3195.3894    17113.035    12.911459 
    8120    672.99083    -9165.789   -9090.7159   -3190.1539    17104.199    12.925048 
    8130    677.98474   -9166.1399   -9090.5097   -2372.4886    17092.063    12.935982 
    8140    668.76397   -9164.9328   -9090.3312   -112.81285     17077.61    12.941122 
    8150    682.98646   -9166.3449   -9090.1568     2216.305    17063.193    12.937716 
    8160    707.92029   -9168.9803   -9090.0107    3278.7843    17051.206    12.929635 
    8170    692.91053   -9167.2325   -9089.9373    3878.1271    17042.846    12.919021 
    8180    664.26554   -9164.0194   -9089.9196    3362.4499    17038.617    12.900402 
    8190    650.88856   -9162.4991   -9089.8915    2995.0377    17038.072    12.874858 
    8200    676.71851   -9165.3099   -9089.8209    2731.6719    17040.772    12.853203 
    8210    712.80257    -9169.276   -9089.7618    2486.5104    17046.412    12.838611 
    8220    686.82377   -9166.3876   -9089.7714    2698.6807    17054.743    12.824223 
    8230    673.48108   -9164.9483   -9089.8205    2234.3311    17065.862    12.808448 
    8240    702.23677   -9168.2178   -9089.8823    498.61186    17079.196    12.799993 
    8250    693.69912   -9167.3593   -9089.9762   -1318.4416    17092.994    12.802721 
    8260    671.04021   -9164.9533   -9090.0977   -2330.8302    17105.344    12.807673 
    8270    657.68258   -9163.5746   -9090.2091   -2364.1167    17115.178    12.809852 
    8280    655.87492   -9163.4542   -9090.2904   -2180.5271    17122.415    12.810704 
    8290    682.47495   -9166.4771    -9090.346   -2872.3021    17127.138    12.814654 
    8300    708.56059   -9169.4748   -9090.4338   -4064.5391     17128.66    12.828342 
    8310    701.98403   -9168.9115   -9090.6041   -4199.4859    17125.891    12.853925 
    8320    691.48922   -9167.9977    -9090.861   -4588.3232    17118.502    12.887335 
    8330    670.60856   -9165.9761   -9091.1687   -4188.1189    17106.262    12.924102 
    8340    649.11148   -9163.8811   -9091.4718   -2358.8773      17089.7    12.964624 
    8350    653.16307   -9164.5901   -9091.7288    -432.8901    17070.677    13.005143 
    8360    670.75546   -9166.7643   -9091.9405    1470.8048    17051.303    13.034568 
    8370     678.7018   -9167.8535   -9092.1433    3367.5601    17033.622     13.04804 
    8380    681.99855   -9168.4416   -9092.3637     4327.505    17019.572    13.052654 
    8390    678.61863   -9168.3378   -9092.6369    4134.1476    17010.138    13.055702 
    8400     656.7124   -9166.2012   -9092.9439    3689.6758    17005.171    13.059527 
    8410    674.82292   -9168.5497   -9093.2722    2559.8077    17004.091    13.060349 
    8420      681.506   -9169.6626   -9093.6395    1786.4822    17005.808    13.057842 
    8430    664.84958   -9168.2069    -9094.042    1230.0721    17009.477    13.058522 
    8440    666.11391   -9168.7731   -9094.4671    682.34652    17014.474    13.066176 
    8450    662.54196    -9168.816   -9094.9085    303.57328    17020.189    13.076093 
    8460    662.04696   -9169.2065   -9095.3542   -793.60694    17026.143    13.086351 
    8470    681.71671   -9171.8554   -9095.8089   -2131.4494    17031.235    13.100522 
[...]
   22890    662.99501   -9205.1838   -9131.2257    1364.4845    16433.546    15.256885 
   22900    679.10043   -9206.2862   -9130.5315    2282.1146    16420.223    15.268896 
   22910    697.52473     -9207.65   -9129.8401    3130.0834    16409.122    15.274609 
   22920    696.25259   -9206.8907   -9129.2227    3981.0131    16401.148     15.27942 
   22930    699.10964   -9206.7028    -9128.716    4154.0536    16397.083    15.281497 
   22940    685.26918   -9204.7514   -9128.3086    4128.2122    16397.137      15.2722 
   22950    684.07629   -9204.2831   -9127.9734    3380.4061    16401.258    15.248366 
   22960    716.48157   -9207.6137   -9127.6891    1298.3804    16408.692    15.219326 
   22970     720.4026   -9207.8587   -9127.4967   -1335.8543    16417.433    15.192876 
   22980    681.01157   -9203.3698   -9127.4019   -3388.6383    16424.957    15.172547 
   22990    678.67794    -9203.057   -9127.3494   -5431.4736    16429.103        15.16 
   23000    673.60447   -9202.4539   -9127.3124   -5701.3365        16428     15.16011 
   23010    674.72163   -9202.5708   -9127.3046   -5337.3543    16421.199    15.174676 
   23020    688.86604   -9204.1629   -9127.3188   -4821.5067    16408.999    15.197424 
   23030    686.06078   -9203.8926   -9127.3614   -3321.7069    16391.982    15.227413 
   23040    663.38954   -9201.4019   -9127.3998   -979.70613    16371.624    15.266955 
   23050    677.33065   -9202.9596   -9127.4023     1351.559    16350.197    15.314439 
   23060    717.25426    -9207.425   -9127.4142    3351.2006    16329.951    15.363642 
   23070     692.7117   -9204.7235   -9127.4504    6595.4511    16313.111    15.415556 
   23080    701.80634    -9205.843   -9127.5555    7187.4438    16302.494     15.46498 
   23090    704.46818   -9206.3368   -9127.7523    5624.9551    16298.784    15.497738 
   23100    684.55082   -9204.4047    -9128.042    4270.8394    16300.665    15.511372 
   23110    672.65229   -9203.4092   -9128.3738    2732.9443    16306.776    15.516762 
   23120    693.16287   -9206.0521   -9128.7287    278.43027    16315.542    15.515786 
   23130     687.1218    -9205.739   -9129.0896   -1764.0468    16324.666    15.503209 
   23140     679.6375   -9205.2713   -9129.4567   -2660.1459    16332.175    15.484299 
   23150    674.88588   -9205.1033   -9129.8187   -3123.5842    16337.091    15.468265 
   23160     695.5211   -9207.7963   -9130.2099   -4109.1229    16338.835    15.462186 
   23170    688.56422   -9207.4647   -9130.6543   -3777.2288    16336.645    15.470077 
   23180    698.20896   -9209.0643    -9131.178   -2887.8528    16330.719    15.487402 
   23190    669.81619   -9206.4559   -9131.7369   -1300.2566     16321.98    15.516192 
   23200    657.83148    -9205.639   -9132.2569    5.6671478    16311.895    15.555871 
   23210    673.17095   -9207.8169   -9132.7236    223.39573    16301.683    15.596752 
   23220    662.68181   -9207.0576   -9133.1345   -78.849139    16291.612    15.635838 
   23230    659.57563   -9207.0384   -9133.4617   -18.239272     16281.45    15.676794 
   23240    679.48138   -9209.5072     -9133.71    650.99846    16271.313    15.722179 
   23250    677.13606   -9209.4435    -9133.908    1769.8497    16261.825    15.769626 
   23260    656.92059   -9207.3128   -9134.0324    3095.6172    16254.063     15.81484 
   23270    667.86589   -9208.5897   -9134.0883     3582.651    16249.223    15.850396 
   23280    682.50437   -9210.2429   -9134.1085    4254.5043    16247.921    15.878389 
   23290    685.39672   -9210.6033   -9134.1463    5090.2562    16250.804    15.904401 
   23300    668.99371   -9208.8414   -9134.2141    5279.3146    16258.657    15.925065 
   23310    675.15262   -9209.6019   -9134.2876    2951.5614    16271.514    15.940834 
   23320    688.57595   -9211.1604   -9134.3487   -699.58479    16287.189    15.947519 
   23330    651.32532   -9207.0431   -9134.3867    -2833.291    16302.386    15.936434 
   23340    650.06665      -9206.9    -9134.384   -4896.6829    16314.819    15.910704 
   23350    667.58838   -9208.8041   -9134.3336   -6285.1047    16322.526      15.8827 
   23360    661.65138   -9208.0841   -9134.2759   -6782.2341    16324.099    15.860219 
   23370    663.53252   -9208.2442   -9134.2261   -6063.9924     16319.06    15.844871 
   23380    677.30942   -9209.7283   -9134.1734   -4522.5694    16308.065    15.837677 
   23390    681.69962   -9210.1541   -9134.1095   -2387.5561    16292.602    15.843901 
   23400    668.78632   -9208.6172   -9134.0131    12.622077    16274.768     15.86166 
   23410    662.74935   -9207.8186   -9133.8879    1235.4532     16256.79    15.877647 
   23420    663.16708   -9207.7213   -9133.7441    2179.5768    16239.967     15.88438 
   23430    672.83429   -9208.6377    -9133.582    4185.8837    16225.359    15.880446 
   23440    680.25173   -9209.2976   -9133.4145    6420.6099    16214.858    15.868496 
   23450    673.26735     -9208.37    -9133.266    8207.4815    16210.626     15.85731 
   23460    680.11554    -9209.012   -9133.1441    7810.3713    16214.228    15.849695 
   23470     689.4166   -9209.9534    -9133.048    5736.3012    16225.363    15.841202 
   23480    670.72495   -9207.7787   -9132.9584     3333.324    16242.176    15.828006 
   23490    683.53812   -9209.0931   -9132.8434   -243.78101    16262.218    15.807317 
   23500    689.37725   -9209.5914   -9132.6904   -2665.7485    16282.228    15.785368 
   23510    688.52099   -9209.3524   -9132.5469   -3512.0848    16299.851    15.771427 
   23520    697.22145    -9210.221   -9132.4449   -4325.4174    16314.054    15.765922 
   23530    663.77727   -9206.4183   -9132.3729    -4501.824    16324.112    15.771642 
   23540    664.71454   -9206.4511   -9132.3012   -5227.4181    16329.679    15.792056 
   23550    684.38849   -9208.5637   -9132.2192   -5239.9896    16330.115    15.822906 
   23560    677.83684   -9207.7535   -9132.1397   -3330.6739    16325.528    15.852056 
   23570    692.17174   -9209.2826   -9132.0698   -1312.3557    16317.637    15.866382 
   23580    682.93817   -9208.1882   -9132.0054    130.26219     16308.36    15.868175 
   23590    674.07954   -9207.1419   -9131.9474    1116.9616    16299.138    15.871064 
   23600    692.95072   -9209.1844   -9131.8847    1060.3842    16290.891    15.876531 
   23610     696.5698   -9209.5531   -9131.8497    1708.3534    16283.733     15.88568 
   23620    683.38123   -9208.0829   -9131.8507    3638.4975    16278.345    15.906386 
   23630    696.53826   -9209.5967   -9131.8968    6065.0309    16276.593     15.93328 
   23640    691.69602   -9209.1727    -9132.013     7005.575    16280.703    15.952316 
   23650    683.32498    -9208.435   -9132.2091    6429.6695    16291.686    15.958056 
   23660    687.88527    -9209.201   -9132.4664    4171.2643    16308.968    15.953208 
   23670    666.52076   -9207.1015   -9132.7501    2401.5499     16330.61    15.938646 
   23680    652.91985    -9205.855   -9133.0208    305.40095    16354.803    15.910631 
   23690       667.49    -9207.699   -9133.2395   -3011.1533    16379.375    15.871618 
   23700    676.18719   -9208.8472   -9133.4175   -5722.9772    16401.194    15.833906 
   23710    704.88903   -9212.2604    -9133.629   -7820.6873    16417.488    15.803672 
   23720    697.65065   -9211.7754   -9133.9514   -8223.4801    16426.176    15.782405 
   23730    649.11222    -9206.757   -9134.3475   -7324.0412    16426.739    15.772633 
   23740    652.15952   -9207.4984    -9134.749   -6961.0909    16419.869    15.773006 
   23750    668.78822    -9209.756   -9135.1517   -6232.5852    16405.985    15.777415 
   23760    670.59616   -9210.3564   -9135.5504   -3994.0967     16385.88    15.786811 
   23770    672.66479   -9210.9623   -9135.9255   -886.26051    16361.702    15.802977 
   23780     641.0436   -9207.7192   -9136.2098    2601.2548     16336.56    15.819962 
   23790    637.70966   -9207.5261   -9136.3886    5184.1747    16313.815    15.833076 
   23800    645.45369   -9208.4814   -9136.4801    6290.2492    16295.975    15.843913 
   23810    678.88552   -9212.2945   -9136.5638    6600.1157    16284.209    15.854324 
   23820    670.58238    -9211.473   -9136.6685    7806.0456    16279.003     15.86335 
   23830    653.23254   -9209.6721    -9136.803    8742.5366    16281.449     15.86337 
   23840    654.86791   -9209.9943   -9136.9428    7500.7501    16292.383    15.854804 
   23850    668.30092   -9211.5987   -9137.0487     4578.621    16310.741    15.848871 
   23860    670.67414   -9211.9164   -9137.1017    1136.8332    16333.801    15.850362 
   23870    640.54407   -9208.5276    -9137.074   -2003.0114    16358.264    15.849266 
   23880    647.69749   -9209.2003   -9136.9487   -5618.8753    16380.899    15.837142 
   23890    670.63728   -9211.5496    -9136.739   -8065.5746    16398.204    15.819011 
   23900    665.97297   -9210.8122   -9136.5219   -9110.5783     16407.64    15.802414 
   23910    644.57419   -9208.2113   -9136.3081    -8490.268    16408.176    15.792914 
   23920    665.60379   -9210.3227   -9136.0736   -7632.0756    16400.176    15.794564 
   23930    660.70455   -9209.4865   -9135.7839   -5024.7458    16384.634    15.809111 
   23940    666.12321   -9209.7309   -9135.4239   -1972.5682     16363.99    15.834217 
   23950    669.32662   -9209.6296   -9134.9652    394.02485    16341.184    15.866038 
   23960     658.2612   -9207.8514   -9134.4214    2784.2969    16318.652    15.895033 
   23970    668.76818   -9208.4059   -9133.8038    4433.1822    16298.685    15.915542 
   23980     696.0354   -9210.7904   -9133.1466    5144.6824    16282.897    15.933761 
   23990    697.27859   -9210.3059   -9132.5234    5985.4683    16272.113    15.950532 
   24000    689.27636   -9208.8821   -9131.9923    6600.8186    16267.155    15.965524 
   24010     684.9547   -9207.9648   -9131.5571    6378.2489    16268.604    15.984773 
   24020    687.39601   -9207.8754   -9131.1953    5209.7848    16276.291     16.00373 
   24030    696.34051    -9208.581   -9130.9031    3408.5089    16289.178    16.018681 
   24040    676.35229   -9206.1258   -9130.6777    1992.6039    16305.621    16.031569 
   24050     669.3461   -9205.1418   -9130.4753    260.17037    16324.188    16.037577 
   24060    694.54508   -9207.7403   -9130.2628   -1373.6527    16343.234    16.037981 
   24070    690.07969   -9207.0503   -9130.0708   -2759.2009    16361.141    16.040381 
   24080    693.39547   -9207.2679   -9129.9186   -5078.9019    16376.393    16.043094 
   24090    692.00133   -9207.0009   -9129.8071   -7024.4772    16386.756    16.045374 
   24100    687.26495   -9206.4327   -9129.7673   -7245.6862    16390.334    16.047046 
   24110    676.87474   -9205.2984    -9129.792   -5971.3777    16386.785    16.041675 
   24120    664.11158   -9203.9031   -9129.8205   -3763.2805    16377.306    16.032403 
   24130    698.39014    -9207.755   -9129.8485   -1884.9408    16363.891    16.025965 
   24140    692.82885    -9207.176   -9129.8899    833.33622     16348.52    16.025967 
   24150    663.91211   -9203.9883   -9129.9279    3393.3883    16333.805    16.035542 
   24160    684.09215   -9206.2771   -9129.9656    4421.5719    16322.169    16.056849 
   24170    680.06404   -9205.8719   -9130.0097    4526.8429    16314.746    16.079356 
   24180    696.50695   -9207.7709   -9130.0745    3712.2415     16311.66    16.098977 
   24190     716.6647   -9210.1394   -9130.1944    2918.8184    16312.233    16.113902 
   24200    693.09893   -9207.6993   -9130.3831    2671.5743     16315.78    16.116346 
   24210    692.88192   -9207.9025   -9130.6105    1740.0867    16321.971    16.109572 
   24220    694.04421      -9208.3   -9130.8784    663.46884    16329.991     16.09633 
   24230    662.41784   -9205.0592   -9131.1655   -317.36809    16338.799    16.075259 
   24240    663.69084   -9205.4565   -9131.4208   -2197.8168    16347.336     16.05341 
   24250    685.29948   -9208.0894   -9131.6432    -4071.644    16353.795     16.03942 
   24260    657.69176   -9205.1983   -9131.8318   -3665.3013    16356.493    16.028422 
   24270    671.32715   -9206.8782   -9131.9907   -2867.7754    16355.583    16.017693 
   24280    681.12685   -9208.1168    -9132.136    -1461.791    16351.853    16.004806 
   24290    650.31274   -9204.7999   -9132.2565    641.76101    16346.684    15.991127 
   24300    661.99512   -9206.1715   -9132.3249    846.65097    16341.902    15.982767 
   24310    673.64451   -9207.4895   -9132.3434    787.49042    16337.867    15.979443 
   24320    656.27043   -9205.5399   -9132.3319     2205.181    16334.682     15.97912 
   24330    680.91349   -9208.2645   -9132.3075    2806.9583    16333.561    15.981429 
   24340    700.90452   -9210.4937   -9132.3068     2408.734    16335.145    15.981854 
   24350    670.16112   -9207.1022   -9132.3447    2219.4846    16339.202    15.981149 
   24360    669.53503   -9207.0806    -9132.393     1482.715    16345.514    15.983464 
   24370    669.57724   -9207.1155   -9132.4232    354.78407     16353.39    15.987028 
   24380     657.7631   -9205.7927   -9132.4182   -733.54352    16361.772    15.991431 
   24390    669.72832    -9207.091   -9132.3818   -2268.8489    16369.525    15.992107 
   24400    653.75428   -9205.2431   -9132.3158   -3207.0575    16375.188    15.983833 
   24410    678.73985    -9207.956   -9132.2416   -4432.1155    16377.685    15.969844 
   24420    704.44348   -9210.7781   -9132.1964   -4850.3613    16375.825    15.958296 
   24430    677.39975   -9207.7782   -9132.2133   -3088.5845    16369.244    15.956162 
   24440     667.9912    -9206.761   -9132.2456   -1475.5724     16359.39    15.966053 
   24450    679.19518   -9208.0283    -9132.263    721.79127    16347.915    15.976138 
   24460    666.16126   -9206.5553    -9132.244    3954.6562    16337.039    15.976377 
   24470    694.84584   -9209.7331    -9132.222    5648.1175    16329.776    15.969506 
   24480    696.94023   -9209.9955   -9132.2507    6095.3426    16327.922    15.962356 
   24490    659.48335   -9205.8874   -9132.3211    6264.5881    16332.146    15.963884 
   24500    679.08861    -9208.168   -9132.4146    4425.3743    16342.518    15.977032 
   24510    660.62489   -9206.1818   -9132.4881    3390.9698    16357.704    15.996695 
   24520    674.60517   -9207.8021   -9132.5489    1333.8802    16376.533    16.019282 
   24530    694.07258    -9210.017   -9132.5922   -1214.3377    16397.059     16.04409 
   24540    665.80137   -9206.8969   -9132.6257   -2446.3054    16416.931    16.063532 
   24550     662.8518   -9206.5673   -9132.6252   -3531.9829    16434.752    16.078608 
   24560    672.11283   -9207.5564   -9132.5812   -4271.1679    16449.395    16.098347 
   24570    662.47342   -9206.4259    -9132.526   -3879.6108    16460.145    16.125262 
   24580    675.23769   -9207.7977   -9132.4739   -4134.2118    16467.112    16.155264 
   24590    691.91983   -9209.6234   -9132.4387   -5114.4227    16469.952    16.179224 
   24600     683.7463   -9208.7092   -9132.4362   -5403.5346    16467.738    16.193202 
   24610    699.45161   -9210.5177   -9132.4929   -5297.3875    16460.008    16.199411 
   24620    683.32646   -9208.8472   -9132.6211   -3321.8883    16446.904    16.200488 
   24630    651.52415   -9205.4388   -9132.7603   -142.10884    16430.279    16.196493 
   24640    672.15994   -9207.8547   -9132.8742    1597.8204    16413.059    16.188024 
   24650    688.56677   -9209.8035   -9132.9928    2330.5719    16397.031    16.180482 
   24660    676.88851   -9208.6413   -9133.1334    2356.1196     16382.96    16.175866 
   24670    662.76829   -9207.1895   -9133.2567    2425.8697    16371.014     16.17248 
   24680     664.7911   -9207.5092   -9133.3507    2549.5272    16361.301     16.16839 
   24690    669.52401   -9208.1343   -9133.4479    3394.1708    16354.073    16.162046 
   24700    680.37227   -9209.4802   -9133.5837    4203.0869    16350.144    16.155053 
   24710    681.64224   -9209.8301   -9133.7919    4257.8149    16350.307    16.149251 
   24720    665.23517   -9208.2873   -9134.0793    3705.4751    16354.694    16.150942 
   24730      645.071   -9206.3624   -9134.4037    2535.3246    16362.855    16.159493 
   24740    648.26237   -9207.0352   -9134.7205   -192.09246    16373.581    16.169759 
   24750    647.87012   -9207.2699    -9134.999   -2301.5303    16384.389    16.180484 
   24760    658.57084   -9208.7049   -9135.2403   -3138.5848    16393.195    16.191245 
   24770    693.87136      -9212.9   -9135.4976   -3114.3122    16399.069    16.198255 
   24780     672.3321   -9210.8007   -9135.8011   -1349.9944     16402.09    16.201714 
   24790    662.30292   -9210.0056   -9136.1247   -620.46184    16403.683    16.205979 
   24800    671.47072   -9211.3574   -9136.4538   -1560.7003    16404.505    16.214307 
   24810    664.81185   -9210.9545   -9136.7937   -2253.3813    16403.781    16.231596 
   24820    657.57903   -9210.4846   -9137.1307   -1805.0995     16400.89    16.257268 
   24830    652.11087   -9210.1752   -9137.4312   -325.03228    16396.219    16.288463 
   24840    670.61519   -9212.4882   -9137.6801     966.6081    16391.108    16.323562 
   24850    682.96649   -9214.1213   -9137.9353    1756.3908    16386.823    16.362704 
   24860    629.52606   -9208.4023   -9138.1777    3092.7089    16384.294     16.39856 
   24870    640.40418   -9209.8085   -9138.3704    2727.2722    16384.641    16.425977 
   24880    659.34818   -9212.0561   -9138.5048     2437.837    16387.787    16.442575 
   24890    654.76074   -9211.6507   -9138.6112     2012.369    16393.452    16.448615 
   24900    649.34442   -9211.1328   -9138.6974    1153.9499    16401.224    16.451334 
   24910    615.20114   -9207.3438   -9138.7172    1114.5888    16410.438    16.452845 
   24920    649.71348   -9211.1145    -9138.638   -611.17083    16420.802    16.446993 
   24930    680.67165   -9214.3836   -9138.4536   -2670.7012    16430.725    16.431235 
   24940    655.36253   -9211.3183   -9138.2117   -3565.8877    16438.217    16.411596 
   24950    651.83919   -9210.6316    -9137.918   -3892.5003    16442.264    16.395839 
   24960    633.63956    -9208.232   -9137.5486   -3347.0431     16442.53    16.386199 
   24970    638.68774   -9208.3449   -9137.0983   -3184.6408    16439.373    16.383304 
   24980     670.4555    -9211.345   -9136.5547   -2834.1343     16432.95    16.388285 
   24990    661.73723   -9209.7785   -9135.9607   -1101.6092    16423.659    16.397758 
   25000     669.7098   -9210.0631    -9135.356    472.85354    16413.056    16.411088 
Loop time of 14525.5 on 16 procs for 20000 steps with 864 atoms

Performance: 0.119 ns/day, 201.743 hours/ns, 1.377 timesteps/s
96.0% CPU use with 16 MPI tasks x 1 OpenMP threads

MPI task timing breakdown:
Section |  min time  |  avg time  |  max time  |%varavg| %total
---------------------------------------------------------------
Pair    | 2570.6     | 8126       | 14380      |4560.5 | 55.94
Bond    | 0.0018034  | 0.0046202  | 0.011503   |   3.8 |  0.00
Neigh   | 0.1352     | 0.38956    | 0.68375    |  31.7 |  0.00
Comm    | 122.78     | 4886.5     | 10177      |4782.2 | 33.64
Output  | 1.3649     | 1.391      | 1.7764     |   8.4 |  0.01
Modify  | 20.405     | 1511.1     | 5601.7     |4396.3 | 10.40
Other   |            | 0.08886    |            |       |  0.00

Nlocal:        54.0000 ave          90 max          24 min
Histogram: 3 1 3 2 1 0 0 2 2 2
Nghost:        566.938 ave         792 max         321 min
Histogram: 2 0 1 1 5 1 2 0 2 2
Neighs:         0.00000 ave           0 max           0 min
Histogram: 16 0 0 0 0 0 0 0 0 0
FullNghs:      3156.50 ave        6241 max         612 min
Histogram: 4 0 4 1 1 0 2 0 0 4

Total # of neighbors = 50504
Ave neighs/atom = 58.453704
Ave special neighs/atom = 0.0000000
Neighbor list builds = 2000
Dangerous builds = 2000
unfix   3
                
Total wall time: 5:02:37
