LAMMPS (29 Sep 2021 - Update 3)
OMP_NUM_THREADS environment is not set. Defaulting to 1 thread. (src/comm.cpp:98)
  using 1 OpenMP thread(s) per MPI task
Reading data file ...
  orthogonal box = (0.0000000 0.0000000 0.0000000) to (15.969932 15.719106 81.083077)
  2 by 1 by 8 MPI processor grid
  reading atoms ...
  864 atoms
Finding 1-2 1-3 1-4 neighbors ...
  special bond factors lj:    0        0        0       
  special bond factors coul:  0        0        0       
     0 = max # of 1-2 neighbors
     0 = max # of 1-3 neighbors
     0 = max # of 1-4 neighbors
     1 = max # of special neighbors
  special bonds CPU = 0.002 seconds
  read_data CPU = 0.033 seconds
Neighbor list info ...
  update every 1 steps, delay 10 steps, check yes
  max neighbors/atom: 2000, page size: 100000
  master list distance cutoff = 6.22
  ghost atom cutoff = 6.22
  binsize = 3.11, bins = 6 6 27
  1 neighbor lists, perpetual/occasional/extra = 1 0 0
  (1) pair quip, perpetual
      attributes: full, newton on
      pair build: full/bin
      stencil: full/bin/3d
      bin: standard
Setting up Verlet run ...
  Unit style    : metal
  Current step  : 0
  Time step     : 0.001
Per MPI rank memory allocation (min/avg/max) = 8.888 | 8.903 | 8.913 Mbytes
Step Temp PotEng TotEng Press Volume c_msd[4] 
       0            0   -6930.8241   -6930.8241   -4495.9065    20354.533            0 
      10    65.904237   -6938.1841   -6930.8324   -5379.5912    20354.533 0.0005000384 
      20    168.73131   -6949.6632    -6930.841   -6364.5261    20354.533 0.0061479459 
      30    200.57733   -6953.2127    -6930.838   -5696.6671    20354.533  0.020662009 
      40    199.55606   -6953.0935   -6930.8327   -4580.1506    20354.533   0.03833664 
      50    226.88579   -6956.1474   -6930.8379   -4419.7801    20354.533  0.051806208 
      60    238.47957   -6957.4392   -6930.8365   -4645.7272    20354.533  0.061424452 
      70    236.06355   -6957.1692   -6930.8359    -4807.043    20354.533  0.069853138 
      80    232.99362   -6956.8259   -6930.8351    -5036.908    20354.533  0.079308594 
      90    234.23747   -6956.9654   -6930.8358   -5260.6038    20354.533  0.090830495 
     100    232.00556   -6956.7159   -6930.8353   -5208.0306    20354.533   0.10432197 
     110    232.79067   -6956.8033   -6930.8352   -5031.3164    20354.533   0.11840709 
     120    238.30149    -6957.419   -6930.8361   -4942.2097    20354.533   0.13201584 
     130    238.74514   -6957.4687   -6930.8363   -4988.8033    20354.533   0.14538478 
     140    232.54984   -6956.7771   -6930.8358   -4942.4536    20354.533   0.15867927 
     150    225.40044   -6955.9792   -6930.8355   -4787.8719    20354.533   0.17110203 
     160    224.38726   -6955.8659   -6930.8352   -4620.0724    20354.533    0.1817825 
     170    231.86358   -6956.7009   -6930.8362   -4442.3359    20354.533   0.19072597 
     180    237.58036   -6957.3391   -6930.8366   -4192.2572    20354.533   0.19889867 
     190    235.69365   -6957.1279    -6930.836   -3927.7806    20354.533   0.20710191 
     200    234.44619   -6956.9885   -6930.8356   -3773.8119    20354.533   0.21513007 
     210    236.73114   -6957.2437    -6930.836   -3777.5502    20354.533   0.22305549 
     220    238.14425   -6957.4012   -6930.8359   -3899.9101    20354.533    0.2315521 
     230     238.4388   -6957.4341   -6930.8359   -4006.5782    20354.533   0.24098695 
     240    239.23886    -6957.523   -6930.8356   -3984.7528    20354.533   0.25141959 
     250     242.0724   -6957.8401   -6930.8366   -3793.3442    20354.533   0.26265129 
     260       239.05   -6957.5024    -6930.836   -3540.3897    20354.533   0.27417391 
     270    235.84511    -6957.145   -6930.8361   -3272.6541    20354.533   0.28493922 
     280    231.62838   -6956.6748   -6930.8363   -2948.2435    20354.533   0.29437431 
     290    226.51317   -6956.1028    -6930.835   -2633.8875    20354.533   0.30220439 
     300    232.88912   -6956.8151    -6930.836   -2478.1682    20354.533   0.30835486 
     310    239.65399   -6957.5709   -6930.8371   -2317.7128    20354.533   0.31386348 
     320    236.98534   -6957.2718   -6930.8357   -2020.1819    20354.533   0.31985126 
     330    235.73864   -6957.1329   -6930.8359   -1957.4113    20354.533   0.32664959 
     340    236.09186   -6957.1723   -6930.8359   -2003.6376    20354.533   0.33435107 
     350    237.19352   -6957.2955   -6930.8363   -2145.8328    20354.533   0.34289663 
     360     235.6501   -6957.1226   -6930.8355   -2186.0282    20354.533   0.35153924 
     370      237.245   -6957.3009   -6930.8359   -2246.4379    20354.533   0.35886165 
     380     239.0727   -6957.5047   -6930.8358   -2396.5837    20354.533   0.36451066 
     390    241.64207   -6957.7913   -6930.8358   -2701.0958    20354.533   0.36907283 
     400    244.68963   -6958.1321   -6930.8366    -3058.184    20354.533   0.37340775 
     410    240.84575   -6957.7024   -6930.8357   -3233.9135    20354.533   0.37836011 
     420    237.91038    -6957.375   -6930.8357   -3296.1667    20354.533    0.3837999 
     430    237.53548   -6957.3335    -6930.836     -3297.92    20354.533   0.38923076 
     440    236.65311   -6957.2351   -6930.8361   -3132.9159    20354.533   0.39408345 
     450    236.54722   -6957.2227   -6930.8355   -2838.3736    20354.533   0.39819744 
     460    240.22636   -6957.6339   -6930.8363   -2750.9298    20354.533   0.40204023 
     470    240.52465   -6957.6669    -6930.836   -2995.4918    20354.533   0.40599969 
     480    237.66852   -6957.3482   -6930.8359   -3342.9489    20354.533   0.40967234 
     490     233.8587   -6956.9231   -6930.8358   -3484.3142    20354.533   0.41268728 
     500    232.08796   -6956.7258   -6930.8361   -3205.4816    20354.533   0.41521326 
     510    230.70203   -6956.5715   -6930.8364   -2716.5526    20354.533   0.41731564 
     520    228.05602   -6956.2759   -6930.8359   -2363.5724    20354.533   0.41870774 
     530    227.97164    -6956.267   -6930.8365   -2215.6832    20354.533   0.41939371 
     540    224.82248   -6955.9152   -6930.8359   -2142.5726    20354.533   0.41965215 
     550    224.12424   -6955.8368   -6930.8354   -2230.4398    20354.533   0.41896539 
     560    230.14975   -6956.5094   -6930.8358   -2549.6413    20354.533   0.41694428 
     570    236.18881   -6957.1833   -6930.8361   -2919.3179    20354.533   0.41431605 
     580    239.11248   -6957.5092   -6930.8358   -3311.7801    20354.533   0.41218239 
     590    240.41038    -6957.654   -6930.8359   -3417.9605    20354.533   0.41128732 
     600     241.9108   -6957.8213   -6930.8358   -3319.9933    20354.533   0.41181297 
     610    244.71998   -6958.1355   -6930.8366   -3218.6172    20354.533   0.41378595 
     620     241.0794   -6957.7291   -6930.8363   -3147.9995    20354.533   0.41727735 
     630    235.50013   -6957.1059   -6930.8355   -3135.0665    20354.533   0.42154918 
     640    235.11112   -6957.0634   -6930.8364   -3257.6948    20354.533   0.42544554 
     650    231.17765   -6956.6238   -6930.8356   -3363.2824    20354.533   0.42831027 
     660    230.96587      -6956.6   -6930.8354    -3278.616    20354.533   0.42962018 
     670    236.71051   -6957.2418   -6930.8364   -3057.6575    20354.533   0.43008462 
     680    237.89077   -6957.3735   -6930.8365   -2729.6334    20354.533   0.43147958 
     690    233.77068   -6956.9134    -6930.836   -2455.8007    20354.533   0.43467882 
     700    232.73214   -6956.7972   -6930.8356   -2458.1317    20354.533   0.43896836 
     710     238.6713   -6957.4612    -6930.837     -2772.14    20354.533   0.44306523 
     720    238.40713   -6957.4307    -6930.836    -2807.083    20354.533   0.44626276 
     730     240.4682   -6957.6606    -6930.836   -2649.5036    20354.533   0.44805059 
     740    245.36669   -6958.2082   -6930.8372   -2598.8991    20354.533   0.44927166 
     750    241.62154   -6957.7892    -6930.836   -2531.0184    20354.533   0.45180545 
     760    240.83361   -6957.7015   -6930.8361   -2663.8574    20354.533   0.45609454 
     770    242.81641   -6957.9232   -6930.8366   -2904.7405    20354.533   0.46149917 
     780    240.55873   -6957.6716   -6930.8369   -3011.4883    20354.533   0.46731331 
     790    234.48344    -6956.992    -6930.835   -2984.9723    20354.533   0.47270083 
     800    241.36903   -6957.7616   -6930.8365   -3043.6074    20354.533   0.47702973 
     810    248.02611   -6958.5044   -6930.8367   -3212.7271    20354.533   0.48113406 
     820    247.07524   -6958.3983   -6930.8367   -3298.0857    20354.533   0.48604281 
     830    241.62282   -6957.7892   -6930.8358   -3451.0521    20354.533   0.49200069 
     840    241.09937   -6957.7309   -6930.8359   -3767.5583    20354.533    0.4980224 
     850    243.86884   -6958.0407   -6930.8367   -3969.0277    20354.533   0.50315689 
     860    240.67295   -6957.6839   -6930.8364   -3878.9651    20354.533   0.50749313 
     870    234.88256   -6957.0377   -6930.8362   -3705.4216    20354.533   0.51123394 
     880     230.9712   -6956.6008   -6930.8356   -3732.8653    20354.533   0.51418617 
     890    234.71187   -6957.0191   -6930.8366   -3903.3458    20354.533   0.51649556 
     900    236.69755   -6957.2408   -6930.8368   -4096.5729    20354.533   0.51925856 
     910    234.14135   -6956.9543   -6930.8355   -4214.9524    20354.533   0.52270274 
     920     239.2214   -6957.5215    -6930.836    -4371.806    20354.533    0.5260843 
     930    246.23434   -6958.3046   -6930.8368   -4388.3174    20354.533   0.52947161 
     940    244.93011   -6958.1585   -6930.8361    -4140.633    20354.533    0.5331014 
     950    244.54566   -6958.1146   -6930.8351   -3874.4856    20354.533   0.53608506 
     960     253.5944   -6959.1267   -6930.8378   -3771.8165    20354.533   0.53803089 
     970     248.3829   -6958.5442   -6930.8367   -3524.3442    20354.533   0.53986141 
     980    238.35135   -6957.4243   -6930.8358   -3260.4338    20354.533   0.54101785 
     990    236.50322   -6957.2181   -6930.8358   -3175.8957    20354.533   0.54134372 
    1000    241.19481   -6957.7423   -6930.8367   -3304.4267    20354.533   0.54225539 
    1010    241.95562   -6957.8272   -6930.8367   -3391.2596    20354.533   0.54502288 
    1020    240.16869   -6957.6269   -6930.8357   -3447.0496    20354.533   0.54930268 
    1030    245.53617   -6958.2267   -6930.8368   -3456.4918    20354.533   0.55419445 
    1040    247.77076    -6958.476   -6930.8368   -3298.5887    20354.533   0.55950896 
    1050     244.2442   -6958.0816   -6930.8358   -3136.4369    20354.533   0.56417367 
    1060    244.98518   -6958.1647   -6930.8363    -3248.508    20354.533   0.56688242 
    1070    245.91228   -6958.2687   -6930.8368   -3519.1406    20354.533   0.56812185 
    1080    243.86214    -6958.039   -6930.8358   -3692.2455    20354.533   0.56934968 
    1090    246.84293   -6958.3726   -6930.8369   -3906.5524    20354.533   0.57178329 
    1100      244.881   -6958.1533   -6930.8365   -4089.2355    20354.533   0.57651628 
    1110    240.43499   -6957.6569    -6930.836   -4077.0823    20354.533    0.5832495 
    1120    237.92872   -6957.3775   -6930.8362   -4003.4461    20354.533   0.59023617 
    1130    236.51172   -6957.2189   -6930.8357   -4042.4172    20354.533   0.59550452 
    1140    238.96444   -6957.4936   -6930.8368   -4040.0227    20354.533   0.59831056 
    1150    235.78148   -6957.1379   -6930.8361   -3879.2914    20354.533   0.59921996 
    1160    234.20341   -6956.9615   -6930.8358   -3837.8249    20354.533    0.5985221 
    1170    240.41902   -6957.6544   -6930.8353    -3935.141    20354.533   0.59722217 
    1180    255.54411   -6959.3435   -6930.8372     -4092.55    20354.533   0.59743217 
    1190    258.99242   -6959.7285   -6930.8375   -4046.2257    20354.533    0.6011544 
    1200    248.88394   -6958.5986   -6930.8352   -3714.2841    20354.533   0.60762836 
    1210    248.47025   -6958.5542    -6930.837   -3470.6197    20354.533   0.61448368 
    1220    244.95446   -6958.1613   -6930.8363   -3177.7538    20354.533   0.62050251 
    1230     241.8534   -6957.8153   -6930.8362   -3046.6572    20354.533   0.62473384 
    1240    239.93171   -6957.6017    -6930.837   -2953.8402    20354.533   0.62763822 
    1250    233.26136   -6956.8559   -6930.8352   -2777.3686    20354.533   0.63038166 
    1260    237.93988   -6957.3787   -6930.8361   -2775.1391    20354.533    0.6330371 
    1270    246.35675   -6958.3182   -6930.8368   -2888.4422    20354.533   0.63643977 
    1280    248.45813   -6958.5525   -6930.8366   -2920.0425    20354.533   0.64183599 
    1290    245.47675   -6958.2198   -6930.8365   -2685.1116    20354.533   0.64908358 
    1300    241.63357   -6957.7906    -6930.836   -2354.7632    20354.533   0.65669456 
    1310    242.43427   -6957.8804   -6930.8365   -2080.8148    20354.533   0.66291632 
    1320    245.28186   -6958.1979   -6930.8364   -1915.3295    20354.533    0.6669735 
    1330    248.60459   -6958.5691   -6930.8369   -2012.6907    20354.533   0.66938419 
    1340    247.35187   -6958.4291   -6930.8367   -2148.5782    20354.533   0.67162517 
    1350    244.12194   -6958.0683   -6930.8361   -1975.6824    20354.533   0.67460298 
    1360    246.17117   -6958.2975   -6930.8367   -1695.7314    20354.533   0.67795806 
    1370    247.81913   -6958.4815   -6930.8369   -1406.6961    20354.533   0.68155459 
    1380    246.54204   -6958.3387   -6930.8366   -1365.9532    20354.533   0.68550067 
    1390    245.37096   -6958.2083   -6930.8368   -1609.7263    20354.533   0.68946972 
    1400    243.36629   -6957.9841   -6930.8362   -2040.6718    20354.533   0.69316197 
    1410    243.94371   -6958.0489   -6930.8367    -2492.182    20354.533   0.69632692 
    1420    241.91407   -6957.8222   -6930.8364   -2641.5513    20354.533   0.69908731 
    1430    240.29252    -6957.641   -6930.8361   -2738.6597    20354.533   0.70169952 
    1440    243.00906   -6957.9446   -6930.8366   -2920.7186    20354.533   0.70454594 
    1450    244.25454   -6958.0838   -6930.8369   -3048.4377    20354.533   0.70795341 
    1460    242.09952    -6957.843   -6930.8364   -2976.5792    20354.533   0.71130224 
    1470    243.45842   -6957.9943   -6930.8362   -3081.8274    20354.533    0.7132231 
    1480    250.70065   -6958.8033   -6930.8373   -3338.8349    20354.533   0.71370178 
    1490    252.18388   -6958.9685    -6930.837   -3376.1382    20354.533    0.7144344 
    1500    251.43885   -6958.8853   -6930.8369   -3315.8008    20354.533   0.71637247 
    1510    251.24938    -6958.864   -6930.8368   -3301.7557    20354.533   0.71942223 
    1520    249.70733   -6958.6922    -6930.837   -3282.0336    20354.533   0.72323431 
    1530    244.44696   -6958.1054    -6930.837   -3302.2244    20354.533   0.72763008 
    1540    236.75683   -6957.2464   -6930.8358   -3274.9713    20354.533    0.7323608 
    1550    237.57971   -6957.3389   -6930.8365   -3428.4116    20354.533   0.73683196 
    1560    241.15015   -6957.7371   -6930.8364   -3593.4236    20354.533   0.74115804 
    1570    245.97302   -6958.2754   -6930.8368   -3733.6516    20354.533   0.74547586 
    1580    248.38573   -6958.5448    -6930.837   -3697.1233    20354.533   0.74963233 
    1590    246.86432   -6958.3746   -6930.8366   -3466.8015    20354.533   0.75351214 
    1600     247.7118   -6958.4687    -6930.836   -3388.9239    20354.533   0.75677589 
    1610    253.82537   -6959.1519   -6930.8373    -3531.034    20354.533   0.75955216 
    1620    251.92871   -6958.9401   -6930.8371   -3648.0728    20354.533   0.76294914 
    1630    244.66821   -6958.1291    -6930.836   -3657.5504    20354.533   0.76703359 
    1640    244.28177   -6958.0866   -6930.8366   -3671.0399    20354.533   0.77099433 
    1650    244.83575   -6958.1483   -6930.8365   -3788.3144    20354.533   0.77508445 
    1660    246.40424   -6958.3232   -6930.8364    -3813.853    20354.533   0.77989624 
    1670     250.2724    -6958.755   -6930.8367   -3565.9239    20354.533   0.78529205 
    1680    252.16532   -6958.9666   -6930.8372   -3320.4462    20354.533   0.79034429 
    1690    248.06278   -6958.5083   -6930.8366    -3241.467    20354.533   0.79410211 
    1700    246.18953   -6958.2989   -6930.8361   -3435.3007    20354.533   0.79613512 
    1710    251.37963   -6958.8788   -6930.8371   -3765.1983    20354.533   0.79697816 
    1720    252.49637   -6959.0036   -6930.8373   -4015.6546    20354.533   0.79809077 
    1730    246.19105   -6958.2991   -6930.8361   -4012.8085    20354.533   0.80001418 
    1740    244.72061   -6958.1349   -6930.8359   -3836.2711    20354.533   0.80174398 
    1750    250.77886   -6958.8116   -6930.8368   -3664.5304    20354.533   0.80300604 
    1760    253.23106   -6959.0851   -6930.8368   -3574.9487    20354.533   0.80474848 
    1770     250.9182   -6958.8268   -6930.8365   -3643.0638    20354.533   0.80759401 
    1780    248.19059    -6958.522   -6930.8359    -3925.933    20354.533   0.81194222 
    1790    251.50586   -6958.8923   -6930.8365   -4358.7518    20354.533   0.81788965 
    1800    254.74644   -6959.2547   -6930.8373   -4555.0094    20354.533   0.82537267 
    1810    250.83969   -6958.8178   -6930.8362   -4276.5786    20354.533   0.83331392 
    1820     251.8855   -6958.9345   -6930.8362   -4012.9598    20354.533   0.83972246 
    1830      255.594   -6959.3496   -6930.8377   -3901.3718    20354.533   0.84445553 
    1840    246.70995   -6958.3569   -6930.8361   -3626.6691    20354.533   0.84851616 
    1850    241.86654   -6957.8157   -6930.8351   -3456.7016    20354.533   0.85180041 
    1860    250.43531   -6958.7737   -6930.8372    -3514.864    20354.533    0.8548436 
    1870    251.67809   -6958.9117   -6930.8366    -3317.435    20354.533   0.85904271 
    1880    249.74232   -6958.6953   -6930.8361   -2814.4162    20354.533   0.86408884 
    1890    251.03758   -6958.8407    -6930.837   -2598.2462    20354.533   0.86903478 
    1900    247.47063   -6958.4421   -6930.8364   -2762.2368    20354.533   0.87371783 
    1910    246.41436   -6958.3238   -6930.8359   -3170.3298    20354.533   0.87809892 
    1920    252.32808   -6958.9847   -6930.8371   -3481.0709    20354.533    0.8826292 
    1930    251.70282   -6958.9148    -6930.837   -3522.0143    20354.533   0.88826081 
    1940    246.41342   -6958.3234   -6930.8356   -3409.4835    20354.533   0.89502972 
    1950     251.5574   -6958.8983   -6930.8367   -3383.3627    20354.533   0.90192896 
    1960    256.70331    -6959.473   -6930.8374   -3284.7665    20354.533   0.90797257 
    1970    251.99325   -6958.9465   -6930.8363   -3170.8424    20354.533   0.91214044 
    1980    249.36931   -6958.6536    -6930.836    -3268.664    20354.533   0.91382089 
    1990    253.19383   -6959.0808   -6930.8367   -3484.4565    20354.533   0.91429439 
    2000    255.75062   -6959.3664    -6930.837   -3645.8324    20354.533   0.91593526 
Loop time of 1683.69 on 16 procs for 2000 steps with 864 atoms

Performance: 0.103 ns/day, 233.846 hours/ns, 1.188 timesteps/s
95.6% CPU use with 16 MPI tasks x 1 OpenMP threads

MPI task timing breakdown:
Section |  min time  |  avg time  |  max time  |%varavg| %total
---------------------------------------------------------------
Pair    | 704.57     | 1236.5     | 1528.9     | 600.6 | 73.44
Bond    | 0.00016046 | 0.00045772 | 0.00081372 |   0.0 |  0.00
Neigh   | 0.018562   | 0.028146   | 0.035708   |   3.4 |  0.00
Comm    | 126.35     | 405.51     | 911.52     |1011.0 | 24.08
Output  | 9.7146     | 21.188     | 36.119     | 203.0 |  1.26
Modify  | 0.011042   | 0.012169   | 0.014855   |   0.9 |  0.00
Other   |            | 20.47      |            |       |  1.22

Nlocal:        54.0000 ave          71 max          39 min
Histogram: 3 2 1 1 0 4 1 0 3 1
Nghost:        497.125 ave         591 max         387 min
Histogram: 1 2 1 1 1 3 2 1 2 2
Neighs:         0.00000 ave           0 max           0 min
Histogram: 16 0 0 0 0 0 0 0 0 0
FullNghs:      2382.00 ave        3956 max        1259 min
Histogram: 3 2 2 0 2 3 1 1 1 1

Total # of neighbors = 38112
Ave neighs/atom = 44.111111
Ave special neighs/atom = 0.0000000
Neighbor list builds = 199
Dangerous builds = 198
Setting up Verlet run ...
  Unit style    : metal
  Current step  : 2000
  Time step     : 0.001
Per MPI rank memory allocation (min/avg/max) = 8.897 | 8.905 | 8.914 Mbytes
Step Temp PotEng TotEng Press Volume c_msd[4] 
    2000        937.5   -6959.3664   -6854.7869    344.95085    20354.533   0.91593526 
    2010    822.39882   -6946.4906   -6854.7508    2689.3603    20354.971   0.93022897 
    2020    649.82742    -6927.018   -6854.5288    5938.7774    20358.488   0.95607511 
    2030    594.28712   -6920.2795   -6853.9859    6654.7174    20368.351   0.97800356 
    2040    575.04121   -6917.1996   -6853.0529    6159.7892    20385.533   0.99483572 
    2050    554.56413   -6913.7672   -6851.9047     5466.402      20409.6    1.0106226 
    2060    547.59626   -6911.8888   -6850.8036     4654.763    20439.817     1.026893 
    2070    582.75872    -6914.813   -6849.8054    3870.4593    20475.317    1.0440672 
    2080    598.24336   -6915.5364   -6848.8014    3729.7628    20515.309    1.0644402 
    2090    577.43908   -6912.1675   -6847.7533    3725.1957    20559.572    1.0872777 
    2100    591.40469   -6912.5576   -6846.5855    2692.9962    20607.941    1.1081468 
    2110    613.04534   -6913.6006   -6845.2145    1447.4798    20659.286    1.1266759 
    2120    606.42353   -6911.3856   -6843.7381    548.55207    20712.172    1.1446529 
    2130    606.31587   -6909.8482   -6842.2127   -369.37078     20765.44    1.1627186 
    2140    607.44753   -6908.3911   -6840.6294   -979.98019    20817.984    1.1821792 
    2150     602.4231   -6906.2133   -6839.0121   -1206.9234    20869.009    1.2030751 
    2160    597.96755   -6904.0719   -6837.3677   -1450.4797    20918.117    1.2243619 
    2170    608.82895   -6903.5978    -6835.682   -1433.1439    20965.017    1.2460424 
    2180    627.22829   -6903.9028   -6833.9345   -1238.3453    21009.652    1.2696344 
    2190    645.48983   -6904.1537   -6832.1484    -1091.404    21052.191    1.2964058 
    2200    660.74385   -6904.0282   -6830.3212   -1174.0266    21092.759    1.3263213 
    2210    658.98221   -6902.0037   -6828.4932   -1314.1425    21131.268    1.3577958 
    2220    655.56931   -6899.7936   -6826.6639   -1815.6223    21167.502    1.3872845 
    2230    664.80155   -6898.9647   -6824.8051   -2544.1095    21200.878    1.4124872 
    2240    683.31162   -6899.1198   -6822.8953   -3185.8965    21230.582    1.4337373 
    2250     694.8513    -6898.453   -6820.9413   -3422.9755    21255.895    1.4519223 
    2260    694.46732   -6896.4566   -6818.9877   -2668.3488    21276.682    1.4682131 
    2270    703.56481   -6895.5174   -6817.0337   -1609.3044    21293.851    1.4834544 
    2280    705.22686   -6893.7475   -6815.0784    -634.0239    21308.715    1.4999262 
    2290    701.44399   -6891.3903   -6813.1432   -511.75106    21322.395    1.5177673 
    2300    714.97533   -6890.9515   -6811.1949   -1018.1618    21335.093    1.5343843 
    2310    727.00964   -6890.3088   -6809.2097    -1642.383    21346.245    1.5495094 
    2320    722.97048    -6887.877   -6807.2286   -1645.0609    21355.231    1.5632717 
    2330    735.55183   -6887.3097   -6805.2577   -1433.1541     21362.04    1.5745908 
    2340    758.31826   -6887.8357   -6803.2442   -1265.8592    21366.959    1.5862269 
    2350    774.60372   -6887.6197   -6801.2115   -1019.2401    21370.246    1.6023203 
    2360    762.74248   -6884.2898   -6799.2047   -659.22235    21372.245    1.6230638 
    2370     749.3236   -6880.8293   -6797.2411   -350.13302    21373.406    1.6439691 
    2380    752.86204   -6879.2523   -6795.2694    -153.7355    21374.112    1.6600855 
    2390    775.36521   -6879.7433   -6793.2501   -41.756118    21374.616    1.6715058 
    2400    811.47139   -6881.7041   -6791.1833   -217.48313    21375.025    1.6827041 
    2410    833.87576   -6882.1255   -6789.1054   -79.787447     21375.21    1.6986775 
    2420    840.97966   -6880.9008   -6787.0883    263.87918    21375.307    1.7200516 
    2430     844.0474   -6879.2849   -6785.1301    395.85623    21375.717    1.7424127 
    2440    846.84944   -6877.6934    -6783.226    270.07081    21376.562    1.7618549 
    2450    838.17443   -6874.8607   -6781.3611     732.0012    21377.777    1.7763279 
    2460     844.2228   -6873.6904    -6779.516    990.48005    21379.811    1.7850995 
    2470    851.25016    -6872.618   -6777.6598    1129.4062    21383.019    1.7922831 
    2480    856.66395   -6871.3773   -6775.8152    916.65788    21387.494    1.8019447 
    2490    865.55833   -6870.5308   -6773.9765    689.14484    21393.004    1.8151211 
    2500    878.89193   -6870.1903   -6772.1486    373.39516     21399.22    1.8326631 
    2510     879.1236   -6868.4161   -6770.3485     360.5137    21405.801    1.8568125 
    2520     887.7275   -6867.6162   -6768.5889    255.13434     21412.67    1.8883774 
    2530    882.84489   -6865.3448   -6766.8622    788.63246    21419.808    1.9230353 
    2540    905.06045   -6866.1376   -6765.1767    1085.4764    21427.736    1.9545861 
    2550     934.1044   -6867.6969   -6763.4961    1197.2815    21436.832    1.9851731 
    2560    947.08951   -6867.5462   -6761.8969    1526.3132    21447.261    2.0170885 
    2570    926.26977   -6863.7374   -6760.4107    2196.9136    21459.434     2.046439 
    2580    930.42301   -6862.8138   -6759.0237    2578.1475    21474.071    2.0686843 
    2590    930.32159   -6861.4669   -6757.6881     2652.202    21491.623    2.0892817 
    2600     931.3506   -6860.2975   -6756.4039    2567.8564    21512.154    2.1122674 
    2610    950.72193   -6861.2133   -6755.1588    2064.2225    21535.474    2.1378534 
    2620    946.12576   -6859.5035   -6753.9618     1801.895    21561.048    2.1702474 
    2630    946.79961   -6858.4553   -6752.8384    1573.1169    21588.485    2.2115708 
    2640    934.57872   -6856.0163   -6751.7627    1277.0223     21617.49    2.2581691 
    2650    948.30829   -6856.5032   -6750.7179    534.11092    21647.619    2.3040888 
    2660    957.36304   -6856.4871   -6749.6918   -190.92251    21677.976    2.3472552 
    2670    947.92662   -6854.4676   -6748.7249    73.202808    21707.784    2.3872831 
    2680    956.59581   -6854.5299   -6747.8202    600.73629    21737.287    2.4228815 
    2690    988.94147   -6857.2863   -6746.9683    696.16258    21767.092    2.4559758 
    2700     993.6659   -6857.0663   -6746.2214     897.5132    21797.389    2.4919786 
    2710    968.71448   -6853.6788   -6745.6172    1076.4506    21828.405    2.5331258 
    2720    957.81104   -6851.9519   -6745.1066    1242.8383     21860.35    2.5770572 
    2730    936.16331   -6849.0823   -6744.6519    1458.4106     21893.45    2.6217896 
    2740    946.87476   -6849.8331   -6744.2078    610.19556    21927.802    2.6647228 
    2750    949.83191   -6849.7103   -6743.7551   -251.05632    21962.454    2.7043255 
    2760     944.3863   -6848.6639   -6743.3162   -998.75684    21996.295    2.7433423 
    2770    938.06963   -6847.5296   -6742.8865     -1289.25    22028.406    2.7847573 
    2780    923.62531   -6845.4978    -6742.466   -716.37001    22058.493    2.8261168 
    2790    906.96056   -6843.2013   -6742.0285   -269.32596    22087.194    2.8642283 
    2800    932.09825   -6845.5158   -6741.5388   -447.45062    22115.044    2.8979947 
    2810    960.72175    -6848.184    -6741.014   -819.91679     22141.88    2.9312661 
    2820    956.99946   -6847.2762   -6740.5215   -950.37817    22167.286    2.9681799 
    2830    960.99064   -6847.2823   -6740.0824   -1023.9349    22191.103    3.0074965 
    2840    979.61819   -6848.9775   -6739.6996   -1270.5492    22213.235    3.0475192 
    2850    971.54624    -6847.776   -6739.3985   -1403.3157     22233.41    3.0904518 
    2860    963.92535   -6846.7165   -6739.1892    -1484.232    22251.475    3.1358628 
    2870     964.4388   -6846.6205   -6739.0359   -1638.1074     22267.34    3.1823446 
    2880    967.62652   -6846.8927   -6738.9525   -1752.7547    22280.852    3.2282695 
    2890    970.51609   -6847.1896    -6738.927    -2108.989    22291.856     3.269642 
    2900     987.4655   -6849.1425   -6738.9892   -2387.6904     22299.95    3.3078133 
    2910    993.04322   -6849.9451   -6739.1696   -2584.9211    22304.799    3.3462638 
    2920    974.56329   -6848.1977   -6739.4837   -2744.4239    22306.169    3.3858716 
    2930    942.19215   -6844.9796   -6739.8767   -2445.1276    22303.957    3.4279021 
    2940    934.67862   -6844.5497   -6740.2849   -2117.6576    22298.536    3.4695771 
    2950    951.22112   -6846.8047   -6740.6946   -2025.6556    22290.331     3.504897 
    2960    962.65792   -6848.5256   -6741.1397   -1517.6512    22279.591    3.5312782 
    2970    956.80755   -6848.3661   -6741.6328    -392.2662    22267.052    3.5515304 
    2980    946.10155   -6847.6878   -6742.1488    696.24138     22254.13    3.5688362 
    2990    961.87959   -6849.9826   -6742.6834    1064.5941    22242.195    3.5851328 
    3000    992.41617   -6854.0087   -6743.3032    470.08999    22231.685    3.6070571 
    3010    979.95319    -6853.354   -6744.0387   -125.96697    22221.909    3.6391744 
    3020    963.15774    -6852.307   -6744.8653    -405.9505    22212.101    3.6768645 
    3030    932.90329   -6849.7699   -6745.7031   -216.64654    22201.919     3.716039 
    3040    919.67144   -6849.0933   -6746.5025     57.28562    22191.542    3.7547721 
    3050    912.99589    -6849.079    -6747.233    420.77229    22181.357     3.791818 
    3060    928.20935   -6851.4626   -6747.9194    496.39775    22171.784    3.8271665 
    3070    933.50495   -6852.7089   -6748.5751    523.43495    22162.959    3.8637003 
    3080    945.02462   -6854.6503   -6749.2314    585.90181    22154.904     3.901229 
    3090    936.65175   -6854.3678   -6749.8829     1023.314    22147.744    3.9354957 
    3100    944.33232   -6855.8857    -6750.544    831.52555    22141.882    3.9677893 
    3110    931.45692   -6855.1108   -6751.2053    734.14929    22137.192    4.0079221 
    3120    927.20653   -6855.2833    -6751.852    347.11294    22133.443    4.0577474 
    3130    925.64305   -6855.7226   -6752.4657    261.41616    22130.223    4.1115537 
    3140    931.90819   -6857.0174   -6753.0617    39.086659    22127.328    4.1597375 
    3150    902.04639   -6854.2319   -6753.6072    370.69988     22124.59    4.2003244 
    3160    892.91503    -6853.675    -6754.069     666.6857    22122.342    4.2318763 
    3170    902.40542    -6855.101   -6754.4363    1015.3961     22121.01    4.2564133 
    3180    891.44697   -6854.1624   -6754.7201    1480.0505     22121.04    4.2820099 
    3190    870.79424   -6852.0422   -6754.9037    1995.2849     22123.03    4.3139739 
    3200    863.80002   -6851.3152    -6754.957    2009.4472    22127.584    4.3483252 
    3210    861.62416   -6850.9784   -6754.8629    1641.8045    22134.733     4.380651 
    3220    860.02853   -6850.5486   -6754.6111    1021.8734     22143.98    4.4123805 
    3230    881.90713   -6852.5769   -6754.1988     292.0736    22154.526    4.4435863 
    3240    894.32039   -6853.4149   -6753.6521     44.67296    22165.481    4.4717372 
    3250    893.65551   -6852.7034   -6753.0148    302.75042    22176.525    4.4955288 
    3260    893.73149   -6851.9899   -6752.2928    653.55048    22187.982    4.5169332 
    3270    913.20046   -6853.3646   -6751.4958    353.14839    22200.208    4.5382256 
    3280    917.19051   -6852.9473   -6750.6333    289.26223    22212.941    4.5617781 
    3290    917.39351   -6852.0827   -6749.7461   -5.6872191    22226.007    4.5911302 
    3300    925.45018   -6852.0688   -6748.8334   -880.35829    22238.995    4.6262691 
    3310    935.66975   -6852.2809   -6747.9055     -1755.18    22250.819    4.6643511 
    3320     928.7312   -6850.5869   -6746.9855   -2184.7483    22260.361    4.7080869 
    3330    924.71453   -6849.2351   -6746.0818   -2345.2512    22267.023    4.7537807 
    3340    928.26691   -6848.7272   -6745.1776   -2472.6748    22270.586    4.7901241 
    3350    940.25027   -6849.1647   -6744.2784    -2689.036    22270.872    4.8143875 
    3360    938.12617   -6848.0522   -6743.4028   -2593.8067    22267.635    4.8350337 
    3370    944.36768   -6847.9028   -6742.5572   -2199.1033    22260.983    4.8630711 
    3380    959.01913   -6848.7212   -6741.7411   -1622.3586    22251.438    4.9031976 
    3390     954.3338   -6847.4325   -6740.9751    -1238.255    22239.741    4.9538456 
    3400    967.67848   -6848.2149    -6740.269   -1448.3523    22226.351    5.0065825 
    3410    987.11615   -6849.7478   -6739.6335    -1765.144    22211.054    5.0530565 
    3420    998.05088   -6850.4558   -6739.1217   -2430.2881    22193.375    5.0930612 
    3430    983.34718   -6848.4524   -6738.7586   -2707.8912    22172.552    5.1290955 
    3440    946.88367   -6844.1319   -6738.5056   -2074.7265    22148.267    5.1619999 
    3450    948.43881    -6844.087   -6738.2872   -1563.6817    22121.238    5.1939699 
    3460    961.30128   -6845.3225   -6738.0879   -1259.2405     22092.16    5.2265503 
    3470     929.3186   -6841.5798   -6737.9129   -477.03777    22061.545    5.2597233 
    3480    937.51149   -6842.3141   -6737.7333   -199.01637    22030.266    5.2873357 
    3490    962.14196   -6844.8729   -6737.5445    2.3254587    21998.758    5.3095458 
    3500    968.89475   -6845.4757    -6737.394    731.47718    21967.365    5.3318229 
    3510     977.8068   -6846.3819    -6737.306    1475.6763    21936.981    5.3521595 
    3520    966.68805   -6845.1249   -6737.2894    1917.9657    21908.541    5.3689886 
    3530    949.96776   -6843.3093    -6737.339    2361.4302    21882.629    5.3850907 
    3540     940.6618   -6842.3403   -6737.4081    3207.0789    21859.877    5.4060173 
    3550    961.06409   -6844.7096   -6737.5015    3315.8521    21841.186    5.4335499 
    3560    970.66582   -6845.9387   -6737.6594    3384.3043    21826.774    5.4655763 
    3570    958.67745   -6844.8377   -6737.8958    3544.8145    21816.708     5.502874 
    3580    963.52535   -6845.6868   -6738.2041    3391.2603    21811.136    5.5444884 
    3590    966.67688    -6846.413   -6738.5787     3455.825    21809.948    5.5874595 
    3600    967.93171   -6847.0016   -6739.0274    3806.8007    21813.214    5.6303961 
    3610    978.94045   -6848.7679   -6739.5657    3376.1632    21821.252    5.6782229 
    3620     982.3941   -6849.7902   -6740.2027    2484.3542    21833.574    5.7351174 
    3630    973.19607   -6849.4934    -6740.932    1882.8889    21849.114    5.7978502 
    3640    946.80051   -6847.3303   -6741.7133    1500.7891    21867.099    5.8609741 
    3650    920.71641   -6845.1868   -6742.4795    1188.6445    21887.034    5.9187451 
    3660    906.44264   -6844.3002   -6743.1852    981.65218    21908.535    5.9644283 
    3670    907.54691    -6845.046   -6743.8078    859.70272     21931.34    6.0005111 
    3680    925.79832   -6847.6481   -6744.3739    661.23246    21955.261    6.0392977 
    3690    913.92737    -6846.841   -6744.8911    865.80393    21980.093    6.0850542 
    3700    904.98849   -6846.3115   -6745.3586    1055.9451    22006.043    6.1328446 
    3710    908.68666   -6847.1211   -6745.7558    898.77313    22033.329    6.1797421 
    3720    914.47265   -6848.0953   -6746.0845     812.4795    22061.791    6.2235247 
    3730    920.12168   -6849.0033   -6746.3624    633.63692    22091.272    6.2634201 
    3740    919.87832   -6849.2122   -6746.5984    359.13888    22121.532    6.3040356 
    3750    923.68345   -6849.8409   -6746.8026    157.49139    22152.235    6.3508754 
    3760    920.37511   -6849.6494   -6746.9801     35.87801    22183.073    6.4061956 
    3770    902.27558   -6847.7738   -6747.1236    547.31921    22213.957    6.4685088 
    3780    889.85996   -6846.4667   -6747.2015    884.92054    22245.452    6.5336492 
    3790    883.52757   -6845.7267   -6747.1679    368.10841    22277.897    6.6003432 
    3800    905.01799   -6847.9736   -6747.0175   -715.59939     22310.63    6.6714361 
    3810    907.28802   -6847.9714   -6746.7621   -1616.2202    22342.294    6.7528903 
    3820    905.25135   -6847.4141    -6746.432   -2277.2665     22371.65    6.8408492 
    3830    899.61073   -6846.3684   -6746.0154   -2399.8947    22397.843    6.9235433 
    3840    905.53155   -6846.5344    -6745.521   -2425.6422    22420.653    6.9938142 
    3850    929.23195   -6848.6219   -6744.9647   -2673.7861    22440.004    7.0566426 
    3860    929.35424   -6848.0635   -6744.3927   -2161.0647    22455.718    7.1209695 
    3870    904.57577   -6844.7247    -6743.818     -1502.83    22468.413    7.1846212 
    3880    897.86488   -6843.3661   -6743.2079   -1500.6068    22478.882    7.2414521 
    3890    915.18864   -6844.6142   -6742.5236   -2159.0994    22487.153    7.2896513 
    3900    935.44032   -6846.1296   -6741.7798   -2851.5913    22492.439    7.3341148 
    3910    929.69988   -6844.7473   -6741.0379   -3012.9521    22493.911    7.3818135 
    3920    922.57149   -6843.2303   -6740.3161   -2840.1173    22491.356    7.4304828 
    3930    941.84594   -6844.6499   -6739.5856   -2548.9535    22485.036    7.4735465 
    3940    979.96233   -6848.1872   -6738.8709   -2633.9232    22475.314    7.5079715 
    3950    966.19299   -6846.0089   -6738.2286   -2485.1639    22462.186    7.5402875 
    3960    962.03799   -6845.0014   -6737.6846   -2282.7424    22445.861    7.5776841 
    3970    963.49259    -6844.692   -6737.2129   -1986.3882    22426.696    7.6225796 
    3980      948.697   -6842.6369   -6736.8083   -1508.6472    22405.134    7.6673719 
    3990    951.51363   -6842.5874   -6736.4446   -1213.3439     22381.83    7.6987608 
    4000    963.05128    -6843.547   -6736.1172   -928.93215    22357.226    7.7144715 
    4010    938.03022   -6840.4586   -6735.8199    315.00914    22331.857    7.7215714 
    4020    924.25043   -6838.6118   -6735.5102    1242.2213    22307.246    7.7236854 
    4030    949.51808   -6841.0889   -6735.1688    1147.7634    22284.555     7.722063 
    4040    977.51419   -6843.8869   -6734.8438    882.55165    22263.743    7.7253741 
    4050    978.39541   -6843.7375    -6734.596    669.24103    22244.458    7.7388728 
    4060     973.1503   -6843.0089   -6734.4525    369.67345    22226.348    7.7608244 
    4070    984.75224   -6844.2554   -6734.4048     278.5014     22209.06    7.7847885 
    4080    973.69707   -6843.0725   -6734.4551    934.61318    22192.536    7.8049014 
    4090    948.66042   -6840.3844   -6734.5599    1739.3136    22177.567    7.8178685 
    4100    977.36451   -6843.7495    -6734.723    1041.3765    22164.947    7.8240663 
    4110    974.33718    -6843.661   -6734.9722    209.78213    22153.902    7.8312865 
    4120    960.10851   -6842.4132   -6735.3117   -30.613734    22143.422    7.8421345 
    4130    944.57024   -6841.0754   -6735.7072    56.873881    22133.133    7.8581848 
    4140    915.71478   -6838.2437   -6736.0944    413.94225    22123.153    7.8785897 
    4150    909.06053   -6837.8326   -6736.4255    276.86386     22113.83    7.8987324 
    4160    928.32194   -6840.2615   -6736.7058   -138.61548    22104.996    7.9156938 
    4170    952.31676   -6843.2146   -6736.9822   -513.36637     22096.15    7.9339694 
    4180    944.02839   -6842.5916   -6737.2838   -594.84621    22086.835    7.9594127 
    4190    935.41742   -6841.9481   -6737.6009   -466.72735    22076.949    7.9913511 
    4200    934.97108   -6842.2156   -6737.9182    104.41368    22066.692     8.026804 
    4210    940.47367   -6843.1435   -6738.2322    683.57366    22056.753    8.0597294 
    4220    939.37487   -6843.3409   -6738.5522    1129.8297     22047.87    8.0884094 
    4230     932.2618   -6842.8661   -6738.8708    1496.9325    22040.602    8.1134439 
    4240    936.33479   -6843.6403   -6739.1907    1327.0426    22035.335    8.1291442 
    4250    938.29276   -6844.1785   -6739.5105    684.39559    22031.813    8.1377593 
    4260     944.4591   -6845.2025   -6739.8467    319.62541    22029.277    8.1455188 
    4270    929.63126   -6843.8872   -6740.1854    147.83968    22027.218    8.1523277 
    4280    928.50333   -6844.0862   -6740.5102     272.4199    22025.427    8.1558134 
    4290    935.77158   -6845.2102   -6740.8235    692.11124    22024.045    8.1625161 
    4300    919.94446   -6843.7413   -6741.1201    1223.9938    22023.594    8.1806771 
    4310     925.3409   -6844.6185   -6741.3954    1417.3439     22024.68    8.2101111 
    4320    927.45003   -6845.1085   -6741.6501    1434.4853    22027.564    8.2439093 
    4330    912.34431    -6843.643   -6741.8697    1136.1441     22032.24    8.2729553 
    4340    939.14369   -6846.8255   -6742.0626    311.23052    22038.259    8.2969264 
    4350    937.06708    -6846.777   -6742.2457    130.41331     22044.69    8.3275003 
    4360    914.78796   -6844.4733   -6742.4273    199.59826    22051.222    8.3733072 
    4370    888.52458   -6841.6665   -6742.5503    357.78229    22057.968    8.4297148 
    4380    895.86323   -6842.5185   -6742.5836   -29.148822    22065.035    8.4838402 
    4390    916.50106   -6844.7607   -6742.5237   -634.87604    22071.971    8.5329044 
    4400    932.34963   -6846.4237   -6742.4187   -948.26826    22078.037    8.5726069 
    4410    925.25386   -6845.4962   -6742.2827   -673.41133    22082.885    8.6008535 
    4420    938.98159   -6846.8797   -6742.1349   -843.86319    22086.736    8.6281417 
    4430    926.39963   -6845.3093   -6741.9681   -882.01445    22089.495    8.6650207 
    4440     939.5352   -6846.5985   -6741.7919   -1252.1181    22091.028    8.7045922 
    4450    950.12477   -6847.5965   -6741.6087   -1011.8994    22091.008    8.7385204 
    4460    941.34254   -6846.4577   -6741.4495   -341.67449    22089.728    8.7659372 
    4470    918.68939   -6843.7684   -6741.2872    218.71325     22088.01    8.7872031 
    4480    916.97113   -6843.3796   -6741.0901    586.40437    22086.582    8.8082205 
    4490    930.09439   -6844.6001   -6740.8467    772.22519    22085.921    8.8392685 
    4500     923.3866   -6843.5763   -6740.5711    875.66224    22086.277    8.8811765 
    4510    920.88818   -6842.9914   -6740.2649    751.38569    22087.756    8.9253274 
    4520    937.56473   -6844.5055   -6739.9187    201.86196    22090.152    8.9703688 
    4530    949.77367   -6845.5071   -6739.5584   -320.62078    22092.804    9.0179496 
    4540    937.88597   -6843.8305   -6739.2079   -559.20686    22095.081    9.0625226 
    4550    950.20025   -6844.8651   -6738.8689    -1104.138    22096.591    9.0973556 
    4560    947.79696    -6844.274   -6738.5459    -1448.297    22096.685    9.1289484 
    4570    927.44928   -6841.6994    -6738.241   -1015.6626        22095    9.1623154 
    4580    929.29161    -6841.586   -6737.9221   -347.79803    22092.021     9.194886 
    4590    949.07113   -6843.4514   -6737.5811    146.02714    22088.582    9.2263577 
    4600     954.9278   -6843.7728   -6737.2492    338.45122    22085.327    9.2583138 
    4610    946.22123   -6842.5036   -6736.9512    531.46057    22082.525    9.2934332 
    4620    939.78622   -6841.5028   -6736.6683    1148.0852    22080.486    9.3305342 
    4630    951.24158   -6842.5046   -6736.3921    1484.6705    22079.918     9.361822 
    4640    952.21216   -6842.3587    -6736.138     1546.932    22081.247    9.3827532 
    4650    932.00925   -6839.8695   -6735.9024    1872.4591    22084.637    9.4004743 
    4660    937.87096   -6840.2949    -6735.674    1853.9594    22090.419    9.4233715 
    4670    927.91942   -6838.9409   -6735.4301    2156.7875    22098.669    9.4518868 
    4680    931.11852   -6839.0396   -6735.1719    2127.9526    22109.693    9.4810664 
    4690    955.85658   -6841.5198   -6734.8926     1532.169    22123.439     9.506414 
    4700    956.68358   -6841.3497   -6734.6302    1208.6367    22139.237    9.5294013 
    4710    947.16728   -6840.0626   -6734.4046    889.93386    22156.615     9.556042 
    4720    961.23334   -6841.4188   -6734.1918    425.57317     22175.14    9.5865628 
    4730    976.51303   -6842.9445    -6734.013    160.58818    22194.241    9.6210009 
    4740    983.63271   -6843.6383   -6733.9126    186.85972    22213.582    9.6620833 
    4750    986.19628   -6843.9306    -6733.919     246.5931    22233.178    9.7025876 
    4760     975.1483   -6842.8203    -6734.041    566.53147    22253.144    9.7362709 
    4770    967.79717   -6842.2288   -6734.2696    676.56347    22273.828    9.7716458 
    4780    960.60861   -6841.7368   -6734.5794    319.23398    22295.365     9.816359 
    4790    953.90709   -6841.3705   -6734.9607   -139.96982    22317.315    9.8749698 
    4800    940.74871   -6840.3206   -6735.3786   -626.73596    22339.078    9.9470088 
    4810    948.25537   -6841.6207   -6735.8414   -1115.2868    22360.005    10.020376 
    4820    913.41108   -6838.2132   -6736.3208   -1077.6862    22379.502    10.084667 
    4830    893.09855   -6836.3905    -6736.764   -1134.4348    22397.523    10.133667 
    4840    901.42577   -6837.6925   -6737.1371   -1365.4779    22413.985    10.168112 
    4850     912.6672   -6839.2629   -6737.4535   -1732.1717    22428.579    10.198107 
    4860    916.70308   -6839.9876    -6737.728   -2222.2341    22440.811    10.230604 
    4870    917.79138   -6840.3495   -6737.9685   -2626.4087    22450.067    10.264756 
    4880    920.12393    -6840.835   -6738.1938   -3052.6803    22455.751    10.300003 
    4890    893.78693    -6838.083   -6738.3798   -2705.7984    22457.419    10.337338 
    4900    905.66903   -6839.5466   -6738.5178   -2312.6475    22455.414    10.372348 
    4910    912.05564   -6840.3306   -6738.5894    -1786.709    22450.313    10.405568 
    4920    906.43326   -6839.7171   -6738.6031   -1322.7956    22442.803    10.441843 
    4930    898.35423   -6838.7596   -6738.5469   -1252.5937     22433.47    10.478211 
    4940    897.78502   -6838.5523   -6738.4031    -1270.512    22422.471    10.505776 
    4950     901.6522   -6838.7236    -6738.143   -1058.6905    22409.824    10.520123 
    4960    920.49365   -6840.4324   -6737.7499   -1052.8386    22395.752    10.529761 
    4970     934.8286    -6841.516   -6737.2345   -898.03954    22380.334    10.547292 
    4980    940.46411   -6841.5351   -6736.6249    -760.3807    22363.752    10.579208 
    4990    951.69716   -6842.1066   -6735.9433   -539.36847     22346.23     10.62068 
    5000    962.04299   -6842.5323    -6735.215   -84.932421    22328.096    10.660112 
Loop time of 2660.16 on 16 procs for 3000 steps with 864 atoms

Performance: 0.097 ns/day, 246.311 hours/ns, 1.128 timesteps/s
95.9% CPU use with 16 MPI tasks x 1 OpenMP threads

MPI task timing breakdown:
Section |  min time  |  avg time  |  max time  |%varavg| %total
---------------------------------------------------------------
Pair    | 1636.2     | 2092.2     | 2415       | 517.2 | 78.65
Bond    | 0.00042892 | 0.00099446 | 0.0017312  |   0.0 |  0.00
Neigh   | 0.031431   | 0.047511   | 0.13522    |  10.9 |  0.00
Comm    | 83.562     | 354.06     | 853.24     |1226.4 | 13.31
Output  | 0.57031    | 0.59854    | 1.02       |  14.1 |  0.02
Modify  | 117.18     | 213.26     | 306.04     | 476.3 |  8.02
Other   |            | 0.01721    |            |       |  0.00

Nlocal:        54.0000 ave          69 max          40 min
Histogram: 1 2 1 3 0 1 4 3 0 1
Nghost:        469.750 ave         527 max         426 min
Histogram: 4 3 0 2 0 0 1 3 2 1
Neighs:         0.00000 ave           0 max           0 min
Histogram: 16 0 0 0 0 0 0 0 0 0
FullNghs:      2107.50 ave        3147 max        1285 min
Histogram: 3 1 3 0 1 2 2 3 0 1

Total # of neighbors = 33720
Ave neighs/atom = 39.027778
Ave special neighs/atom = 0.0000000
Neighbor list builds = 300
Dangerous builds = 300
Setting up Verlet run ...
  Unit style    : metal
  Current step  : 5000
  Time step     : 0.001
Per MPI rank memory allocation (min/avg/max) = 8.898 | 8.906 | 8.914 Mbytes
Step Temp PotEng TotEng Press Volume c_msd[4] 
    5000    962.04299   -6842.5323    -6735.215   -84.932421    22328.096    10.660112 
    5010    969.81819   -6843.4351   -6735.2504      120.773    22328.088    10.717512 
    5020    946.35458   -6840.9116   -6735.3443    314.71705    22328.249    10.762415 
    5030    931.57924   -6839.3842   -6735.4651    156.59602    22328.794    10.797265 
    5040    938.01007   -6840.2229   -6735.5865    385.42982    22329.621    10.828088 
    5050    924.78389   -6838.8601   -6735.6991    826.36377    22330.988    10.858321 
    5060    927.06591   -6839.2112   -6735.7956    738.97394    22333.414    10.890006 
    5070    950.46505     -6841.91   -6735.8842    203.91849    22336.784    10.925184 
    5080    957.58163   -6842.8241   -6736.0044   -159.81046    22340.445    10.960931 
    5090    935.41896   -6840.5192   -6736.1718    184.87297    22344.001    10.991265 
    5100    917.99846   -6838.7586   -6736.3545    452.52354     22347.81    11.018319 
    5110     919.4635   -6839.0867   -6736.5191    344.84775    22352.221    11.049787 
    5120    927.44968   -6840.1227   -6736.6643   -102.38649     22357.08    11.093647 
    5130      931.715   -6840.7434   -6736.8092   -559.34784    22361.825    11.150404 
    5140    932.42979   -6840.9816   -6736.9677    -574.3171    22365.915    11.210741 
    5150    931.68892   -6841.0762   -6737.1449   -502.67575     22369.25    11.263731 
    5160    925.27286   -6840.5601   -6737.3445   -350.19548    22371.949    11.307495 
    5170    919.88847   -6840.1692   -6737.5543   -404.01198    22374.164    11.350936 
    5180    915.40862   -6839.8727   -6737.7575   -632.55321     22375.82    11.399245 
    5190     924.4113     -6841.07   -6737.9505   -963.74526    22376.625    11.452014 
    5200    944.89667   -6843.5619   -6738.1573   -1244.6738    22376.144    11.508886 
    5210     951.5519   -6844.5584   -6738.4114   -1432.0075    22373.993    11.565654 
    5220    978.16842   -6847.8835   -6738.7673    -1888.565     22369.87    11.616957 
    5230    988.06122   -6849.4967    -6739.277   -2313.7205    22363.188    11.656408 
    5240    964.84019   -6847.5848   -6739.9554    -2028.791    22353.467    11.681311 
    5250    936.62409   -6845.2203   -6740.7385   -1511.6843    22341.008    11.698638 
    5260    910.20544   -6843.0539   -6741.5191   -918.24452    22326.484    11.721437 
    5270    895.58342   -6842.1434   -6742.2397   -743.76808    22310.587    11.753767 
    5280     883.7349   -6841.4372   -6742.8553   -1071.3442    22293.534    11.790711 
    5290    906.58359    -6844.512   -6743.3812   -1312.5431    22274.981    11.823701 
    5300    908.01236   -6845.1254   -6743.8352   -883.60234    22254.684    11.849919 
    5310    901.07726   -6844.7178   -6744.2013   -177.44401     22233.16    11.869191 
    5320      897.048   -6844.5395   -6744.4725    148.04957    22211.263    11.883642 
    5330    888.46351   -6843.7607   -6744.6513    118.86375     22189.45    11.900039 
    5340    903.89663   -6845.5686   -6744.7375   -428.48478    22167.669    11.928716 
    5350    921.14821   -6847.5036   -6744.7481   -924.95231     22145.28    11.976971 
    5360    916.93601   -6846.9949   -6744.7093   -942.98916    22121.701    12.040804 
    5370    919.94457    -6847.246   -6744.6248   -1282.7901    22096.815    12.099364 
    5380     933.7368   -6848.6763   -6744.5165   -1200.5216    22070.291    12.137853 
    5390    915.45724   -6846.4917    -6744.371   -304.94475    22042.314    12.163876 
    5400    908.02381   -6845.4579   -6744.1664    342.48694    22013.932    12.181119 
    5410    893.82445   -6843.5751   -6743.8676    1090.2052    21986.057    12.193323 
    5420    897.19462   -6843.5348   -6743.4514     1647.559    21959.629    12.203503 
    5430    928.40053   -6846.4855    -6742.921    1992.6431    21935.368    12.214656 
    5440    946.69126   -6847.9264   -6742.3215    2371.6553    21913.752    12.238653 
    5450    966.03771   -6849.4827   -6741.7198    2533.9991    21895.236    12.286377 
    5460    948.10306   -6846.9083    -6741.146    3043.0553    21880.083    12.356021 
    5470    923.29194   -6843.5871   -6740.5925    3540.0074    21868.885    12.429923 
    5480    932.64658   -6844.0524   -6740.0143    3205.7392    21862.178     12.48765 
    5490    957.74061   -6846.2648   -6739.4274    2505.4664    21859.561    12.527702 
    5500    957.58412   -6845.6853   -6738.8653    2642.3965    21860.276    12.563646 
    5510    969.20679   -6846.4806   -6738.3642    2808.7516    21864.373    12.602469 
    5520    982.86647   -6847.5737   -6737.9334    2230.3145    21871.935    12.642348 
    5530    982.43349   -6847.1878   -6737.5959    2220.9092    21882.395    12.687407 
    5540    975.30826   -6846.1607   -6737.3636    2708.1026    21895.702    12.746989 
    5550     965.3503   -6844.9177   -6737.2314    3011.8892    21912.369    12.828133 
    5560    974.81043   -6845.9199   -6737.1783    2707.5345    21932.714    12.925646 
    5570    975.29038   -6846.0038   -6737.2087    2113.8004     21956.35    13.026058 
    5580    955.22974   -6843.8765   -6737.3192    1877.5034    21982.561    13.125867 
    5590    956.48183   -6844.1834   -6737.4864    1310.1864    22010.893    13.229852 
    5600    947.40579   -6843.3605    -6737.676    614.44265    22040.627    13.339092 
    5610    962.11356    -6845.231   -6737.9058   -451.96683    22070.761    13.450102 
    5620    962.58046   -6845.5721   -6738.1948   -1249.0934    22099.941    13.559197 
    5630    932.58398   -6842.5878   -6738.5567   -1307.0665    22127.169    13.656998 
    5640    923.11989   -6841.9474    -6738.972   -1373.5873     22152.29    13.734913 
    5650    938.85667   -6844.1832   -6739.4523   -1905.6112     22175.15    13.803409 
    5660    939.57615    -6844.855   -6740.0439    -2074.671    22195.177     13.87683 
    5670    935.23951    -6845.119   -6740.7916    -2075.509    22212.122    13.957916 
    5680    919.40163   -6844.2349   -6741.6742   -1426.1858    22226.113    14.045477 
    5690    907.88866   -6843.9266   -6742.6502   -1094.0503     22237.91    14.137022 
    5700    898.18197   -6843.8535   -6743.6599   -1000.0626    22248.022     14.23009 
    5710    906.05094   -6845.7275   -6744.6561   -1162.8593    22256.581    14.315733 
    5720    897.53819    -6845.707   -6745.5852   -1264.3461    22263.443    14.392828 
    5730    886.62681   -6845.2865    -6746.382   -1423.2833    22268.484    14.472974 
    5740    884.46763   -6845.6821   -6747.0184   -1666.4151    22271.527    14.558747 
    5750     878.6143    -6845.507   -6747.4963   -1804.8683     22272.32    14.644983 
    5760    871.64692    -6845.036   -6747.8025   -1801.5093    22270.744    14.725762 
    5770    906.02001   -6849.0464   -6747.9785   -1714.8749    22266.866    14.798616 
    5780    910.49763   -6849.6328   -6748.0654    -1384.746    22260.886    14.867833 
    5790    885.15714   -6846.8118   -6748.0712   -1010.9219    22253.274    14.934859 
    5800    882.95301   -6846.4737    -6747.979   -1261.4312    22244.476    14.997752 
    5810    891.83823   -6847.2682   -6747.7823   -1531.7994    22234.259    15.055289 
    5820    894.61063   -6847.2998   -6747.5046   -1318.0652    22222.376    15.108048 
    5830     892.7188   -6846.7435   -6747.1594   -950.94269    22209.132    15.153227 
    5840    896.46153   -6846.7558   -6746.7541   -594.73759    22195.002    15.188003 
    5850    894.03271   -6846.0243   -6746.2936    20.726435    22180.533    15.217144 
    5860    903.58113   -6846.5783   -6745.7825    454.51381    22166.478    15.244885 
    5870    914.32644   -6847.2403   -6745.2458    608.65173    22153.374    15.273381 
    5880    901.37162   -6845.2578   -6744.7084    779.82141    22141.447    15.300619 
    5890     897.8501   -6844.3321   -6744.1756     585.5964    22130.815    15.327946 
    5900    912.70996   -6845.4576   -6743.6434    265.68159    22121.219    15.359927 
    5910    904.81181   -6844.0636   -6743.1305    466.47294    22112.293    15.400665 
    5920    889.43699   -6841.8545   -6742.6365    667.43435    22104.187    15.448455 
    5930    892.34701    -6841.678   -6742.1354    848.18879    22097.166    15.490714 
    5940    927.54675   -6845.1018   -6741.6326    523.76998    22091.343    15.513781 
    5950     934.9138   -6845.4675   -6741.1764    562.84859    22086.398    15.519014 
    5960    914.32636   -6842.7794   -6740.7849    1107.4909    22082.368    15.524339 
    5970    901.29706   -6840.9574   -6740.4164    1592.5223    22079.848     15.54901 
    5980    893.74638   -6839.7212   -6740.0225    1688.9102    22079.414    15.598887 
    5990    923.51587   -6842.6161   -6739.5965    1164.1304    22081.098    15.664776 
    6000    924.39777   -6842.2752   -6739.1573    962.59189    22084.299    15.744957 
    6010    914.34892   -6840.7337   -6738.7368    789.38926    22088.697     15.83129 
    6020    919.25924   -6840.8569   -6738.3121    224.99192    22093.972    15.905282 
    6030     945.6385   -6843.3707   -6737.8833    54.990217    22099.482    15.957424 
    6040    979.42202   -6846.7471   -6737.4911    277.21889    22105.004    15.989004 
    6050    995.77594   -6848.2859   -6737.2056    784.68937    22110.835    16.010656 
    6060    986.24774   -6847.0819   -6737.0645    1245.2431    22117.556     16.03929 
    6070    962.12008   -6844.3727   -6737.0468     1535.384    22125.759     16.09161 
    6080    930.22606   -6840.8528   -6737.0847    1536.3439    22135.794    16.168121 
    6090    913.21474   -6838.9825    -6737.112    1187.0197    22147.629    16.248713 
    6100    902.89516    -6837.803   -6737.0837    948.38198    22160.859    16.323665 
    6110     889.3271    -6836.183   -6736.9773    995.94659    22175.161    16.396305 
    6120    895.81538   -6836.7057   -6736.7761    811.02792    22190.522    16.469985 
    6130    906.63314   -6837.6083    -6736.472     632.4475    22206.768    16.541206 
    6140    939.16084   -6840.8573   -6736.0925   -19.285921    22223.554    16.611188 
    6150    958.74231   -6842.6356   -6735.6865   -440.82702    22240.135    16.688771 
    6160    947.52701    -6840.998   -6735.2999   -794.36394    22255.942    16.778317 
    6170     960.8788   -6842.1258   -6734.9383   -1502.9777    22270.447    16.873168 
    6180      965.476   -6842.3084   -6734.6081   -1568.5948    22282.886    16.956472 
    6190    955.98544   -6840.9789   -6734.3373   -939.44256    22293.182    17.010101 
    6200    932.34166   -6838.1103   -6734.1062    115.66909    22302.195    17.037815 
    6210     921.7311   -6836.6926   -6733.8721    263.23666     22311.16    17.054499 
    6220    925.20107   -6836.8009   -6733.5934   -80.659501    22320.336    17.065403 
    6230    937.53118   -6837.8432   -6733.2602    -419.6327    22329.321    17.069666 
    6240    968.60178   -6840.9532   -6732.9042   -732.39564    22337.654    17.072247 
    6250     965.0685   -6840.2211   -6732.5662   -431.63461    22345.015    17.084341 
    6260    962.15733    -6839.599   -6732.2689   -99.356597    22351.735    17.103866 
    6270    957.95425   -6838.8629   -6732.0016    268.81975     22358.28    17.132763 
    6280     962.3423   -6839.1137    -6731.763    382.90712    22365.072    17.182499 
    6290    970.81856   -6839.8489   -6731.5527    355.50653    22372.303    17.259305 
    6300     963.8576   -6838.8885   -6731.3688    295.57802    22379.955    17.352579 
    6310    955.40258   -6837.7908   -6731.2142    420.12916    22387.967    17.444594 
    6320    956.04425   -6837.7202    -6731.072    715.42109    22396.493     17.53172 
    6330    973.04619   -6839.5027    -6730.958    997.16218    22405.915    17.619513 
    6340    970.47287   -6839.1599   -6730.9022    1006.7833    22416.566    17.709638 
    6350     961.0816     -6838.14   -6730.9299    664.93656    22428.429    17.790335 
    6360     950.4987   -6837.0462   -6731.0166     83.18203    22441.067    17.854891 
    6370    952.69024   -6837.4266   -6731.1526   -566.78261    22453.708     17.90214 
    6380    946.82797   -6836.9531    -6731.333   -761.49005    22465.556    17.935104 
    6390    962.24641    -6838.926   -6731.5859   -983.25859    22476.276    17.962074 
    6400    963.35209   -6839.3954   -6731.9321   -1064.3865    22485.626    17.993328 
    6410    951.79154   -6838.5579   -6732.3841   -1300.0127    22493.459    18.036017 
    6420    931.89636   -6836.8557   -6732.9012   -1574.8953    22499.466    18.086618 
    6430    938.92731   -6838.1961   -6733.4573   -2008.3162    22503.267    18.139541 
    6440    936.57743   -6838.5189   -6734.0423   -2385.7392     22504.34    18.193026 
    6450    916.49546   -6836.8613   -6734.6249   -2410.0043     22502.23    18.249285 
    6460    918.44809    -6837.644   -6735.1897   -2092.7686     22496.92    18.301439 
    6470    915.91836   -6837.8923   -6735.7202   -1790.3105     22488.85     18.34025 
    6480    925.50034   -6839.4606   -6736.2196   -2351.9264    22478.327    18.368389 
    6490    922.91664   -6839.6593   -6736.7066   -3133.2427    22464.706    18.390323 
    6500    892.95599   -6836.7597   -6737.1491   -3471.9017    22447.067    18.400465 
    6510    880.62919   -6835.7375    -6737.502   -3713.8615     22424.96    18.387974 
    6520    895.06586   -6837.6031   -6737.7571   -3722.1375    22398.137    18.352741 
    6530    908.20306   -6839.2476   -6737.9361    -3365.786    22366.662    18.302478 
    6540    915.82956   -6840.2181    -6738.056   -2833.9014    22331.091    18.242924 
    6550    928.24607   -6841.6777   -6738.1304   -2298.4418    22292.183    18.181393 
    6560    933.57375   -6842.3048   -6738.1633   -1130.9117    22250.817    18.126784 
    6570    929.76209   -6841.8692   -6738.1528    202.19097    22208.524    18.076092 
    6580    936.10826     -6842.52   -6738.0957    975.36194    22167.011    18.022875 
    6590    947.73008   -6843.7531   -6738.0324    1142.9114    22127.307    17.974179 
    6600    929.86014   -6841.7029   -6737.9756    1202.3355    22089.659    17.945199 
    6610    912.62378   -6839.6983   -6737.8938    1408.0803    22054.154    17.943531 
    6620    929.55941   -6841.4647   -6737.7709    1520.8055     22020.98    17.961878 
    6630    913.24065    -6839.469   -6737.5956    2377.1964    21990.384     17.99536 
    6640    889.40618   -6836.5691   -6737.3545    3135.0794    21963.289    18.039065 
    6650    895.98942   -6836.9492   -6737.0002    3380.0518    21940.568    18.075947 
    6660    903.35264   -6837.2803     -6736.51     3547.972     21922.51    18.093005 
    6670    933.95213   -6840.0786   -6735.8949    3657.7784    21909.232    18.100791 
    6680    969.26191    -6843.322   -6735.1993    3558.9262    21900.795    18.112127 
    6690     980.9473   -6843.9454   -6734.5192    3169.8066     21896.98    18.128016 
    6700    957.84844   -6840.7501   -6733.9007    3378.9566    21897.363    18.157668 
    6710    950.69358   -6839.3826   -6733.3313    3297.1678    21902.026    18.205581 
    6720    964.23254    -6840.339   -6732.7774    2912.4983    21910.837    18.268109 
    6730     972.7634   -6840.7698   -6732.2565    2690.0642    21923.325    18.340594 
    6740    995.34616   -6842.8406   -6731.8082    2613.1636    21939.149    18.420906 
    6750    987.66901   -6841.6509   -6731.4749    3038.1705    21958.232    18.506015 
    6760    963.47399   -6838.7338   -6731.2568    3184.6565    21981.009    18.580965 
    6770    962.19998   -6838.4431   -6731.1082    2463.1204    22007.574    18.638816 
    6780    963.46024   -6838.4739   -6730.9985    2006.6543    22037.115    18.694357 
    6790    973.42131    -6839.532   -6730.9453    1772.5006    22069.003    18.764692 
    6800    963.52243   -6838.4325   -6730.9502     1220.631    22102.856     18.85669 
    6810    973.45878   -6839.6157   -6731.0249    670.48619    22137.963    18.964439 
    6820    971.00531   -6839.4916   -6731.1745    631.90177    22173.672    19.077018 
    6830    983.89383   -6841.1913   -6731.4365    132.72025    22209.776    19.188603 
    6840    987.33637   -6841.9777   -6731.8388   -67.193752    22245.724    19.289368 
    6850    983.33923   -6842.1237   -6732.4307   -235.63679    22281.167    19.377375 
    6860     958.4747   -6840.1138   -6733.1945    -714.2913    22315.844    19.453659 
    6870    927.60846   -6837.5565   -6734.0804   -1048.0283    22349.176    19.521803 
    6880    910.39775   -6836.5741   -6735.0179    -1295.518    22380.704    19.587366 
    6890    914.92928   -6837.9973   -6735.9356   -2143.1222    22410.016    19.651549 
    6900    933.80038   -6840.9979   -6736.8311   -3103.1646     22436.07    19.719809 
    6910    914.68704   -6839.7008   -6737.6661   -3554.7552    22457.664    19.797537 
    6920     895.2781   -6838.2574   -6738.3878   -3347.2515    22474.279    19.875895 
    6930    876.63416   -6836.7329   -6738.9431   -2951.1867    22486.199    19.941867 
    6940    875.08097   -6836.9332   -6739.3166   -2837.5941     22493.96    19.994956 
    6950    875.29585   -6837.1605   -6739.5199   -2908.6636     22497.78    20.040674 
    6960    868.55953   -6836.4638   -6739.5746   -2684.8409    22497.676    20.081254 
    6970    879.69859   -6837.6379   -6739.5062   -2322.3185     22493.98    20.111894 
    6980    889.48671   -6838.5573   -6739.3337   -2224.8003    22487.171    20.129047 
    6990    906.61539    -6840.232   -6739.0977   -2287.6173     22477.44    20.140918 
    7000    913.95862   -6840.7752   -6738.8217   -2208.4487    22464.781     20.15871 
    7010    922.31273   -6841.4143    -6738.529   -2078.8113     22449.31    20.183985 
    7020    941.88889   -6843.3076   -6738.2385   -1856.2708    22431.249    20.209786 
    7030    948.38951   -6843.7735   -6737.9792   -1803.4964    22410.889    20.231659 
    7040    934.71643   -6842.0353   -6737.7663   -1591.5551    22388.397    20.246399 
    7050    914.73322   -6839.6125   -6737.5726   -1350.4953    22364.048    20.254223 
    7060     903.2993   -6838.1148   -6737.3504   -1147.0093    22338.212    20.261189 
    7070    920.02982   -6839.7249   -6737.0941   -1323.7475      22311.1    20.270172 
    7080    925.33409   -6840.0304    -6736.808   -1277.6651    22282.601    20.279172 
    7090    950.28827   -6842.5381   -6736.5321   -1402.3966    22252.742    20.279069 
    7100    969.70369   -6844.4714   -6736.2995   -1120.8774    22221.446     20.26466 
    7110    958.01804   -6842.9975   -6736.1291    185.44873    22189.183    20.250204 
    7120    938.99597   -6840.7313   -6735.9849    1592.7337    22157.605    20.250508 
    7130    946.07192   -6841.3769   -6735.8411    2060.7026    22128.415    20.260336 
    7140    964.53218   -6843.3221   -6735.7271     2264.957    22102.265    20.275396 
    7150    961.32308    -6842.903   -6735.6659     2585.322    22079.432     20.28787 
    7160     951.3836   -6841.7888   -6735.6606    2816.7467    22060.245    20.292501 
    7170     937.5614   -6840.2749   -6735.6886    3137.7953    22044.972    20.293626 
    7180    953.92456   -6842.1436   -6735.7319    3121.1452    22033.919    20.300063 
    7190    998.35916   -6847.2096   -6735.8411    2932.4324    22027.015     20.32468 
    7200    992.05962   -6846.7434   -6736.0777    3239.6457     22024.06    20.371001 
    7210    959.18252   -6843.4253    -6736.427    3093.2568    22025.282    20.441391 
    7220      957.157   -6843.6083    -6736.836    2318.7836    22030.428    20.537664 
    7230    952.26392    -6843.517   -6737.2905    1554.9068    22038.531    20.646207 
    7240    934.79967   -6842.0454   -6737.7671    1302.2332    22048.645     20.74964 
    7250    935.98911   -6842.6538   -6738.2428    1039.1566    22060.363    20.830219 
    7260    917.81516   -6841.0838   -6738.7001    1111.0589    22073.389    20.884342 
    7270    912.56644   -6840.9111   -6739.1129    1176.6885    22087.747    20.929074 
    7280    929.39067   -6843.1506   -6739.4757     792.2835    22103.472    20.983496 
    7290    939.45246   -6844.6106   -6739.8132    239.28111    22120.104    21.052092 
    7300    936.84513   -6844.6529   -6740.1465   -320.67339     22136.94    21.119369 
    7310    921.76397    -6843.286   -6740.4619   -494.28637    22153.298    21.174029 
    7320    902.51129   -6841.4092   -6740.7327   -286.47769    22168.933    21.224651 
    7330    895.75301   -6840.8498   -6740.9272   -93.037752    22184.092    21.279606 
    7340    916.94316   -6843.3312   -6741.0448   -474.04958    22198.978    21.338426 
    7350    929.51302   -6844.8043   -6741.1157   -990.65887    22213.126     21.40843 
    7360    910.86512   -6842.7671   -6741.1588   -848.91673    22225.963    21.495727 
    7370    906.90804   -6842.3188   -6741.1518   -863.62991    22237.576    21.595484 
    7380    925.96703   -6844.3766   -6741.0836   -885.07069     22247.98    21.697361 
    7390    932.06719   -6844.9459   -6740.9724   -635.93962    22257.191    21.792744 
    7400    934.75943   -6845.1083   -6740.8345   -484.76353    22265.493    21.883327 
    7410    920.64593   -6843.3477   -6740.6482   -243.86431    22273.131    21.969362 
    7420    915.94254    -6842.548   -6740.3732    -347.0603    22280.362    22.046636 
    7430    919.80699   -6842.5432   -6739.9373   -298.99119    22287.126    22.120424 
    7440    926.72055   -6842.6491    -6739.272    56.415722    22293.511    22.191882 
    7450    951.45644   -6844.4736   -6738.3372   -146.05729    22299.852    22.264078 
    7460    941.32331   -6842.1709   -6737.1648    171.90824    22306.057    22.349554 
    7470    924.58712   -6839.0016   -6735.8625     690.1944    22312.499    22.444957 
    7480    951.44861   -6840.6428   -6734.5073    732.00094    22319.777    22.529187 
    7490    968.76184   -6841.2962   -6733.2294    562.08171    22327.991    22.593995 
    7500    957.76276   -6839.0097   -6732.1698    356.72281    22336.932    22.640474 
    7510    940.58044   -6836.2422   -6731.3191     168.5062    22346.328    22.672668 
    7520    946.73845    -6836.224   -6730.6139    206.94864    22355.961    22.698123 
    7530    952.94892   -6836.3197   -6730.0168    97.858223    22365.844    22.732067 
    7540    970.06933   -6837.7389   -6729.5262    -159.9391    22375.806    22.781187 
    7550    967.62762   -6837.0828   -6729.1425     295.5111     22385.63    22.839242 
    7560     967.9004   -6836.8344   -6728.8637    622.39759    22395.812    22.902473 
    7570    966.58189   -6836.4906    -6728.667    750.60668    22406.803    22.969561 
    7580    965.85221   -6836.2861   -6728.5438    846.28886    22418.779     23.03238 
    7590    968.84072   -6836.5736    -6728.498    1029.8332    22431.864    23.084647 
    7600    944.08817   -6833.8264    -6728.512    1213.0601    22446.303    23.131872 
    7610    945.95345   -6834.0788   -6728.5562    943.16048    22462.305    23.184885 
    7620    967.69922   -6836.5642   -6728.6159    66.832219    22479.469    23.244575 
    7630    982.47027   -6838.3326   -6728.7365   -218.83193    22496.789    23.296685 
    7640    987.34647   -6839.0965   -6728.9565   -644.11367    22513.767    23.332336 
    7650    996.60662   -6840.4804   -6729.3074   -1559.0179     22529.78     23.35825 
    7660     965.6315   -6837.5014   -6729.7838   -1738.1897     22543.75     23.38559 
    7670    941.59657   -6835.3654   -6730.3289   -1493.3568    22555.367     23.40922 
    7680    929.47741   -6834.5647   -6730.8801   -1292.8238     22564.93    23.421469 
    7690     905.4906    -6832.398   -6731.3892   -895.18523    22572.752    23.427081 
    7700    909.04631   -6833.2363   -6731.8308   -717.79577    22579.309    23.435042 
    7710    926.22895   -6835.5402    -6732.218     -691.491    22584.876    23.457466 
    7720    932.67148   -6836.6224   -6732.5815   -676.48205    22589.502    23.505753 
    7730    945.66867   -6838.4333   -6732.9425   -1026.1725    22593.157    23.577508 
    7740    956.34157   -6840.0112   -6733.3299   -1488.0044     22595.39    23.648754 
    7750     939.9644   -6838.6001   -6733.7457   -1478.5577    22595.656    23.698339 
    7760    933.64276   -6838.3236   -6734.1743   -1429.3343    22593.895     23.72474 
    7770    928.65204    -6838.183   -6734.5905   -1527.7983    22590.161    23.735578 
    7780    920.98618   -6837.7224    -6734.985   -1742.1878    22584.343     23.73478 
    7790     916.7488   -6837.6025   -6735.3378   -2019.9512    22576.157      23.7306 
    7800    931.44768   -6839.5733   -6735.6689   -2347.6009    22565.217    23.735796 
    7810    917.22835   -6838.2966   -6735.9784    -2205.877    22551.139    23.747032 
    7820     897.2086   -6836.3327   -6736.2477   -1857.4776    22534.087    23.753395 
    7830     884.9182   -6835.1393   -6736.4254   -1398.5024    22514.541    23.761963 
    7840    904.90028   -6837.4519    -6736.509   -1251.4369    22493.059     23.78535 
    7850     906.9952   -6837.6842   -6736.5075   -1091.3015    22469.922    23.821143 
    7860    923.32519   -6839.4483     -6736.45   -1093.9059    22445.299    23.848156 
    7870    927.91209   -6839.8513   -6736.3413   -664.95425    22419.286    23.853267 
    7880    925.60745   -6839.4374   -6736.1845    104.63289    22392.464    23.842874 
    7890    920.21509   -6838.6259   -6735.9745     649.0507    22365.791     23.82982 
    7900    908.65964   -6837.0546   -6735.6922    1046.1193    22340.039    23.819898 
    7910    927.85519   -6838.8272   -6735.3236    1221.5319    22315.693    23.815689 
    7920    950.22024   -6840.8683   -6734.8698    1773.8479    22293.073    23.819966 
    7930    961.03775   -6841.5745   -6734.3693    2150.1096    22272.835      23.8283 
    7940    969.38991   -6841.9933   -6733.8564    1868.9713    22255.405    23.835253 
    7950    955.29152   -6839.9139   -6733.3497    1568.1588    22240.473    23.847036 
    7960    939.82321   -6837.6661   -6732.8274    1712.0363    22227.696    23.874217 
    7970    951.58643   -6838.4037   -6732.2528    1492.4992    22217.155    23.918611 
    7980    955.11226   -6838.1585   -6731.6143    1096.3454    22208.576    23.967535 
    7990    964.08274    -6838.491   -6730.9462     757.6047    22201.458    24.007926 
    8000    971.52609   -6838.6261   -6730.2509    795.81539    22195.403    24.040609 
    8010    983.13175   -6839.2445   -6729.5747    823.48788    22190.382    24.073194 
    8020    978.36628   -6838.0812   -6728.9429    880.88325    22186.452    24.115991 
    8030    954.85041   -6834.8855   -6728.3705    1005.7298     22183.69    24.165264 
    8040    966.03568   -6835.5902   -6727.8275    757.50666    22182.216    24.212507 
    8050    984.36809   -6837.1205   -6727.3127    331.08165     22181.72    24.255692 
    8060    976.12358   -6835.7555   -6726.8675     389.6008    22181.723    24.297592 
    8070     988.0015   -6836.7254   -6726.5124    731.84719    22182.292     24.34587 
    8080    970.26019   -6834.4715   -6726.2375    1217.0966    22183.853    24.408156 
    8090    952.73472   -6832.3175   -6726.0385    1489.7483    22186.998    24.472427 
    8100    952.65665   -6832.1292   -6725.8589    1200.7542    22192.053     24.52612 
    8110    967.07831   -6833.5821   -6725.7031    1061.3424    22198.741     24.58175 
    8120    973.62787   -6834.2062   -6725.5966     1220.805     22206.89    24.656686 
    8130    979.74007   -6834.8623   -6725.5709    1589.1363    22216.725     24.74916 
    8140    972.23777   -6834.0988   -6725.6442    1836.8478    22228.697    24.847059 
    8150    953.55724   -6832.1795   -6725.8088    1923.0232     22243.18    24.937764 
    8160    972.90087   -6834.5938   -6726.0652    1125.5941    22260.192    25.014084 
    8170    977.85214   -6835.5212   -6726.4403    211.88046    22278.765    25.090179 
    8180     978.0129   -6836.0871   -6726.9883     65.74409    22297.823    25.174563 
    8190    977.23404   -6836.7421   -6727.7302    18.318895    22317.086    25.259769 
    8200    987.70876   -6838.8702   -6728.6898   -65.230994    22336.477    25.335492 
    8210    999.18638   -6841.3359   -6729.8751    86.338658    22355.923    25.404573 
    8220    978.71891   -6840.4014   -6731.2239    517.15652    22375.652    25.481641 
    8230    958.29902   -6839.4547    -6732.555    449.77912    22396.148     25.57776 
    8240    964.61985   -6841.3695   -6733.7647     90.52677    22417.352      25.6901 
    8250    932.73669   -6838.8253   -6734.7771    188.69554    22438.872    25.808333 
    8260    909.90125   -6837.0522   -6735.5514    104.34517    22460.766     25.91287 
    8270    895.03639   -6835.9382   -6736.0956   -450.50459    22482.879    25.992699 
    8280    892.43338   -6835.9995   -6736.4472   -776.51374    22504.548    26.054903 
    8290     910.7842   -6838.2589   -6736.6596   -1017.9039    22525.299    26.120095 
    8300    932.34846   -6840.7954   -6736.7905   -1289.8406    22544.803    26.200466 
    8310     954.6704   -6843.3965   -6736.9016   -1754.1653    22562.652    26.283086 
    8320    954.56221   -6843.5236   -6737.0408   -1859.9988    22578.272     26.35088 
    8330    944.47452    -6842.566   -6737.2085   -2029.3363    22591.432    26.398471 
    8340     948.4372   -6843.1981   -6737.3985   -2562.0961    22601.838    26.433549 
    8350    934.48226     -6841.84   -6737.5971   -2902.2862    22608.828     26.47602 
    8360    928.21809   -6841.3386   -6737.7945   -3053.1194    22611.913    26.527723 
    8370    915.70737   -6840.1219   -6737.9734   -2894.0028    22610.853    26.588643 
    8380    900.21388   -6838.5205   -6738.1003   -2303.3397     22605.87    26.662804 
    8390     908.9492   -6839.5588   -6738.1642   -1789.9233    22597.671    26.739662 
    8400    898.30581   -6838.3604   -6738.1531   -1186.3852    22586.995    26.805121 
    8410    896.02543   -6838.0211   -6738.0681   -1018.4535    22574.563    26.859318 
    8420    891.60644   -6837.3466   -6737.8866   -787.78489    22560.662    26.906266 
    8430    897.52066    -6837.717   -6737.5973   -783.79394    22545.578    26.938398 
    8440    935.22222   -6841.5468   -6737.2214   -1268.2334    22529.266     26.94995 
    8450    933.18331   -6840.9045   -6736.8065   -1043.0082    22511.203    26.951831 
    8460    904.37424   -6837.2442   -6736.3599   -294.97837    22491.635    26.955962 
    8470    924.39892   -6838.9669   -6735.8489    -136.3981     22471.43    26.969279 
    8480    949.20229   -6841.1673   -6735.2823    -122.5209    22450.871    26.992171 
    8490    950.44894   -6840.7437   -6734.7197    355.01695    22430.061    27.010162 
    8500    954.15838   -6840.6228    -6734.185    372.14271    22409.494    27.010702 
    8510    962.12386   -6841.0178   -6733.6914    223.02313     22389.25      27.0084 
    8520    963.91273   -6840.7853   -6733.2594    261.51264    22369.164    27.023837 
    8530    945.56243   -6838.3621   -6732.8832    764.44959     22349.33    27.061674 
    8540    944.44671   -6837.8977   -6732.5432    1150.8445    22330.335    27.108678 
    8550    928.63983   -6835.7989   -6732.2077     1561.356    22312.743    27.158266 
    8560     921.3668   -6834.6416   -6731.8618     1524.502    22297.039     27.20181 
    8570    935.86108   -6835.8798   -6731.4831    1238.8892    22283.217    27.231296 
[...]
   22890    964.26856   -6830.4964   -6722.9308   -1708.3708    22829.816    70.970124 
   22900    956.85442   -6829.8257   -6723.0871   -1961.2694    22823.184    70.980976 
   22910    955.24703   -6829.8587   -6723.2995   -2065.4889    22813.983    70.952994 
   22920     943.7362   -6828.8327   -6723.5575    -1762.643    22802.181    70.879965 
   22930    958.66234   -6830.8265   -6723.8863   -1837.7136    22788.123    70.781284 
   22940    969.81524   -6832.5132   -6724.3289   -1573.2969    22771.884    70.689084 
   22950     974.4635   -6833.6703   -6724.9675   -1470.0045    22753.799    70.611334 
   22960    938.94822   -6830.5709   -6725.8298   -1138.2495    22734.122    70.548406 
   22970    930.72524   -6830.7193   -6726.8955   -950.70964    22713.284    70.512617 
   22980    940.40461   -6833.0827   -6728.1792   -896.68945    22691.578    70.519861 
   22990     937.0831   -6834.1276   -6729.5946   -435.45805    22669.187    70.563296 
   23000    944.61857   -6836.3877   -6731.0141   -77.092602    22646.695    70.622424 
   23010    961.68142   -6839.5972   -6732.3202   -178.67121    22624.539    70.683813 
   23020    950.29607   -6839.4299   -6733.4229   -16.064921    22602.694    70.730798 
   23030    941.68607   -6839.3263   -6734.2798    172.31339    22581.317    70.743137 
   23040    925.64464    -6838.174   -6734.9169    267.73559    22560.643    70.729537 
   23050    902.18035   -6835.9883   -6735.3488    585.33925    22540.837     70.71262 
   23060    933.93666     -6839.82   -6735.6379    748.51557    22522.243    70.714654 
   23070    946.30425   -6841.4213   -6735.8596    1063.3274    22505.099    70.754924 
   23080    933.04538   -6840.1339   -6736.0513    1397.9113    22489.784    70.820641 
   23090    936.13268   -6840.6504   -6736.2234    1197.7283    22476.623    70.887375 
   23100    925.50831   -6839.6195   -6736.3777    870.91812    22465.353    70.953824 
   23110    922.39097   -6839.3977   -6736.5036    448.06626    22455.486     71.01452 
   23120     951.7304   -6842.7828   -6736.6159   -187.17996    22446.391    71.060339 
   23130    940.59693   -6841.6634   -6736.7384   -150.90469    22437.328    71.098994 
   23140    916.94389   -6839.1447   -6736.8582    280.24749    22428.312    71.148737 
   23150     915.6706   -6839.0892   -6736.9448    581.68834    22419.849    71.204468 
   23160    913.87714   -6838.9262   -6736.9818    835.31192    22412.342    71.245539 
   23170    937.52332   -6841.5704   -6736.9883    566.44303    22406.013    71.261027 
   23180     935.6546   -6841.3557    -6736.982    579.12428    22400.583    71.248955 
   23190    915.09185   -6839.0434   -6736.9635    1158.3192    22396.104    71.221742 
   23200    899.61283   -6837.2454   -6736.8922    1548.2465    22393.235    71.192102 
   23210    913.33709   -6838.6367   -6736.7526    1117.9484    22392.362    71.175311 
   23220    913.51396   -6838.4464   -6736.5425      804.978    22393.018     71.18109 
   23230    906.14344   -6837.3498   -6736.2682    644.42591    22394.757    71.209471 
   23240    923.43005   -6838.9316   -6735.9216    235.38872    22397.306    71.247021 
   23250    936.30297   -6839.9639   -6735.5179   -51.823229    22400.151    71.280504 
   23260    925.61204   -6838.3407   -6735.0872   -82.640078    22402.932    71.306299 
   23270    919.91982   -6837.2443   -6734.6258   -527.04737    22405.511    71.322006 
   23280    918.31396   -6836.5553    -6734.116   -1122.4141    22407.347    71.348298 
   23290    931.29697   -6837.4463   -6733.5587   -1566.3012    22407.682    71.402992 
   23300    933.70719   -6837.1336   -6732.9772   -1214.7791    22406.005    71.462522 
   23310    918.30493   -6834.8237   -6732.3854   -103.39111    22402.828    71.490234 
   23320    926.89499   -6835.1711   -6731.7746    403.89196    22399.492    71.478805 
   23330    945.57612   -6836.6303   -6731.1499   -44.041133    22396.617    71.453025 
   23340    940.34897   -6835.4459   -6730.5486   -687.97781    22393.705    71.435778 
   23350    950.27674   -6835.9974   -6729.9926   -1398.9493    22389.904    71.438145 
   23360    957.22679    -6836.265   -6729.4849   -1809.5108    22384.325    71.449193 
   23370    950.92373   -6835.1323   -6729.0554   -1581.4849    22376.459    71.459969 
   23380    931.33005   -6832.5671   -6728.6758    -719.4225    22366.652    71.467366 
   23390    938.54468    -6833.013    -6728.317   -511.84057    22355.904    71.451566 
   23400    950.61275   -6834.0107   -6727.9684   -450.12618    22344.594    71.393265 
   23410    968.15546   -6835.6682    -6727.669   -613.87148    22332.753    71.306922 
   23420    964.78752   -6835.0674   -6727.4439   -356.15789    22320.264     71.23226 
   23430    941.20458   -6832.2723   -6727.2795    387.05453    22307.483    71.194526 
   23440     947.9385   -6832.8826   -6727.1386    771.70395    22295.294    71.199149 
   23450    961.80322   -6834.3138   -6727.0232    576.34578    22284.159    71.237033 
   23460    981.16376   -6836.4178   -6726.9675    633.64234    22273.927    71.289546 
   23470    997.86775   -6838.3273   -6727.0137    657.91543    22264.595    71.338939 
   23480    980.44701   -6836.5641   -6727.1938    935.59824    22256.233    71.387842 
   23490    939.87403   -6832.2958   -6727.4514    1357.2169    22249.199    71.447159 
   23500    953.79377   -6834.1367   -6727.7396    1285.4042    22243.947    71.519044 
   23510    967.47056   -6835.9988    -6728.076    1350.3641    22240.445    71.607595 
   23520    955.96979   -6835.1151   -6728.4752    1395.9941    22238.767    71.696131 
   23530    965.08195   -6836.6128   -6728.9564    452.12133    22238.818    71.751832 
   23540    942.46427    -6834.626   -6729.4927   -164.27867    22239.544    71.781846 
   23550    948.19328   -6835.8404    -6730.068   -815.41725    22240.038    71.818725 
   23560    954.84686   -6837.2094   -6730.6948   -920.25938    22239.517    71.878566 
   23570    934.62113   -6835.6096   -6731.3512    -513.6093    22237.844    71.938336 
   23580    941.25436   -6837.0155   -6732.0171   -444.55328    22235.456    71.984936 
   23590    940.15619   -6837.5603   -6732.6845     -382.915    22232.492    72.022773 
   23600    920.64381   -6836.0246   -6733.3254   -203.00008    22229.051    72.050102 
   23610    913.19383   -6835.7638   -6733.8956   -224.78543    22225.333    72.066192 
   23620    920.16254   -6837.0263   -6734.3808   -265.66727     22221.33    72.081969 
   23630    910.08862   -6836.2995   -6734.7778    15.395443    22217.029    72.113566 
   23640    897.40692    -6835.177   -6735.0699    56.216489     22212.71    72.161794 
   23650    891.36258   -6834.6752   -6735.2424    90.892455    22208.488    72.215282 
   23660    908.80725   -6836.6864   -6735.3076    128.54319    22204.415     72.25249 
   23670    926.60541   -6838.6705   -6735.3063    292.62223    22200.545    72.269961 
   23680    923.38426   -6838.2861   -6735.2812    484.27654    22197.062    72.292903 
   23690     899.0999   -6835.5172   -6735.2212     301.7995    22194.187    72.319296 
   23700    904.97675   -6836.0664   -6735.1149   -579.06548    22191.628    72.334657 
   23710    921.10743   -6837.7177   -6734.9668   -1210.8743    22188.349    72.343141 
   23720    936.14925   -6839.2484   -6734.8195   -1153.0459    22183.565    72.354944 
   23730    934.56856   -6838.9449   -6734.6924   -757.13769    22177.308    72.380919 
   23740     924.2838   -6837.6829   -6734.5776   -306.03327     22170.06    72.418647 
   23750    928.23183   -6837.9998   -6734.4541    218.96765    22162.419    72.452771 
   23760    963.42677   -6841.8089   -6734.3372    586.08329    22155.034    72.467448 
   23770    982.42438   -6843.8715   -6734.2806    1103.7088     22148.44    72.457439 
   23780    954.94431   -6840.8366   -6734.3111    1853.9574    22143.321    72.428704 
   23790    932.04505   -6838.3518   -6734.3808    2088.0685    22140.582     72.38965 
   23800    936.88848   -6838.9553    -6734.444    1459.6075    22140.489    72.360072 
   23810    943.79179   -6839.7871   -6734.5057    994.21601    22142.343    72.363926 
   23820    934.61751   -6838.8271   -6734.5691    747.99779     22145.54    72.409244 
   23830    938.11579   -6839.2869   -6734.6386    556.56854    22149.736    72.486806 
   23840    926.84392   -6838.0952   -6734.7044     950.7394    22154.765    72.571546 
   23850    908.48259   -6836.0951   -6734.7525    1538.0883    22161.096    72.648974 
   23860    900.85889   -6835.2327   -6734.7406    1726.4231    22169.437    72.719615 
   23870    914.45219   -6836.6661   -6734.6576    1339.7704    22180.023     72.78308 
   23880    918.72094   -6836.9942   -6734.5095    935.07632    22192.424    72.846491 
   23890    922.06182   -6837.1635   -6734.3061    648.09436    22206.155    72.915662 
   23900    936.09863   -6838.4774   -6734.0542    124.21868    22220.782    72.993576 
   23910    930.30189   -6837.5421   -6733.7655   -45.754326    22235.705    73.073672 
   23920    936.69904   -6837.9478   -6733.4576   -203.45249    22250.646    73.155418 
   23930    933.33815   -6837.2446   -6733.1293   -60.949667     22265.43    73.249875 
   23940    932.86366   -6836.8389   -6732.7766    82.811828    22280.185    73.350863 
   23950    942.73326   -6837.5476   -6732.3843    87.137134    22295.092    73.435258 
   23960    951.19094   -6838.0758    -6731.969    507.80501     22310.24    73.488556 
   23970    950.33755   -6837.5672   -6731.5556    973.92559     22326.16    73.511499 
   23980    973.66605   -6839.7676   -6731.1537    908.49422    22343.406    73.513136 
   23990    962.81002   -6838.1859    -6730.783    965.38844    22361.992    73.518576 
   24000     956.9854   -6837.2105   -6730.4573    728.70692    22381.949     73.56615 
   24010    973.09831    -6838.702   -6730.1514    19.453462    22402.946    73.661399 
   24020     953.4779   -6836.2345   -6729.8726   -411.58579    22424.127    73.764176 
   24030    930.68985   -6833.4169   -6729.5971   -729.36337    22444.893    73.827177 
   24040    954.69052   -6835.7814   -6729.2843   -1370.5876     22464.73    73.847582 
   24050     972.1613   -6837.4009   -6728.9549   -1744.1378    22482.835    73.850328 
   24060    976.78353   -6837.6161   -6728.6545    -1731.231     22498.72    73.850363 
   24070    983.37467   -6838.1091   -6728.4122   -1749.5103    22512.327    73.843237 
   24080    997.96227   -6839.5714   -6728.2472   -1907.1212    22523.606    73.850431 
   24090    1016.6385   -6841.6209   -6728.2133   -2115.5536    22532.341    73.892597 
   24100    1001.0255   -6840.0379    -6728.372   -2335.1698    22538.239    73.970597 
   24110    976.16692    -6837.612   -6728.7191   -2664.3757     22540.98    74.074735 
   24120    970.27464   -6837.4712   -6729.2356   -3138.0173    22540.083    74.181828 
   24130    946.52243   -6835.4833   -6729.8973   -3243.3043    22534.953    74.272724 
   24140    938.34263   -6835.3395    -6730.666   -3078.2277    22525.415    74.345548 
   24150     935.4402   -6835.8571   -6731.5073   -2668.3528     22511.67    74.385916 
   24160     923.7346   -6835.4278   -6732.3838   -1738.5127    22494.315    74.384716 
   24170    903.33358   -6833.9873   -6733.2191   -787.92903    22474.542    74.370951 
   24180     908.2255   -6835.2733   -6733.9594   -498.69184    22453.552    74.351886 
   24190      917.674   -6836.9874   -6734.6195   -614.67044    22431.766    74.309986 
   24200     901.0586   -6835.7004   -6735.1859   -627.06198    22409.099    74.239079 
   24210     914.0226   -6837.6089   -6735.6483    -750.2749    22385.516    74.144124 
   24220     943.7246   -6841.3314   -6736.0575   -852.58745    22360.867    74.050854 
   24230    938.54102    -6841.146   -6736.4504   -444.35072    22335.087    73.989087 
   24240    925.88095   -6840.1008   -6736.8173    62.312926    22308.669    73.959028 
   24250    926.77134   -6840.5096   -6737.1269    351.92426     22282.26    73.943004 
   24260    946.16436   -6842.9591    -6737.413    507.72196    22256.255    73.914568 
   24270    945.08014   -6843.1228   -6737.6977    959.08648    22230.927     73.86731 
   24280    926.91068   -6841.3765   -6737.9782    1218.4222    22206.803    73.816694 
   24290    918.80616   -6840.7165   -6738.2223    865.72939    22184.182    73.764783 
   24300    945.07284   -6843.8709   -6738.4466    110.03139     22162.63    73.714996 
   24310    959.67328   -6845.7471   -6738.6941   -214.75758    22141.249    73.689544 
   24320    950.39278   -6844.9983   -6738.9806    349.65739    22119.677    73.685953 
   24330     933.1758   -6843.3803   -6739.2832    1191.6527     22098.57    73.690889 
   24340    928.47464   -6843.1384   -6739.5657    1593.3209    22078.945    73.702098 
   24350    928.23836   -6843.3777   -6739.8313    1694.0696    22061.334    73.727244 
   24360    894.57816   -6839.8404   -6740.0488    2514.0255    22046.023    73.753364 
   24370    891.05957   -6839.5755   -6740.1764    3100.4325    22033.948    73.762867 
   24380    923.03586   -6843.1934   -6740.2273    2800.8447    22025.789    73.771548 
   24390    939.06515   -6845.0033   -6740.2492    2286.4693    22021.253    73.802575 
   24400    938.85524   -6845.0067    -6740.276    1802.6965    22019.708    73.851513 
   24410    946.08225   -6845.8561   -6740.3192    1112.7027    22020.459    73.905464 
   24420    945.31976   -6845.8364   -6740.3846    1181.4589    22022.747    73.950782 
   24430    919.62184   -6843.0513   -6740.4661    1607.1832    22026.623    73.978224 
   24440    906.94758   -6841.6925   -6740.5211     1815.142    22032.577    73.984658 
   24450    927.10824   -6843.9572   -6740.5369    1878.7345    22040.899    73.979226 
   24460    937.28628   -6845.0782   -6740.5225    1711.5259     22051.68    73.989416 
   24470    920.10034   -6843.1378   -6740.4992    1762.7842    22064.775    74.015509 
   24480    889.33765   -6839.6309   -6740.4239    2077.8236    22080.282    74.043286 
   24490    894.59368   -6840.0306   -6740.2374    2039.2627    22098.533    74.096382 
   24500    885.04525   -6838.6115   -6739.8834    2216.2836    22119.574    74.196819 
   24510    892.92608   -6838.9376   -6739.3304    1724.5373    22143.545    74.325282 
   24520    918.25014   -6840.9683   -6738.5361    636.25816    22169.824    74.461966 
   24530     917.6674   -6839.9272     -6737.56    26.091067    22197.123    74.609365 
   24540      932.302   -6840.4827    -6736.483   -255.47376    22224.601    74.749835 
   24550    941.53814   -6840.4124   -6735.3824    223.89499    22251.961    74.871726 
   24560    938.68804   -6839.0695   -6734.3574    352.85272    22279.659    74.992244 
   24570    948.54504   -6839.2512   -6733.4396   -6.0233237    22307.884    75.139759 
   24580    956.74827   -6839.3597    -6732.633   -440.17991    22336.212    75.317677 
   24590    964.02202   -6839.4941    -6731.956   -804.57259    22364.059    75.509066 
   24600    978.07445   -6840.5149   -6731.4092   -1202.9139     22390.91    75.698331 
   24610    971.44563   -6839.3585   -6730.9922   -1265.5403    22416.277    75.885859 
   24620    969.19561   -6838.8096   -6730.6944   -1249.0024    22440.009     76.08718 
   24630    958.84166   -6837.4507   -6730.4905   -1140.5115    22462.113    76.296703 
   24640    941.58206   -6835.3852   -6730.3503   -894.74241    22482.759    76.484651 
   24650    948.81676   -6836.0814   -6730.2394   -1273.2984    22502.173     76.62514 
   24660    934.34174   -6834.3699   -6730.1427   -1757.6251    22519.887     76.73169 
   24670    910.96278   -6831.6549   -6730.0356   -1598.9161    22535.351    76.837004 
   24680    943.32259   -6835.1287   -6729.8997   -1519.7284    22548.665    76.958388 
   24690    957.10797   -6836.5286   -6729.7618   -1480.4919    22559.932    77.079287 
   24700    946.75921   -6835.2719   -6729.6595     -1186.61    22569.246    77.182864 
   24710    952.45306    -6835.837   -6729.5894   -1200.7147     22576.91    77.280972 
   24720    939.57669   -6834.3577   -6729.5465   -1092.5693    22582.985    77.368145 
   24730    920.12475   -6832.1478   -6729.5065   -1354.8696    22587.521    77.407254 
   24740    920.83428   -6832.1525   -6729.4321   -1473.9922    22590.248    77.407878 
   24750    920.67321   -6832.0189   -6729.3164    -1585.494    22590.961    77.400355 
   24760    913.48848   -6831.0521   -6729.1511   -1819.1338    22589.508    77.418012 
   24770    919.81139   -6831.5398   -6728.9335   -2187.2159    22585.539    77.459526 
   24780    921.94926    -6831.507   -6728.6621    -2053.167     22578.65    77.494693 
   24790    916.44456   -6830.5695   -6728.3387   -1905.0422    22568.943    77.523087 
   24800    913.35763   -6829.8348   -6727.9484   -1728.2503    22556.607    77.541629 
   24810    922.16101   -6830.3467   -6727.4782   -1332.6896    22541.907    77.552211 
   24820    934.38933   -6831.1671   -6726.9346   -1117.0192    22525.307     77.56396 
   24830    956.02012   -6832.9905    -6726.345   -1054.8256    22507.115    77.575664 
   24840    970.28687    -6833.996   -6725.7591   -947.55228    22487.429    77.586363 
   24850    964.15688   -6832.7712    -6725.218    -661.4238    22466.418    77.585802 
   24860    984.32301    -6834.533   -6724.7303   -661.08398    22444.398    77.562609 
   24870    1018.5658   -6837.9572   -6724.3346   -403.41007    22421.444    77.509822 
   24880    1011.1715   -6836.8914   -6724.0937    334.95487    22397.945    77.426979 
   24890    988.87299   -6834.3248   -6724.0145    975.05985    22374.842    77.331596 
   24900    969.87418   -6832.2508   -6724.0599    1137.4812    22352.923     77.25742 
   24910    959.99375   -6831.2695   -6724.1808    1185.8734    22332.481    77.227469 
   24920    991.54691   -6834.9968   -6724.3883     679.5848    22313.524    77.217936 
   24930    1018.8752   -6838.4222   -6724.7651    224.62391    22295.432    77.193926 
   24940    989.49899   -6835.7296   -6725.3495    810.11025    22277.732    77.158129 
   24950    967.73639   -6834.0486   -6726.0961    1241.6906    22261.038    77.137524 
   24960    964.96721   -6834.6154   -6726.9719    1086.5742    22245.892    77.144953 
   24970     951.7519   -6834.0991   -6727.9298    867.97844    22232.178    77.173251 
   24980    950.13348   -6834.9169    -6728.928    935.94546    22219.618     77.22305 
   24990    929.67154   -6833.5976   -6729.8913     1697.283    22208.365    77.288421 
   25000    922.24658   -6833.6153   -6730.7373    1783.1013     22199.25    77.350042 
Loop time of 14485.9 on 16 procs for 20000 steps with 864 atoms

Performance: 0.119 ns/day, 201.193 hours/ns, 1.381 timesteps/s
96.5% CPU use with 16 MPI tasks x 1 OpenMP threads

MPI task timing breakdown:
Section |  min time  |  avg time  |  max time  |%varavg| %total
---------------------------------------------------------------
Pair    | 9893.1     | 11886      | 13407      |1132.2 | 82.05
Bond    | 0.0021048  | 0.0047274  | 0.0088937  |   3.1 |  0.00
Neigh   | 0.20903    | 0.26763    | 0.3539     |   8.6 |  0.00
Comm    | 549.67     | 1825.9     | 4122.2     |2887.8 | 12.60
Output  | 3.2315     | 3.4496     | 5.2953     |  25.8 |  0.02
Modify  | 466.9      | 770.44     | 1058.4     | 852.3 |  5.32
Other   |            | 0.1319     |            |       |  0.00

Nlocal:        54.0000 ave          66 max          40 min
Histogram: 2 2 1 0 0 3 2 1 4 1
Nghost:        476.312 ave         522 max         422 min
Histogram: 1 1 2 3 1 0 1 2 3 2
Neighs:         0.00000 ave           0 max           0 min
Histogram: 16 0 0 0 0 0 0 0 0 0
FullNghs:      2113.88 ave        2877 max        1306 min
Histogram: 3 2 0 0 2 2 1 2 2 2

Total # of neighbors = 33822
Ave neighs/atom = 39.145833
Ave special neighs/atom = 0.0000000
Neighbor list builds = 2000
Dangerous builds = 2000
Total wall time: 5:14:00
