LAMMPS (2 Aug 2023)
OMP_NUM_THREADS environment is not set. Defaulting to 1 thread. (src/comm.cpp:98)
  using 1 OpenMP thread(s) per MPI task
Reading restart file ...
  restart file = 2 Aug 2023, LAMMPS = 2 Aug 2023
  restoring atom style full from restart
  orthogonal box = (-1.043091 -0.71039117 -9.0393714) to (23.779066 23.446366 77.247295)
  1 by 1 by 1 MPI processor grid
  pair style chgnet/gpu stores no restart info
  1536 atoms
Finding 1-2 1-3 1-4 neighbors ...
  special bond factors lj:    0        0        0       
  special bond factors coul:  0        0        0       
     0 = max # of 1-2 neighbors
     0 = max # of 1-3 neighbors
     0 = max # of 1-4 neighbors
     1 = max # of special neighbors
  special bonds CPU = 0.002 seconds
  read_restart CPU = 0.121 seconds
Resetting peratom fix info from restart file:
  fix style: STORE/ATOM, fix ID: msd_COMPUTE_STORE
All restart file peratom fix info was re-assigned
Neighbor list info ...
  update: every = 1 steps, delay = 10 steps, check = yes
  max neighbors/atom: 2000, page size: 100000
  master list distance cutoff = 6.3
  ghost atom cutoff = 6.3
  binsize = 3.15, bins = 8 8 28
  1 neighbor lists, perpetual/occasional/extra = 1 0 0
  (1) pair chgnet/gpu, perpetual
      attributes: full, newton on
      pair build: full/bin
      stencil: full/bin/3d
      bin: standard
Setting up Verlet run ...
  Unit style    : metal
  Current step  : 20000
  Time step     : 0.001
Per MPI rank memory allocation (min/avg/max) = 6.547 | 6.547 | 6.547 Mbytes
   Step          Temp          PotEng         TotEng         Press          Volume        c_msd[4]   
     20000   1497.4781     -5523.0941     -5225.973       3591.3051      51739.452      56.877471    
     20010   1507.3611     -5525.0533     -5225.9713      3626.0229      51738.892      57.035414    
     20020   1515.3087     -5526.6548     -5225.9958      3460.252       51737.549      57.189232    
     20030   1520.6741     -5527.819      -5226.0954      3265.6675      51735.531      57.322892    
     20040   1507.1365     -5525.2972     -5226.2598      3290.4256      51732.687      57.418703    
     20050   1510.934      -5526.2783     -5226.4874      3197.2534      51729.166      57.496691    
     20060   1512.4759     -5526.8822     -5226.7853      3078.7898      51725.093      57.570104    
     20070   1488.3922     -5522.4569     -5227.1386      3139.6747      51720.489      57.636249    
     20080   1482.163      -5521.5839     -5227.5015      3067.5805      51715.391      57.695547    
     20090   1487.5991     -5523.0286     -5227.8676      3069.1106      51709.802      57.751186    
     20100   1492.5878     -5524.4037     -5228.2529      3215.1059      51703.98       57.79783     
     20110   1485.2472     -5523.3801     -5228.6858      3462.5519      51697.991      57.856843    
     20120   1464.0672     -5519.5975     -5229.1056      3675.4243      51691.848      57.963503    
     20130   1467.8661     -5520.7603     -5229.5146      3450.2371      51685.475      58.092164    
     20140   1469.9075     -5521.5659     -5229.9152      3249.3567      51678.551      58.226429    
     20150   1477.7678     -5523.5339     -5230.3236      3063.6303      51670.824      58.377306    
     20160   1473.6585     -5523.1234     -5230.7285      2979.3936      51662.07       58.542695    
     20170   1487.7471     -5526.3959     -5231.2055      2834.4063      51651.851      58.702999    
     20180   1474.8469     -5524.3711     -5231.7403      3176.0931      51640.068      58.836824    
     20190   1475.2993     -5525.0826     -5232.3621      3488.8959      51627.068      58.935193    
     20200   1500.8708     -5530.8369     -5233.0427      3389.1375      51613.293      59.002643    
     20210   1494.9102     -5530.4927     -5233.8811      3486.3095      51598.885      59.069909    
     20220   1497.8005     -5532.0736     -5234.8885      3356.6643      51583.884      59.151231    
     20230   1502.3448     -5534.1709     -5236.0842      3123.8241      51567.998      59.236624    
     20240   1497.7951     -5534.6558     -5237.4718      2983.3027      51550.827      59.312316    
     20250   1482.5666     -5533.1477     -5238.9853      3149.2811      51532.474      59.368193    
     20260   1450.9659     -5528.3727     -5240.4803      3694.6106      51513.521      59.390754    
     20270   1458.9625     -5531.3646     -5241.8856      3908.5917      51494.784      59.387999    
     20280   1453.4444     -5531.54       -5243.1559      4302.1764      51476.722      59.383879    
     20290   1457.7439     -5533.5513     -5244.314       4517.8056      51459.599      59.375596    
     20300   1436.0477     -5530.2484     -5245.316       4650.5362      51443.454      59.352668    
     20310   1437.0968     -5531.2775     -5246.1369      4250.0691      51427.865      59.327117    
     20320   1429.8379     -5530.4839     -5246.7836      3874.8615      51412.154      59.312517    
     20330   1451.1667     -5535.2109     -5247.2787      3677.6562      51396.032      59.301613    
     20340   1466.029      -5538.5222     -5247.6411      3694.2421      51379.759      59.284784    
     20350   1478.8629     -5541.4146     -5247.987       3566.575       51363.806      59.27164     
     20360   1473.0507     -5540.5964     -5248.3221      3503.8881      51348.568      59.278439    
     20370   1472.6847     -5540.8455     -5248.6437      3378.3109      51334.285      59.292901    
     20380   1480.974      -5542.834      -5248.9875      3210.7159      51321.069      59.306854    
     20390   1474.4115     -5541.8738     -5249.3294      3112.4318      51309.075      59.311865    
     20400   1473.3476     -5542.0543     -5249.7211      3160.2444      51298.168      59.305378    
     20410   1450.3038     -5537.8572     -5250.0961      3736.6629      51287.841      59.29536     
     20420   1456.8505     -5539.4963     -5250.4363      3858.484       51278.105      59.301486    
     20430   1479.6325     -5544.3417     -5250.7614      3406.8215      51269.169      59.337587    
     20440   1497.3816     -5548.2426     -5251.1406      2798.1112      51260.86       59.398666    
     20450   1473.3475     -5543.9575     -5251.6243      2669.4079      51252.603      59.489147    
     20460   1450.1235     -5539.9116     -5252.1864      2620.4226      51243.84       59.612613    
     20470   1476.5644     -5545.7476     -5252.776       2190.6826      51234.142      59.731486    
     20480   1437.6273     -5538.6541     -5253.4082      2590.0329      51223.065      59.825174    
     20490   1396.5893     -5531.0834     -5253.9801      3174.2451      51210.742      59.890073    
     20500   1416.086      -5535.3977     -5254.426       2997.5019      51197.586      59.93486     
     20510   1426.5501     -5537.7891     -5254.7411      2981.1159      51183.562      59.979522    
     20520   1418.4671     -5536.4139     -5254.9698      3380.0815      51168.585      60.024382    
     20530   1421.2597     -5537.0731     -5255.0748      3443.4372      51152.822      60.065639    
     20540   1442.4923     -5541.2747     -5255.0635      3202.8971      51136.337      60.090284    
     20550   1451.1144     -5542.9043     -5254.9824      3163.5373      51119.116      60.085293    
     20560   1418.8558     -5536.322      -5254.8007      3716.7748      51101.584      60.065982    
     20570   1427.217      -5537.6532     -5254.4729      3991.3865      51084.527      60.04648     
     20580   1451.0156     -5541.8573     -5253.955       3988.8727      51068.366      60.037525    
     20590   1437.1238     -5538.4105     -5253.2646      4340.7415      51053.261      60.058785    
     20600   1428.8699     -5535.9086     -5252.4003      4397.4463      51039.434      60.135543    
     20610   1425.262      -5534.1024     -5251.31        4220.8805      51026.888      60.257169    
     20620   1428.7692     -5533.5066     -5250.0183      3980.6017      51015.418      60.379452    
     20630   1437.1021     -5533.641      -5248.4994      4054.0249      51004.619      60.486121    
     20640   1445.9357     -5533.7509     -5246.8565      4090.0006      50994.568      60.579653    
     20650   1457.3566     -5534.3569     -5245.1965      4140.6303      50985.573      60.688072    
     20660   1450.0901     -5531.3068     -5243.5881      4206.899       50977.693      60.816517    
     20670   1450.5367     -5529.91       -5242.1028      4142.43        50970.943      60.946918    
     20680   1481.445      -5534.688      -5240.7481      3957.9434      50965.069      61.056216    
     20690   1489.4147     -5535.1066     -5239.5854      4012.0965      50959.725      61.130668    
     20700   1496.6022     -5535.6273     -5238.68        4049.129       50954.796      61.18317     
     20710   1482.9487     -5532.2589     -5238.0207      4167.4128      50949.823      61.237661    
     20720   1464.5538     -5528.1207     -5237.5323      4192.4972      50944.666      61.304671    
     20730   1489.8817     -5532.7881     -5237.1742      3627.0471      50939.678      61.402147    
     20740   1501.5438     -5534.9015     -5236.9737      3389.094       50934.83       61.523366    
     20750   1503.4632     -5535.3021     -5236.9935      3544.4476      50929.888      61.644816    
     20760   1516.1471     -5538.0502     -5237.2249      3700.233       50924.924      61.755133    
     20770   1521.9887     -5539.7131     -5237.7288      3881.3081      50920.158      61.854742    
     20780   1514.3625     -5538.9972     -5238.526       4093.7814      50915.637      61.952661    
     20790   1507.2353     -5538.6266     -5239.5695      4270.5685      50911.176      62.028368    
     20800   1487.3094     -5535.9316     -5240.8282      4760.4366      50906.496      62.072789    
     20810   1486.2842     -5537.0999     -5242.1998      4795.6583      50901.719      62.117017    
     20820   1484.3606     -5538.1692     -5243.6508      4565.5416      50897.352      62.187946    
     20830   1485.0363     -5539.8149     -5245.1625      4295.2955      50893.556      62.287066    
     20840   1516.7157     -5547.698      -5246.7599      3878.9285      50890.244      62.411935    
     20850   1483.8102     -5542.778      -5248.3688      4132.6224      50887.359      62.559395    
     20860   1444.8649     -5536.5645     -5249.8826      4376.3351      50885.159      62.720939    
     20870   1419.8271     -5532.8262     -5251.1121      4483.2353      50883.656      62.881657    
     20880   1411.1138     -5532.0773     -5252.0921      4681.4866      50882.585      63.026789    
     20890   1411.2368     -5532.8225     -5252.8129      4881.8548      50882.242      63.151984    
     20900   1433.9628     -5537.9213     -5253.4025      4589.6581      50882.795      63.262832    
     20910   1440.8913     -5539.7966     -5253.9032      4319.2828      50883.922      63.365973    
     20920   1421.419      -5536.3923     -5254.3624      3969.0192      50885.343      63.462088    
     20930   1442.1276     -5540.9095     -5254.7708      3376.7         50886.968      63.555324    
     20940   1461.1351     -5545.1082     -5255.198       3372.6533      50888.575      63.653028    
     20950   1431.0229     -5539.6018     -5255.6664      4021.9736      50890.333      63.765878    
     20960   1434.7175     -5540.8052     -5256.1367      4022.8953      50892.601      63.903446    
     20970   1468.7654     -5548.0818     -5256.6577      3398.6628      50895.072      64.041661    
     20980   1436.8467     -5542.3491     -5257.2582      3410.6313      50896.847      64.169184    
     20990   1426.6574     -5540.967      -5257.8978      3432.1923      50897.95       64.299811    
     21000   1414.9303     -5539.2587     -5258.5162      3614.2974      50898.923      64.424052    
     21010   1415.0184     -5539.8655     -5259.1056      3952.9074      50899.943      64.533538    
     21020   1385.6656     -5534.5682     -5259.6323      4713.3024      50901.082      64.652056    
     21030   1400.6746     -5537.9462     -5260.0323      4705.8565      50902.774      64.798483    
     21040   1426.9318     -5543.5093     -5260.3856      4154.8208      50905.04       64.963936    
     21050   1426.8816     -5543.8495     -5260.7357      3821.3565      50907.481      65.133781    
     21060   1428.0043     -5544.4581     -5261.1216      3808.8015      50909.831      65.301494    
     21070   1407.6387     -5540.8184     -5261.5227      3914.8817      50912.122      65.46735     
     21080   1405.4147     -5540.7726     -5261.9182      3622.4754      50914.51       65.613482    
     21090   1409.9345     -5542.0137     -5262.2625      3347.4384      50916.947      65.703291    
     21100   1413.1435     -5542.9973     -5262.6094      3294.9697      50919.091      65.750498    
     21110   1408.457      -5542.3978     -5262.9398      3392.0203      50920.826      65.811342    
     21120   1405.6087     -5542.1602     -5263.2673      3530.869       50922.488      65.901455    
     21130   1400.472      -5541.4596     -5263.5859      3893.6968      50924.334      66.011186    
     21140   1410.2104     -5543.6968     -5263.8908      4157.767       50926.779      66.146898    
     21150   1419.3985     -5545.8241     -5264.1951      4202.2898      50930.267      66.313723    
     21160   1433.1547     -5548.9438     -5264.5854      4036.8079      50935.126      66.505078    
     21170   1404.5476     -5543.7253     -5265.043       4145.7318      50941.677      66.701947    
     21180   1401.8457     -5543.7144     -5265.5681      4016.0487      50949.786      66.885991    
     21190   1418.9172     -5547.6562     -5266.1228      3508.2454      50958.835      67.068322    
     21200   1434.3272     -5551.3975     -5266.8064      2863.9206      50968.093      67.259326    
     21210   1410.0213     -5547.4171     -5267.6487      2749.822       50976.767      67.448025    
     21220   1381.246      -5542.6428     -5268.5838      2893.9443      50984.339      67.61625     
     21230   1388.2266     -5545.0166     -5269.5726      2660.395       50990.634      67.770754    
     21240   1396.2818     -5547.6493     -5270.607       2437.3605      50995.593      67.948198    
     21250   1405.8538     -5550.6746     -5271.733       2352.9666      50999.319      68.149766    
     21260   1388.0831     -5548.3678     -5272.9522      2629.2282      51001.924      68.339861    
     21270   1365.9567     -5545.1836     -5274.1582      3064.425       51003.443      68.501515    
     21280   1366.2095     -5546.3804     -5275.3048      3174.0432      51004.077      68.62298     
     21290   1342.2901     -5542.6395     -5276.3099      3452.5966      51004.16       68.719519    
     21300   1343.714      -5543.7473     -5277.1352      3429.3858      51003.957      68.804878    
     21310   1369.9715     -5549.6375     -5277.8155      2942.9019      51003.169      68.857863    
     21320   1375.3063     -5551.251      -5278.3705      2598.7131      51001.442      68.868905    
     21330   1364.0171     -5549.4851     -5278.8446      2536.9726      50998.743      68.852895    
     21340   1343.517      -5545.7699     -5279.1969      2538.4587      50995.061      68.82499     
     21350   1348.9118     -5547.0374     -5279.3939      2235.919       50990.402      68.790588    
     21360   1343.5807     -5545.9915     -5279.4058      2194.8071      50984.476      68.760647    
     21370   1353.413      -5547.7921     -5279.2556      2442.1294      50977.146      68.721888    
     21380   1352.7433     -5547.3263     -5278.9227      2838.2038      50968.742      68.66701     
     21390   1349.7239     -5546.2075     -5278.403       2993.1052      50959.643      68.623688    
     21400   1352.076      -5545.9574     -5277.6862      2854.673       50949.875      68.617123    
     21410   1324.3749     -5539.4648     -5276.6899      2897.8586      50939.452      68.635391    
     21420   1343.6453     -5542.0009     -5275.4024      2640.4653      50928.681      68.638056    
     21430   1362.5679     -5544.1304     -5273.7774      2618.0543      50917.534      68.625675    
     21440   1393.5495     -5548.4528     -5271.9526      2756.7478      50905.806      68.625776    
     21450   1399.1245     -5547.7028     -5270.0964      3308.7531      50893.32       68.633882    
     21460   1417.4662     -5549.6312     -5268.3856      3553.3903      50880.259      68.644447    
     21470   1415.0584     -5547.7035     -5266.9356      3736.9504      50866.902      68.665094    
     21480   1395.4444     -5542.6641     -5265.7879      3990.2097      50853.621      68.688053    
     21490   1423.2498     -5547.297      -5264.9039      3886.9032      50840.693      68.700027    
     21500   1426.1292     -5547.2238     -5264.2593      3711.0802      50827.937      68.717441    
     21510   1412.5102     -5544.1447     -5263.8824      3642.9881      50814.865      68.744913    
     21520   1395.0159     -5540.4419     -5263.6508      3546.6412      50801.231      68.773675    
     21530   1397.3865     -5540.7704     -5263.5089      3523.4536      50787.135      68.810664    
     21540   1396.1904     -5540.4485     -5263.4243      3626.3633      50772.754      68.858545    
     21550   1410.8793     -5543.3335     -5263.3948      3571.9899      50758.322      68.901382    
     21560   1425.6376     -5546.332      -5263.4651      3437.8098      50743.874      68.937326    
     21570   1442.6875     -5549.929      -5263.6791      3257.2662      50729.325      68.971349    
     21580   1447.6489     -5551.3282     -5264.094       3263.838       50714.637      69.008068    
     21590   1435.5291     -5549.5225     -5264.6929      3540.2927      50700.055      69.060048    
     21600   1433.1579     -5549.8253     -5265.4663      3780.4594      50685.91       69.126393    
     21610   1434.2722     -5550.951      -5266.3709      3895.7599      50672.405      69.186638    
     21620   1440.0186     -5553.1637     -5267.4434      3912.0939      50659.603      69.233132    
     21630   1428.7972     -5552.1449     -5268.6511      3835.9104      50647.5        69.270937    
     21640   1427.7382     -5553.2446     -5269.9609      3621.3         50635.99       69.298534    
     21650   1420.136      -5553.1066     -5271.3312      3687.1078      50624.994      69.327383    
     21660   1406.5781     -5551.7743     -5272.689       4023.96        50614.85       69.375631    
     21670   1407.4281     -5553.2637     -5274.0098      4258.4937      50605.692      69.458268    
     21680   1384.638      -5549.9725     -5275.2405      4575.298       50597.544      69.561066    
     21690   1366.1107     -5547.3604     -5276.3044      4788.5318      50590.744      69.660914    
     21700   1378.045      -5550.6592     -5277.2353      4530.6305      50585.616      69.762554    
     21710   1359.5028     -5547.7764     -5278.0315      4642.1476      50581.961      69.883325    
     21720   1345.4138     -5545.6329     -5278.6836      4790.6918      50579.599      70.003486    
     21730   1377.4253     -5552.5243     -5279.2234      4451.5998      50578.336      70.120922    
     21740   1377.234      -5552.9725     -5279.7096      4327.7323      50577.514      70.233309    
     21750   1356.6314     -5549.3533     -5280.1782      4554.5985      50576.829      70.341583    
     21760   1333.6503     -5545.1777     -5280.5624      4726.059       50576.583      70.456372    
     21770   1322.2695     -5543.1716     -5280.8144      4956.0522      50577.411      70.5796      
     21780   1326.7518     -5544.1652     -5280.9186      4993.2542      50579.811      70.703378    
     21790   1346.4662     -5548.0474     -5280.8892      4756.8579      50583.719      70.813376    
     21800   1349.0978     -5548.4832     -5280.8028      4457.7007      50589.176      70.899019    
     21810   1321.8732     -5542.9149     -5280.6363      4147.8388      50596.364      70.964946    
     21820   1298.5237     -5537.9854     -5280.3396      3762.1011      50605.363      71.043346    
     21830   1313.6523     -5540.48       -5279.8326      3346.4623      50615.797      71.155493    
     21840   1351.202      -5547.2395     -5279.1417      3121           50626.844      71.300245    
     21850   1341.5986     -5544.5493     -5278.3569      3422.4124      50637.889      71.462565    
     21860   1375.0386     -5550.3655     -5277.5381      3170.6086      50648.919      71.604396    
     21870   1394.2677     -5553.3669     -5276.7243      2877.9763      50659.836      71.728148    
     21880   1389.412      -5551.7        -5276.0207      2789.7609      50670.65       71.841598    
     21890   1378.8318     -5548.9944     -5275.4144      2730.2925      50681.505      71.935747    
     21900   1386.9177     -5550.0813     -5274.897       2501.4301      50692.423      72.006808    
     21910   1383.7552     -5549.0182     -5274.4613      2529.6336      50703.093      72.071405    
     21920   1362.6617     -5544.4874     -5274.1158      2882.489       50713.563      72.159992    
     21930   1383.2108     -5548.2722     -5273.8234      3087.258       50724.061      72.285193    
     21940   1386.9115     -5548.7692     -5273.5861      3519.5544      50734.576      72.441349    
     21950   1365.9227     -5544.4622     -5273.4435      4148.0493      50745.49       72.637428    
     21960   1369.5242     -5545.0994     -5273.3661      4246.7499      50757.216      72.86918     
     21970   1387.0032     -5548.5458     -5273.3445      3896.5782      50769.526      73.098511    
     21980   1371.2568     -5545.5033     -5273.4263      3837.1567      50782.169      73.305351    
     21990   1351.7855     -5541.8024     -5273.5888      3891.6484      50795.244      73.479143    
     22000   1373.3248     -5546.3126     -5273.8253      3604.3786      50808.815      73.624027    
     22010   1374.454      -5546.8704     -5274.159       3604.7974      50822.523      73.75432     
     22020   1353.8933     -5543.2753     -5274.6435      3600.3597      50836.131      73.87789     
     22030   1344.1736     -5541.951      -5275.2478      3477.2384      50849.384      74.003976    
     22040   1342.1425     -5542.248      -5275.9478      3133.425       50862.265      74.166101    
     22050   1340.2992     -5542.6956     -5276.761       2882.3999      50874.903      74.373997    
     22060   1352.8838     -5546.1786     -5277.7471      2722.5813      50887.233      74.594773    
     22070   1358.6829     -5548.4894     -5278.9072      2871.8414      50898.93       74.790585    
     22080   1364.5702     -5551.0393     -5280.289       3240.5661      50909.868      74.942228    
     22090   1371.4092     -5553.9968     -5281.8896      3624.9183      50920.586      75.073793    
     22100   1364.1686     -5554.3096     -5283.639       3673.9626      50931.982      75.217883    
     22110   1376.5103     -5558.5953     -5285.476       3111.9596      50944.392      75.389497    
     22120   1362.9187     -5557.7351     -5287.3125      2667.2513      50957.595      75.573968    
     22130   1323.1519     -5551.4586     -5288.9263      2530.1481      50971.249      75.769312    
     22140   1311.7172     -5550.5391     -5290.2756      2198.0805      50984.857      75.995259    
     22150   1287.3413     -5546.6895     -5291.2625      2288.284       50997.714      76.228828    
     22160   1272.7117     -5544.4417     -5291.9174      2414.7211      51009.855      76.43989     
     22170   1272.1231     -5544.698      -5292.2906      2477.0399      51021.718      76.63173     
     22180   1267.1877     -5543.8367     -5292.4085      2834.3864      51033.738      76.818817    
     22190   1286.1086     -5547.4812     -5292.2988      3008.2517      51046.254      76.997024    
     22200   1337.6605     -5557.4938     -5292.0828      2743.7512      51059.067      77.141879    
     22210   1345.0927     -5558.6913     -5291.8056      2569.5922      51071.413      77.265338    
     22220   1355.9838     -5560.6516     -5291.605       2407.9587      51082.696      77.382655    
     22230   1353.0779     -5559.947      -5291.477       2392.4157      51092.472      77.482273    
     22240   1327.4898     -5554.8248     -5291.4318      2545.6413      51100.559      77.555607    
     22250   1322.0853     -5553.7002     -5291.3795      2507.7162      51107.253      77.611093    
     22260   1342.2161     -5557.6293     -5291.3144      2016.2442      51112.777      77.65458     
     22270   1348.2801     -5558.785      -5291.2669      1609.0837      51116.843      77.708624    
     22280   1342.1203     -5557.5842     -5291.2883      1509.4516      51119.174      77.788111    
     22290   1312.8124     -5551.8322     -5291.3514      1989.4969      51119.948      77.891121    
     22300   1309.0688     -5551.1089     -5291.3709      2265.0605      51119.631      77.995881    
     22310   1325.2547     -5554.2814     -5291.3318      2329.7872      51118.203      78.091304    
     22320   1322.1608     -5553.6141     -5291.2785      2453.3618      51115.437      78.193229    
     22330   1339.6995     -5557.0386     -5291.223       2293.5834      51111.337      78.318844    
     22340   1353.6141     -5559.7921     -5291.2157      2110.8268      51105.672      78.473965    
     22350   1345.6138     -5558.3152     -5291.3261      2236.3366      51098.003      78.635666    
     22360   1313.2747     -5552.05       -5291.4775      2516.8841      51088.424      78.762248    
     22370   1313.4353     -5552.2365     -5291.6321      2311.5608      51077.468      78.839017    
     22380   1302.6854     -5550.2417     -5291.7703      2215.0909      51065.084      78.881055    
     22390   1286.7005     -5547.1472     -5291.8474      2181.4397      51050.995      78.886516    
     22400   1321.0236     -5553.9763     -5291.8663      1759.4458      51034.798      78.866945    
     22410   1315.872      -5552.9396     -5291.8517      1899.5805      51015.957      78.838586    
     22420   1317.8423     -5553.304      -5291.8252      2355.4813      50994.65       78.80369     
     22430   1337.5968     -5557.1873     -5291.7889      2525.8232      50971.493      78.784493    
     22440   1319.2955     -5553.5709     -5291.8038      2719.4529      50946.773      78.787387    
     22450   1295.9874     -5548.953      -5291.8105      2845.1088      50920.704      78.783581    
     22460   1336.5006     -5556.9719     -5291.7911      2471.3453      50893.4        78.758257    
     22470   1354.7879     -5560.6157     -5291.8064      2587.2005      50864.794      78.730531    
     22480   1361.5712     -5562.1062     -5291.951       2724.3553      50835.26       78.71259     
     22490   1388.5946     -5567.8455     -5292.3284      2539.4976      50805.344      78.7047      
     22500   1359.5094     -5562.754      -5293.0079      2993.6918      50775.056      78.700792    
     22510   1335.0609     -5558.8129     -5293.9177      3448.5614      50744.756      78.712452    
     22520   1337.6068     -5560.4132     -5295.0129      3419.5567      50714.899      78.754361    
     22530   1351.832      -5564.5437     -5296.3209      3140.8013      50685.378      78.816322    
     22540   1343.9141     -5564.4628     -5297.811       3251.6896      50655.992      78.884839    
     22550   1328.8979     -5563.0811     -5299.4087      3388.6655      50626.91       78.956688    
     22560   1321.2517     -5563.1506     -5300.9954      3243.5609      50598.343      79.030367    
     22570   1315.4147     -5563.5081     -5302.5109      3113.734       50569.994      79.106988    
     22580   1312.1544     -5564.2456     -5303.8954      3394.7038      50541.517      79.178418    
     22590   1313.0582     -5565.6606     -5305.1311      3575.0952      50513.029      79.236933    
     22600   1296.7745     -5563.5073     -5306.2087      3800.4653      50484.729      79.268589    
     22610   1298.3003     -5564.7133     -5307.1119      3911.5976      50456.794      79.257098    
     22620   1299.6699     -5565.757      -5307.8838      4042.608       50429.273      79.223747    
     22630   1309.8312     -5568.4537     -5308.5645      3948.6107      50402.028      79.194863    
     22640   1312.6387     -5569.6534     -5309.2071      3803.3408      50374.814      79.174257    
     22650   1306.0083     -5568.9459     -5309.8152      3721.8631      50347.27       79.155757    
     22660   1331.7244     -5574.6888     -5310.4557      3429.0963      50318.892      79.142596    
     22670   1318.7735     -5572.8043     -5311.1408      3537.8122      50289.175      79.134047    
     22680   1301.533      -5570.0812     -5311.8384      3790.5322      50258.337      79.14073     
     22690   1294.1681     -5569.2612     -5312.4797      3661.6249      50227.05       79.160668    
     22700   1311.3035     -5573.2866     -5313.1052      3370.1046      50195.436      79.163854    
     22710   1316.9557     -5575.0664     -5313.7635      3267.1836      50163.319      79.131791    
     22720   1305.336      -5573.4448     -5314.4475      3405.6392      50130.795      79.071301    
     22730   1294.0006     -5571.8789     -5315.1307      3607.0987      50098.209      79.011857    
     22740   1303.9837     -5574.5325     -5315.8034      3324.1707      50065.747      78.979317    
     22750   1300.6524     -5574.564      -5316.4959      3115.1516      50033.273      78.972899    
     22760   1296.9138     -5574.5153     -5317.189       2930.3378      50000.58       78.979648    
     22770   1288.9337     -5573.6023     -5317.8594      3012.6195      49967.844      78.999604    
     22780   1259.8437     -5568.4233     -5318.4523      3611.5431      49935.618      79.032313    
     22790   1275.0621     -5571.9423     -5318.9517      3784.6361      49904.573      79.042683    
     22800   1290.3681     -5575.4257     -5319.3982      3783.5049      49874.645      79.013407    
     22810   1286.8685     -5575.155      -5319.8219      3946.0494      49845.519      78.951747    
     22820   1301.1165     -5578.4224     -5320.2622      3788.9751      49817.199      78.868235    
     22830   1319.1362     -5582.4873     -5320.7518      3591.6337      49789.534      78.788275    
     22840   1320.8607     -5583.4391     -5321.3614      3686.9447      49762.355      78.719069    
     22850   1297.6358     -5579.5364     -5322.0668      4077.2803      49735.904      78.659399    
     22860   1281.3321     -5577.0439     -5322.8093      4331.6355      49710.667      78.612514    
     22870   1299.7356     -5581.4407     -5323.5545      4191.6443      49687.088      78.584311    
     22880   1278.0532     -5577.88       -5324.2959      4494.9319      49665.275      78.572356    
     22890   1263.1177     -5575.6388     -5325.0182      4719.2471      49645.158      78.558711    
     22900   1250.5777     -5573.7733     -5325.6408      4750.9781      49626.81       78.546121    
     22910   1241.8204     -5572.5571     -5326.1622      4758.6154      49610.378      78.541633    
     22920   1221.3531     -5568.8584     -5326.5244      4975.1512      49596.065      78.560405    
     22930   1238.6418     -5572.4777     -5326.7134      4868.3824      49584.27       78.614084    
     22940   1268.1871     -5578.3887     -5326.7622      4644.5927      49575.249      78.700454    
     22950   1293.7393     -5583.4841     -5326.7877      4313.5635      49568.996      78.80473     
     22960   1286.5033     -5582.1119     -5326.8513      4289.3982      49565.14       78.918542    
     22970   1282.8984     -5581.5194     -5326.974       4267.2581      49563.344      79.039761    
     22980   1266.1811     -5578.3162     -5327.0877      4432.9976      49563.54       79.160256    
     22990   1271.4325     -5579.4939     -5327.2235      4312.8829      49565.784      79.255351    
     23000   1258.7523     -5577.089      -5327.3345      4445.1452      49569.797      79.339267    
     23010   1261.6035     -5577.7225     -5327.4023      4459.6899      49575.501      79.422406    
     23020   1282.9049     -5582.0043     -5327.4576      4273.1341      49582.612      79.504165    
     23030   1268.9919     -5579.3196     -5327.5334      4548.2211      49590.647      79.592173    
     23040   1268.459      -5579.3049     -5327.6245      4754.8419      49599.665      79.725109    
     23050   1278.5048     -5581.4253     -5327.7516      4599.7179      49609.943      79.917243    
     23060   1285.3316     -5582.9557     -5327.9275      4149.2178      49621.576      80.139534    
     23070   1288.0747     -5583.783      -5328.2105      3687.2914      49633.921      80.340631    
     23080   1259.7799     -5578.5582     -5328.5999      3646.0417      49646.29       80.494131    
     23090   1231.5224     -5573.4078     -5329.0562      3656.7088      49658.822      80.627353    
     23100   1231.6285     -5573.8506     -5329.4778      3430.6006      49672.015      80.770962    
     23110   1208.4574     -5569.5652     -5329.7899      3494.9234      49685.924      80.944999    
     23120   1197.1925     -5567.4961     -5329.956       3838.785       49700.333      81.132649    
     23130   1188.8817     -5565.7738     -5329.8826      4079.7979      49715.01       81.297347    
     23140   1217.8455     -5571.2124     -5329.5744      4002.0838      49729.508      81.466485    
     23150   1226.5636     -5572.4154     -5329.0476      4117.8512      49743.692      81.659227    
     23160   1240.8529     -5574.5673     -5328.3643      3840.7437      49757.978      81.857947    
     23170   1261.4523     -5577.8591     -5327.5689      3309.9505      49772.318      82.054008    
     23180   1268.0465     -5578.3301     -5326.7315      3321.1156      49786.43       82.235947    
     23190   1225.7869     -5569.1016     -5325.8879      4121.2659      49800.535      82.405286    
     23200   1207.7705     -5564.6085     -5324.9695      4392.5706      49815.357      82.563889    
     23210   1239.9836     -5569.931      -5323.9005      3879.078       49831.368      82.710878    
     23220   1275.556      -5575.8256     -5322.737       3253.563       49848.099      82.853675    
     23230   1293.771      -5578.3418     -5321.6391      3165.4733      49864.665      82.998679    
     23240   1291.8983     -5577.0117     -5320.6806      3393.7745      49880.684      83.137469    
     23250   1310.1243     -5579.8638     -5319.9163      3264.9204      49896.091      83.261082    
     23260   1315.5665     -5580.3911     -5319.3639      3452.422       49911.071      83.382401    
     23270   1310.518      -5579.0702     -5319.0447      3722.7082      49925.991      83.516969    
     23280   1308.8283     -5578.6274     -5318.9372      3866.6463      49941.243      83.681179    
     23290   1301.9085     -5577.3615     -5319.0442      3875.5388      49957.161      83.875589    
     23300   1277.1818     -5572.7168     -5319.3056      3742.5228      49973.808      84.097373    
     23310   1256.0618     -5568.8705     -5319.6498      3706.4935      49991.216      84.33276     
     23320   1250.1879     -5568.0806     -5320.0254      3768.7182      50009.453      84.556198    
     23330   1227.0687     -5563.8582     -5320.3902      4132.3014      50028.461      84.759123    
     23340   1211.9818     -5561.1456     -5320.6711      4334.6701      50048.257      84.942019    
     23350   1225.531      -5564.0193     -5320.8564      4144.9122      50068.968      85.120396    
     23360   1227.8379     -5564.5675     -5320.9469      3669.7763      50090.573      85.312914    
     23370   1251.3125     -5569.2675     -5320.9891      2904.9401      50112.536      85.521851    
     23380   1261.3238     -5571.2838     -5321.0191      2449.4759      50134.211      85.744292    
     23390   1285.7336     -5576.2302     -5321.1223      2292.7648      50155.083      85.989565    
     23400   1292.2789     -5577.7808     -5321.3741      2692.3614      50174.885      86.253526    
     23410   1272.8934     -5574.3629     -5321.8026      3163.5946      50194.119      86.504759    
     23420   1293.0389     -5578.9812     -5322.4238      2828.3895      50213.453      86.716719    
     23430   1285.475      -5578.2876     -5323.2309      2520.2968      50232.588      86.901587    
     23440   1259.5549     -5574.1608     -5324.247       2513.6785      50251.129      87.048108    
     23450   1223.84       -5568.1835     -5325.3561      2836.6351      50268.857      87.165665    
     23460   1209.0206     -5566.2986     -5326.4116      3051.6671      50285.571      87.287419    
     23470   1200.1146     -5565.5046     -5327.3847      3169.3134      50301.36       87.410078    
     23480   1209.2801     -5568.1802     -5328.2417      3331.7147      50316.411      87.530686    
     23490   1234.6887     -5573.9941     -5329.0142      3423.3334      50331.046      87.671599    
     23500   1228.8645     -5573.5671     -5329.7428      3860.3961      50345.685      87.862486    
     23510   1248.0573     -5578.0895     -5330.457       3726.7171      50360.686      88.098534    
     23520   1258.6625     -5580.9141     -5331.1774      3379.9682      50375.902      88.364876    
     23530   1266.2939     -5583.2051     -5331.9542      2984.4971      50390.98       88.63717     
     23540   1267.5666     -5584.3271     -5332.8238      2655.9937      50405.674      88.886664    
     23550   1261.2472     -5583.9906     -5333.7411      2604.8299      50419.983      89.11677     
     23560   1275.0402     -5587.697      -5334.7108      2381.693       50433.862      89.320533    
     23570   1274.5796     -5588.6191     -5335.7243      2172.504       50447.069      89.469396    
     23580   1257.445      -5586.2582     -5336.7631      2067.5636      50459.405      89.558736    
     23590   1228.5008     -5581.4619     -5337.7098      2144.6849      50470.588      89.625955    
     23600   1205.0188     -5577.5713     -5338.4783      2338.2084      50480.457      89.721297    
     23610   1193.0571     -5575.7527     -5339.0331      2448.5659      50489.124      89.873563    
     23620   1208.6161     -5579.2006     -5339.3938      2405.4984      50496.694      90.088029    
     23630   1211.4726     -5579.9956     -5339.6221      2347.0856      50503.174      90.304633    
     23640   1197.5957     -5577.3779     -5339.7578      2378.1546      50508.491      90.46626     
     23650   1195.9518     -5577.0707     -5339.7767      2275.8604      50512.526      90.577542    
     23660   1214.6526     -5580.7101     -5339.7056      1962.7687      50515.13       90.668472    
     23670   1216.3307     -5580.9459     -5339.6085      1954.4489      50516.364      90.760039    
     23680   1198.0648     -5577.1992     -5339.486       2075.652       50516.697      90.854349    
     23690   1174.6358     -5572.3293     -5339.2648      2210.8039      50516.642      90.941849    
     23700   1215.8077     -5580.2117     -5338.978       1781.3578      50516.128      90.987846    
     23710   1220.5713     -5580.8104     -5338.6316      1891.0124      50514.602      91.006718    
     23720   1197.3468     -5575.875      -5338.3042      2387.3451      50511.985      91.014773    
     23730   1193.034      -5574.6497     -5337.9346      2747.2257      50508.492      91.020054    
     23740   1211.4231     -5577.8522     -5337.4885      2651.5065      50504.229      91.032739    
     23750   1217.631      -5578.6091     -5337.0137      2720.9222      50499.181      91.088145    
     23760   1222.6762     -5579.142      -5336.5455      2797.0392      50493.432      91.197273    
     23770   1241.9203     -5582.5129     -5336.0982      2474.4276      50487.09       91.319293    
     23780   1257.8763     -5585.3368     -5335.7561      1885.391       50480.163      91.440097    
     23790   1237.2279     -5581.0206     -5335.5369      1738.6526      50472.479      91.555783    
     23800   1232.7272     -5580.0117     -5335.421       1583.9199      50463.741      91.6566      
     23810   1214.2804     -5576.2668     -5335.3362      1818.2915      50453.405      91.714797    
     23820   1229.9115     -5579.3386     -5335.3066      1843.2396      50441.142      91.716298    
     23830   1229.5194     -5579.2548     -5335.3005      1859.9833      50426.633      91.704486    
     23840   1216.7407     -5576.7979     -5335.3791      1939.4058      50409.948      91.695416    
     23850   1229.9923     -5579.5426     -5335.4945      1929.9027      50391.408      91.668163    
     23860   1231.7793     -5580.0286     -5335.6259      1956.8808      50371.396      91.64458     
     23870   1249.6294     -5583.8573     -5335.9129      1859.9885      50350.008      91.640691    
     23880   1216.1089     -5577.583      -5336.2896      2360.4844      50327.403      91.627629    
     23890   1222.7213     -5579.3961     -5336.7907      2708.04        50304.254      91.59332     
     23900   1224.7653     -5580.3853     -5337.3743      2965.746       50280.954      91.582731    
     23910   1233.3379     -5582.8411     -5338.1292      2771.1025      50257.464      91.595707    
     23920   1227.516      -5582.6444     -5339.0877      2548.9263      50233.603      91.59674     
     23930   1216.9189     -5581.6787     -5340.2246      2473.5137      50209.128      91.56844     
     23940   1238.5243     -5587.3319     -5341.591       2282.6392      50183.801      91.508193    
     23950   1238.0747     -5588.8418     -5343.19        2510.6657      50157.524      91.428132    
     23960   1213.0731     -5585.5726     -5344.8816      2978.1712      50130.816      91.346637    
     23970   1209.724      -5586.5936     -5346.5671      2951.2701      50104.231      91.264432    
     23980   1188.6022     -5583.9188     -5348.0831      2938.1968      50077.601      91.169271    
     23990   1179.1747     -5583.297      -5349.3318      2768.0256      50050.505      91.075098    
     24000   1191.9418     -5586.8291     -5350.3308      2470.5443      50022.567      90.993728    
     24010   1178.6952     -5584.9742     -5351.1042      2605.8966      49993.433      90.911382    
     24020   1173.5494     -5584.5304     -5351.6814      2898.5779      49963.167      90.810969    
     24030   1167.6317     -5583.7324     -5352.0576      3083.8085      49932.195      90.677424    
     24040   1188.6018     -5588.1453     -5352.3096      2859.1696      49900.816      90.525515    
     24050   1207.6006     -5592.1274     -5352.5222      2624.4547      49868.977      90.396516    
     24060   1194.5234     -5589.7302     -5352.7197      2560.7845      49836.58       90.302126    
     24070   1175.1612     -5586.0696     -5352.9008      2619.8706      49803.699      90.240867    
     24080   1160.9141     -5583.3413     -5352.9993      2848.9377      49770.513      90.202471    
     24090   1176.7966     -5586.4973     -5353.004       3015.4097      49737.179      90.176701    
     24100   1196.9564     -5590.4264     -5352.9331      3175.44        49704.026      90.17563     
     24110   1197.7591     -5590.5212     -5352.8687      3582.0685      49671.435      90.194862    
     24120   1187.9789     -5588.5243     -5352.8123      4059.4148      49639.731      90.222572    
     24130   1187.5393     -5588.3624     -5352.7376      3969.2079      49609.379      90.259865    
     24140   1190.0127     -5588.7737     -5352.6581      3734.7146      49580.592      90.294513    
     24150   1171.9312     -5585.083      -5352.5551      3775.5574      49553.4        90.322953    
     24160   1186.365      -5587.8281     -5352.4363      3711.4796      49527.949      90.374522    
     24170   1191.857      -5588.7634     -5352.2819      3914.1715      49504.177      90.417367    
     24180   1183.306      -5586.9276     -5352.1428      4060.5658      49481.934      90.409014    
     24190   1168.9727     -5583.9126     -5351.9717      4027.4271      49461.333      90.375052    
     24200   1184.1577     -5586.7057     -5351.7518      3685.1001      49442.55       90.36        
     24210   1198.5975     -5589.3296     -5351.5107      3596.5169      49425.422      90.386322    
     24220   1202.2424     -5589.8496     -5351.3075      3823.5843      49409.85       90.427648    
     24230   1217.2604     -5592.6852     -5351.1633      3839.417       49395.923      90.463423    
     24240   1221.8406     -5593.5656     -5351.1349      3943.7629      49383.583      90.495677    
     24250   1189.6136     -5587.2429     -5351.2065      4248.327       49372.905      90.528604    
     24260   1188.2698     -5587.1342     -5351.3644      4248.8579      49364.116      90.580904    
     24270   1188.5228     -5587.3843     -5351.5643      4228.2886      49357.091      90.65092     
     24280   1186.8161     -5587.2931     -5351.8118      4426.8019      49351.448      90.727317    
     24290   1205.652      -5591.3716     -5352.153       4474.6102      49347.107      90.821081    
     24300   1208.0046     -5592.3105     -5352.6251      4568.49        49344.131      90.942782    
     24310   1202.5771     -5591.8975     -5353.2889      4575.8629      49342.362      91.078937    
     24320   1198.6276     -5591.9612     -5354.1363      4403.8678      49341.708      91.215821    
     24330   1179.8931     -5589.2454     -5355.1377      4347.0363      49341.991      91.353059    
     24340   1170.553      -5588.4829     -5356.2284      4312.2209      49343.009      91.480186    
     24350   1172.712      -5590.0635     -5357.3806      4223.0099      49344.815      91.579601    
     24360   1179.7602     -5592.6683     -5358.587       4126.5665      49347.286      91.640404    
     24370   1154.7828     -5588.8989     -5359.7735      4331.9314      49350.153      91.67903     
     24380   1147.8649     -5588.6298     -5360.8769      4360.6415      49353.348      91.720815    
     24390   1143.4994     -5588.7023     -5361.8156      4290.1525      49356.881      91.783746    
     24400   1165.2926     -5593.8439     -5362.6331      4050.0342      49360.848      91.875377    
     24410   1172.8426     -5596.0964     -5363.3877      4170.6073      49365.357      91.995415    
     24420   1144.9135     -5591.2266     -5364.0593      4564.1911      49370.801      92.126814    
     24430   1138.2147     -5590.4407     -5364.6026      4560.9247      49377.619      92.24633     
     24440   1136.4922     -5590.4912     -5364.9949      4473.2451      49385.527      92.369308    
     24450   1132.8904     -5590.0195     -5365.2378      4286.9443      49394.07       92.491784    
     24460   1152.3711     -5594.0354     -5365.3885      4062.6097      49402.97       92.6085      
     24470   1149.2823     -5593.4857     -5365.4517      4011.7951      49412.113      92.740408    
     24480   1146.391      -5592.9327     -5365.4723      4060.1414      49421.772      92.875205    
     24490   1154.0379     -5594.4174     -5365.4397      4017.3826      49432.099      92.995992    
     24500   1182.267      -5599.9677     -5365.389       3705.1594      49442.958      93.109485    
     24510   1189.9404     -5601.4948     -5365.3935      3572.8621      49454.222      93.236223    
     24520   1187.7738     -5601.1542     -5365.4828      3223.9203      49465.95       93.388184    
     24530   1194.1536     -5602.6183     -5365.6811      2728.3125      49477.948      93.539149    
     24540   1170.9935     -5598.316      -5365.9742      2789.1327      49489.899      93.665731    
     24550   1145.4007     -5593.5538     -5366.2899      3189.4421      49501.904      93.763654    
     24560   1146.2577     -5594.0109     -5366.5769      3533.016       49514.374      93.838123    
     24570   1142.9257     -5593.597      -5366.8242      3829.3809      49527.513      93.91111     
     24580   1139.9181     -5593.1949     -5367.0189      3894.5973      49541.432      93.994534    
     24590   1136.8613     -5592.7306     -5367.161       3718.6104      49556.315      94.102164    
     24600   1136.6166     -5592.7694     -5367.2484      3415.5314      49572.102      94.253133    
     24610   1134.3819     -5592.3354     -5367.2578      3220.9531      49588.539      94.424879    
     24620   1158.1991     -5597.0391     -5367.2358      3140.5442      49605.405      94.575333    
     24630   1156.0661     -5596.5784     -5367.1983      3571.6499      49622.712      94.704784    
     24640   1140.6312     -5593.4875     -5367.17        4142.1223      49640.804      94.840948    
     24650   1157.8839     -5596.8563     -5367.1156      4155.1586      49659.932      95.000695    
     24660   1192.9145     -5603.7825     -5367.0911      3768.98        49680.163      95.193876    
     24670   1178.8161     -5601.0714     -5367.1774      3675.3071      49701.326      95.417831    
     24680   1150.7632     -5595.7141     -5367.3862      3666.365       49723.047      95.65848     
     24690   1153.2976     -5596.507      -5367.6762      3231.5571      49745.012      95.880174    
     24700   1164.2881     -5599.0814     -5368.07        2801.7314      49767.065      96.072536    
     24710   1162.2774     -5599.2543     -5368.6418      2674.0637      49789.276      96.263557    
     24720   1148.3393     -5597.2321     -5369.3851      2753.2578      49811.42       96.47109     
     24730   1153.6039     -5599.1927     -5370.3012      2503.6688      49833.085      96.681278    
     24740   1139.1243     -5597.3833     -5371.3647      2330.9915      49854.008      96.884521    
     24750   1107.0094     -5592.1172     -5372.4707      2310.4505      49874.125      97.088713    
     24760   1101.1815     -5591.9952     -5373.5051      2052.5271      49893.489      97.288062    
     24770   1092.8979     -5591.2482     -5374.4016      1692.3073      49911.778      97.453525    
     24780   1095.6438     -5592.5295     -5375.1381      1365.1386      49928.61       97.562691    
     24790   1099.3361     -5593.8413     -5375.7173      1243.2071      49943.83       97.623054    
     24800   1112.189      -5596.8534     -5376.1792      1152.723       49957.408      97.657416    
     24810   1111.2572     -5597.0193     -5376.53        1255.885       49969.167      97.687563    
     24820   1110.1302     -5597.072      -5376.8063      1362.0865      49979.105      97.729214    
     24830   1088.938      -5593.0349     -5376.974       1533.0305      49987.386      97.765212    
     24840   1081.6143     -5591.5972     -5376.9894      1512.3242      49994.243      97.761743    
     24850   1086.6023     -5592.4471     -5376.8497      1521.456       49999.822      97.727418    
     24860   1069.1181     -5588.6433     -5376.515       1975.073       50004.187      97.696136    
     24870   1077.0445     -5589.6918     -5375.9907      2376.5119      50007.569      97.673415    
     24880   1090.5877     -5591.6378     -5375.2496      2750.7754      50010.242      97.632708    
     24890   1110.5976     -5594.6964     -5374.3379      3124.5453      50012.609      97.548623    
     24900   1137.7932     -5599.0829     -5373.3284      3025.5294      50014.896      97.450466    
     24910   1157.8199     -5602.0594     -5372.3314      2695.3315      50016.932      97.388794    
     24920   1154.2739     -5600.4763     -5371.4518      2397.9751      50018.685      97.346111    
     24930   1157.4142     -5600.3456     -5370.698       2163.1131      50020.171      97.28229     
     24940   1176.4041     -5603.4946     -5370.0792      1913.5033      50021.051      97.20211     
     24950   1161.8816     -5600.1592     -5369.6252      2166.492       50020.854      97.141052    
     24960   1161.72       -5599.8483     -5369.3464      2265.3477      50019.7        97.120126    
     24970   1140.8828     -5595.5295     -5369.162       2350.2404      50017.756      97.141404    
     24980   1152.6809     -5597.7634     -5369.055       1754.4962      50015.005      97.191834    
     24990   1156.0451     -5598.4351     -5369.0592      1416.5715      50010.967      97.237529    
     25000   1137.7312     -5594.8868     -5369.1447      1615.1091      50005.41       97.252817    
     25010   1123.9748     -5592.286      -5369.2733      2003.2936      49998.486      97.262242    
     25020   1122.2814     -5592.0824     -5369.4057      2214.7863      49990.556      97.31216     
     25030   1131.4515     -5594.0515     -5369.5553      2248.7137      49981.852      97.407079    
     25040   1138.9186     -5595.7002     -5369.7224      2433.7088      49972.283      97.523913    
     25050   1148.7367     -5597.8835     -5369.9577      2540.0839      49961.812      97.639609    
     25060   1156.9181     -5599.8435     -5370.2944      2497.0371      49950.553      97.745676    
     25070   1163.1172     -5601.5728     -5370.7936      2405.6374      49938.621      97.848175    
     25080   1137.9793     -5597.2599     -5371.4685      2697.4757      49925.874      97.922944    
     25090   1110.1861     -5592.5024     -5372.2256      2825.0006      49912.255      97.945959    
     25100   1109.0397     -5593.0682     -5373.0189      2610.0875      49897.709      97.93943     
     25110   1109.8546     -5594.0526     -5373.8416      2384.4905      49881.87       97.940488    
     25120   1112.6963     -5595.4578     -5374.6829      2421.7054      49864.483      97.951943    
     25130   1128.077      -5599.4095     -5375.5829      2581.6766      49845.647      97.977426    
     25140   1131.5081     -5601.0699     -5376.5625      2832.2469      49825.404      98.006722    
     25150   1134.7687     -5602.8109     -5377.6566      2680.7506      49803.674      98.012675    
     25160   1130.0257     -5603.064      -5378.8507      2220.4548      49780.374      98.009834    
     25170   1117.3973     -5601.7892     -5380.0816      1799.5075      49755.349      98.034879    
     25180   1113.6798     -5602.233      -5381.263       1597.973       49728.379      98.074972    
     25190   1119.0546     -5604.4124     -5382.3759      1704.393       49699.541      98.089632    
     25200   1108.7211     -5603.3302     -5383.3441      1913.5516      49669.233      98.074917    
     25210   1124.4007     -5607.2714     -5384.1742      1799.1801      49637.867      98.040412    
     25220   1109.7313     -5605.0206     -5384.8341      1836.6304      49605.93       98.001316    
     25230   1110.1021     -5605.6381     -5385.3779      1872.5617      49573.909      97.968393    
     25240   1105.7243     -5605.1895     -5385.7979      2177.7199      49541.766      97.948363    
     25250   1102.1535     -5604.8071     -5386.1241      2524.8683      49509.465      97.957997    
     25260   1095.6853     -5603.7656     -5386.366       2834.4108      49477.241      97.990379    
     25270   1092.3579     -5603.2643     -5386.5248      2957.2836      49445.438      98.012722    
     25280   1096.8301     -5604.2556     -5386.6288      2799.7414      49414.361      98.025653    
     25290   1084.8241     -5601.9258     -5386.6811      2664.8231      49384.057      98.048806    
     25300   1081.3228     -5601.2292     -5386.6793      2624.3882      49354.435      98.053808    
     25310   1101.0484     -5605.0876     -5386.6239      2581.858       49325.38       97.999375    
     25320   1109.7659     -5606.7645     -5386.5711      2735.2182      49296.676      97.884918    
     25330   1108.5116     -5606.4888     -5386.5442      2923.2126      49268.248      97.737662    
     25340   1130.8463     -5610.9404     -5386.5643      2761.7645      49240.046      97.592554    
     25350   1128.0773     -5610.5094     -5386.6827      2986.7133      49211.987      97.475797    
     25360   1104.7656     -5606.0698     -5386.8685      3530.1713      49184.194      97.397851    
     25370   1111.4403     -5607.635      -5387.1093      3529.2999      49156.94       97.354382    
     25380   1111.2694     -5607.8793     -5387.3875      3290.6354      49130.167      97.336072    
     25390   1096.8704     -5605.3495     -5387.7147      3202.0531      49103.668      97.331235    
     25400   1095.5713     -5605.4392     -5388.0622      3150.6615      49077.49       97.349761    
     25410   1091.5943     -5605.0078     -5388.4199      3382.8021      49052.078      97.400296    
     25420   1068.2745     -5600.7034     -5388.7424      3837.748       49027.813      97.462849    
     25430   1057.4852     -5598.813      -5388.9928      4122.1153      49004.86       97.519068    
     25440   1077.2226     -5602.901      -5389.1646      4140.677       48983.236      97.563109    
     25450   1090.5624     -5605.6564     -5389.2732      4281.7277      48962.85       97.601923    
     25460   1108.3518     -5609.3185     -5389.4056      4455.3425      48943.637      97.651181    
     25470   1110.7065     -5609.9854     -5389.6053      4725.4532      48925.53       97.720735    
     25480   1104.0264     -5608.9318     -5389.8771      4862.708       48908.58       97.792774    
     25490   1125.3366     -5613.5336     -5390.2507      4518.4168      48892.886      97.839761    
     25500   1125.7724     -5614.1444     -5390.775       4351.983       48878.48       97.867511    
     25510   1107.2572     -5611.1624     -5391.4667      4396.4979      48865.609      97.901305    
     25520   1087.2824     -5607.9987     -5392.2662      4459.491       48854.52       97.95239     
     25530   1090.7426     -5609.547      -5393.128       4193.9224      48845.167      98.009498    
     25540   1099.6323     -5612.2321     -5394.0493      3960.2613      48837.396      98.045246    
     25550   1115.1179     -5616.316      -5395.0607      3759.5911      48831.151      98.053249    
     25560   1129.0486     -5620.2231     -5396.2037      3585.475       48826.353      98.061154    
     25570   1119.8427     -5619.6416     -5397.4488      3552.0743      48822.843      98.083867    
     25580   1100.1079     -5616.9844     -5398.7072      3568.1654      48820.509      98.111711    
     25590   1081.948      -5614.5396     -5399.8656      3688.8667      48819.453      98.140778    
     25600   1072.526      -5613.6409     -5400.8364      3785.6479      48819.903      98.192942    
     25610   1079.746      -5615.8718     -5401.6348      3432.7836      48821.862      98.28969     
     25620   1064.6152     -5613.5065     -5402.2716      3176.5011      48825.202      98.430645    
     25630   1076.5427     -5616.3647     -5402.7633      2661.8871      48829.776      98.619256    
     25640   1096.6981     -5620.7999     -5403.1993      2342.9624      48835.195      98.840558    
     25650   1086.3751     -5619.1567     -5403.6044      2611.5361      48841.185      99.052294    
     25660   1091.1478     -5620.5026     -5404.0032      2907.2163      48847.916      99.235444    
     25670   1093.5079     -5621.38       -5404.4124      3168.7286      48855.723      99.409268    
     25680   1079.3978     -5618.9938     -5404.8258      3194.6991      48864.859      99.601476    
     25690   1079.543      -5619.4307     -5405.2339      2759.2901      48875.34       99.827341    
     25700   1067.6471     -5617.4509     -5405.6145      2605.3615      48886.807      100.06531    
     25710   1056.8757     -5615.6569     -5405.9576      2812.6305      48899.062      100.28572    
     25720   1063.9531     -5617.3579     -5406.2544      3040.8783      48912.224      100.4841     
     25730   1055.4367     -5615.9066     -5406.4929      3476.9886      48926.307      100.63851    
     25740   1057.518      -5616.5167     -5406.69        3632.0743      48941.173      100.74203    
     25750   1058.6895     -5616.8921     -5406.8329      3557.6853      48956.568      100.83754    
     25760   1067.6565     -5618.7898     -5406.9514      3266.6516      48972.2        100.96297    
     25770   1064.2475     -5618.2126     -5407.0507      3148.9375      48987.706      101.10956    
     25780   1064.3987     -5618.3518     -5407.1599      3236.0556      49003.029      101.25531    
     25790   1052.203      -5616.0059     -5407.2337      3401.367       49018.493      101.39662    
     25800   1069.2142     -5619.4541     -5407.3067      3131.4907      49034.499      101.53537    
     25810   1057.0785     -5617.114      -5407.3745      3067.0383      49051.014      101.6831     
     25820   1030.1968     -5611.8197     -5407.4139      3068.4411      49067.883      101.84031    
     25830   1011.6535     -5608.0701     -5407.3435      2793.9789      49084.952      102.01278    
     25840   1023.2327     -5610.1406     -5407.1166      2471.0631      49101.887      102.20245    
     25850   1018.1805     -5608.7399     -5406.7183      2531.2069      49118.451      102.40796    
     25860   1021.0281     -5608.7472     -5406.1606      2731.169       49134.784      102.64072    
     25870   1051.1233     -5613.9866     -5405.4287      2663.0596      49151.097      102.90236    
     25880   1064.9826     -5615.9041     -5404.5962      2915.8105      49167.517      103.16403    
     25890   1053.6815     -5612.7887     -5403.7232      3397.6239      49184.344      103.40167    
     25900   1038.9373     -5608.9424     -5402.8023      3697.6836      49201.685      103.6122     
     25910   1044.0019     -5608.9742     -5401.8293      3558.5008      49219.464      103.80276    
     25920   1051.2468     -5609.3895     -5400.8071      3439.4571      49237.607      103.96505    
     25930   1059.5441     -5610.0278     -5399.7991      3221.6255      49256.247      104.08269    
     25940   1083.2567     -5613.8115     -5398.8779      2917.818       49275.473      104.15814    
     25950   1077.2307     -5611.834      -5398.096       2989.4109      49294.988      104.22127    
     25960   1060.9439     -5607.9935     -5397.4871      3408.828       49314.629      104.30381    
     25970   1063.1516     -5607.9291     -5396.9846      3527.4982      49334.611      104.43041    
     25980   1082.6091     -5611.3832     -5396.578       3415.8684      49355.065      104.59233    
     25990   1100.0786     -5614.5945     -5396.3231      3262.8787      49375.851      104.75701    
     26000   1116.311      -5617.7446     -5396.2525      3077.3511      49396.795      104.90607    
     26010   1130.0776     -5620.6399     -5396.4163      2904.8606      49417.748      105.03916    
     26020   1110.7909     -5617.2096     -5396.8128      2896.5051      49438.488      105.16931    
     26030   1101.4498     -5615.9231     -5397.3797      2633.0677      49458.89       105.30916    
     26040   1071.6925     -5610.6559     -5398.0167      2513.9629      49478.867      105.46547    
     26050   1056.6173     -5608.3077     -5398.6597      2391.1526      49498.268      105.61488    
     26060   1058.2814     -5609.2163     -5399.2381      2231.6987      49516.825      105.74192    
     26070   1069.0749     -5611.9102     -5399.7904      2263.1489      49534.367      105.83664    
     26080   1070.6468     -5612.7638     -5400.3321      2336.9388      49551.045      105.90648    
     26090   1089.9971     -5617.1862     -5400.9151      2200.8369      49566.895      105.95379    
     26100   1081.531      -5616.1406     -5401.5494      2193.9075      49581.584      105.97961    
     26110   1062.4249     -5613.0278     -5402.2275      2327.3086      49594.986      105.99908    
     26120   1037.8799     -5608.7941     -5402.8638      2524.6778      49607.33       106.02857    
     26130   1035.9992     -5608.9709     -5403.4139      2457.1732      49618.928      106.07119    
     26140   1042.304      -5610.6899     -5403.8819      2211.7938      49629.854      106.13153    
     26150   1059.2369     -5614.4846     -5404.3169      1963.4218      49639.901      106.2082     
     26160   1070.2688     -5617.1433     -5404.7867      1915.9024      49648.866      106.30172    
     26170   1061.3704     -5615.8887     -5405.2976      1951.9747      49656.804      106.39874    
     26180   1060.986      -5616.3732     -5405.8583      1713.8529      49663.881      106.48472    
     26190   1054.8779     -5615.7488     -5406.4459      1493.6998      49670.093      106.55854    
     26200   1027.3986     -5610.8811     -5407.0305      1902.4838      49675.34       106.62543    
     26210   1002.5297     -5606.4478     -5407.5315      2479.984       49679.876      106.73055    
     26220   1011.9778     -5608.701      -5407.9102      2656.4911      49683.961      106.87885    
     26230   1031.5048     -5612.8645     -5408.1992      2553.2909      49687.41       107.03331    
     26240   1041.2083     -5615.0728     -5408.4821      2330.8038      49690.013      107.18143    
     26250   1031.5227     -5613.4318     -5408.7629      2271.6728      49691.757      107.31681    
     26260   1031.3684     -5613.6855     -5409.0473      2025.0376      49692.833      107.43747    
     26270   1035.9918     -5614.8801     -5409.3245      1737.0883      49693.333      107.5583     
     26280   1028.4242     -5613.6661     -5409.6121      1740.3165      49693.229      107.6863     
     26290   1022.5549     -5612.7762     -5409.8867      1859.0424      49692.464      107.80372    
     26300   1026.7124     -5613.8738     -5410.1593      1782.4043      49690.952      107.90192    
     26310   1026.0695     -5613.9979     -5410.411       1558.0077      49688.529      107.99476    
     26320   1026.3561     -5614.3224     -5410.6786      1199.7935      49684.896      108.10732    
     26330   1025.0742     -5614.344      -5410.9546      864.29095      49679.711      108.22534    
     26340   1008.0494     -5611.2341     -5411.2227      812.77431      49672.714      108.30706    
     26350   1002.7484     -5610.4116     -5411.452       836.44593      49663.772      108.33858    
     26360   1009.1613     -5611.8607     -5411.6287      748.98007      49652.851      108.32526    
     26370   1021.2106     -5614.4011     -5411.7783      746.90174      49639.927      108.28502    
     26380   1028.9302     -5616.0941     -5411.9396      1048.4574      49625.112      108.22449    
     26390   1014.0414     -5613.3105     -5412.1102      1657.5619      49608.802      108.16222    
     26400   1022.2594     -5615.113      -5412.2821      1769.6119      49591.577      108.10829    
     26410   1047.9388     -5620.4275     -5412.5014      1545.9482      49573.693      108.04141    
     26420   1036.6102     -5618.5118     -5412.8335      1616.2481      49555.01       107.96639    
     26430   1035.0619     -5618.6506     -5413.2795      1711.7622      49535.524      107.90344    
     26440   1044.0833     -5621.031      -5413.8699      1723.6175      49515.536      107.85852    
     26450   1052.3599     -5623.4733     -5414.67        1732.9494      49495.362      107.83285    
     26460   1050.0177     -5624.0724     -5415.7338      1673.754       49475.158      107.82807    
     26470   1035.3948     -5622.4739     -5417.0367      1796.2637      49454.807      107.8304     
     26480   1031.2032     -5623.1111     -5418.5056      1888.2891      49434.204      107.83083    
     26490   1028.0147     -5623.9849     -5420.012       2008.7382      49413.387      107.81225    
     26500   1027.7937     -5625.394      -5421.4651      2219.3759      49392.276      107.77411    
     26510   1020.4662     -5625.2487     -5422.7736      2425.6482      49370.789      107.7413     
     26520   1011.3025     -5624.5042     -5423.8472      2469.4045      49349.028      107.72148    
     26530   1012.7346     -5625.6544     -5424.7134      2250.261       49327.11       107.73249    
     26540   997.33663     -5623.2642     -5425.3783      2066.9196      49304.998      107.75653    
     26550   998.62095     -5624.0233     -5425.8826      1685.4575      49282.691      107.75059    
     26560   1015.8494     -5627.8634     -5426.3043      1284.1162      49260.008      107.70253    
     26570   1005.099      -5626.1008     -5426.6748      1449.062       49236.787      107.61525    
     26580   998.93438     -5625.1941     -5426.9912      1794.1896      49213.108      107.48544    
     26590   997.36661     -5625.1512     -5427.2594      2222.6582      49189.194      107.33115    
     26600   989.68801     -5623.8406     -5427.4723      2695.3244      49165.407      107.19602    
     26610   997.10463     -5625.468      -5427.6282      2792.7717      49142.054      107.10486    
     26620   1002.6165     -5626.6853     -5427.7518      2683.4316      49119.261      107.05404    
     26630   1004.6763     -5627.2152     -5427.873       2392.474       49096.943      107.03203    
     26640   1000.7186     -5626.5571     -5428.0002      2197.417       49074.85       107.01955    
     26650   994.75134     -5625.5068     -5428.1339      2128.8401      49052.781      106.99396    
     26660   995.45458     -5625.754      -5428.2416      2040.4332      49030.611      106.94942    
     26670   987.93702     -5624.3602     -5428.3394      2007.84        49008.176      106.89136    
     26680   967.13934     -5620.285      -5428.3907      2129.5015      48985.283      106.82925    
     26690   971.08216     -5621.035      -5428.3584      2030.0003      48961.982      106.77112    
     26700   977.37287     -5622.1523     -5428.2276      2062.6236      48938.41       106.71968    
     26710   975.01143     -5621.4628     -5428.0065      2418.6286      48914.861      106.66786    
     26720   985.14616     -5623.1689     -5427.7018      2677.3684      48891.791      106.61679    
     26730   990.97267     -5623.9537     -5427.3306      2997.6946      48869.683      106.58078    
     26740   995.81749     -5624.5005     -5426.916       3170.9274      48848.99       106.55634    
     26750   998.943       -5624.6898     -5426.4852      3177.709       48829.903      106.54079    
     26760   1004.234      -5625.3091     -5426.0547      3122.1139      48812.348      106.53146    
     26770   994.95281     -5623.0422     -5425.6293      3227.7528      48796.274      106.50821    
     26780   992.02063     -5622.0304     -5425.1993      3331.9033      48781.762      106.45846    
     26790   1002.8983     -5623.7494     -5424.76        3290.1813      48768.846      106.40488    
     26800   1016.4351     -5626.0085     -5424.3333      3298.5269      48757.548      106.37642    
     26810   1016.6901     -5625.6914     -5423.9655      3220.22        48747.926      106.37573    
     26820   1013.2889     -5624.7327     -5423.6816      3172.4518      48739.871      106.39073    
     26830   996.5207      -5621.1921     -5423.4682      3378.4282      48733.117      106.41464    
     26840   983.47264     -5618.4053     -5423.2702      3466.3318      48727.582      106.44851    
     26850   995.79277     -5620.6362     -5423.0567      3346.0758      48723.317      106.48597    
     26860   1015.1076     -5624.2712     -5422.8593      3287.7366      48720.221      106.51118    
     26870   1010.7484     -5623.2777     -5422.7308      3555.7775      48718.422      106.52204    
     26880   1006.3779     -5622.3604     -5422.6806      3498.912       48718.279      106.53516    
     26890   1014.7049     -5624.0588     -5422.7268      3094.5326      48719.929      106.5941     
     26900   1008.3784     -5622.9587     -5422.882       2928.5641      48722.94       106.69395    
     26910   990.02474     -5619.5779     -5423.1428      3028.3973      48726.845      106.81541    
     26920   1004.1942     -5622.7365     -5423.4899      3026.8879      48731.619      106.96118    
     26930   1010.762      -5624.5228     -5423.9732      3390.9963      48737.27       107.11024    
     26940   1009.7791     -5624.9978     -5424.6432      3970.5545      48744.017      107.24837    
     26950   1012.7081     -5626.4612     -5425.5254      4215.6893      48752.001      107.36809    
     26960   1007.653      -5626.5333     -5426.6005      4192.3552      48761.365      107.4718     
     26970   1001.7609     -5626.6062     -5427.8425      3944.9757      48772.199      107.56677    
     26980   985.87915     -5624.7656     -5429.1531      3730.6926      48784.214      107.66373    
     26990   966.68298     -5622.1908     -5430.387       3692.8478      48797.236      107.78477    
     27000   969.40647     -5623.8109     -5431.4668      3298.4157      48811.148      107.94195    
     27010   964.36641     -5623.719      -5432.3749      2857.8013      48825.741      108.11035    
     27020   946.28367     -5620.8387     -5433.0825      2580.5965      48840.759      108.27194    
     27030   956.15512     -5623.329      -5433.6141      2278.6406      48855.926      108.43499    
     27040   970.39915     -5626.5557     -5434.0146      2062.2262      48870.923      108.5844     
     27050   978.17155     -5628.4384     -5434.3551      2116.5042      48885.562      108.71697    
     27060   967.54959     -5626.6384     -5434.6627      2419.8479      48899.869      108.84348    
     27070   974.56588     -5628.3124     -5434.9445      2418.2151      48913.908      108.95498    
     27080   979.25558     -5629.511      -5435.2127      2316.7516      48927.567      109.04031    
     27090   971.86979     -5628.3076     -5435.4747      2148.9006      48940.549      109.10892    
     27100   990.3305      -5632.2557     -5435.76        1719.8494      48952.575      109.17676    
     27110   991.31327     -5632.7856     -5436.0949      1237.8929      48963.387      109.23634    
     27120   963.24805     -5627.5961     -5436.4739      1149.6948      48972.857      109.28898    
     27130   945.0707      -5624.3529     -5436.8373      1252.9003      48981.03       109.33006    
     27140   942.72347     -5624.1764     -5437.1266      1412.6758      48987.934      109.35121    
     27150   939.65972     -5623.778      -5437.336       1699.7825      48993.693      109.35138    
     27160   943.86247     -5624.7546     -5437.4788      1961.8979      48998.508      109.336      
     27170   944.97338     -5625.0513     -5437.555       2181.9833      49002.528      109.33366    
     27180   946.64395     -5625.401      -5437.5733      2214.5962      49005.842      109.35561    
     27190   978.59294     -5631.7365     -5437.5696      1905.4368      49008.521      109.38945    
     27200   972.79777     -5630.6115     -5437.5944      1924.1689      49010.519      109.4243     
     27210   958.64519     -5627.8762     -5437.6673      2161.9588      49011.823      109.46086    
     27220   957.00178     -5627.6334     -5437.7506      2146.2785      49012.65       109.49819    
     27230   958.32692     -5627.978      -5437.8322      2185.9833      49013.294      109.53131    
     27240   952.11473     -5626.8307     -5437.9175      2412.0622      49014.026      109.558      
     27250   956.10833     -5627.7019     -5437.9963      2318.7364      49014.938      109.5843     
     27260   975.88764     -5631.7284     -5438.0983      1952.0578      49015.903      109.60886    
     27270   985.19727     -5633.7411     -5438.2638      1747.8257      49016.686      109.63842    
     27280   1002.4401     -5637.4746     -5438.5761      1656.25        49017.196      109.67715    
     27290   995.76734     -5636.6689     -5439.0944      1996.7343      49017.454      109.72807    
     27300   994.40271     -5637.1421     -5439.8383      2236.6367      49017.587      109.79718    
     27310   1001.3993     -5639.514      -5440.8221      2246.1743      49017.729      109.86522    
     27320   996.96937     -5639.8843     -5442.0713      2286.8051      49017.907      109.92084    
     27330   976.41211     -5637.2043     -5443.4702      2226.9109      49018.133      109.98912    
     27340   958.76986     -5635.0898     -5444.8562      2055.4257      49018.174      110.06579    
     27350   940.57939     -5632.7003     -5446.0759      1867.83        49017.773      110.12911    
     27360   939.76953     -5633.5129     -5447.0492      1631.7962      49016.67       110.17022    
     27370   946.94449     -5635.6948     -5447.8075      1389.2287      49014.616      110.19474    
     27380   955.32701     -5637.9657     -5448.4151      1249.9874      49011.461      110.20235    
     27390   967.29872     -5640.8694     -5448.9435      1151.4315      49007.25       110.17596    
     27400   960.78491     -5640.0714     -5449.4379      1298.0924      49002.02       110.12547    
     27410   945.46644     -5637.4871     -5449.893       1547.3629      48995.782      110.06127    
     27420   943.02328     -5637.4138     -5450.3045      1439.7986      48988.57       109.98554    
     27430   943.51877     -5637.8716     -5450.6639      1092.0797      48980.372      109.90134    
     27440   944.99431     -5638.5        -5450.9996      854.90328      48971.009      109.81569    
     27450   942.63003     -5638.3546     -5451.3233      866.01615      48960.226      109.73642    
     27460   936.98414     -5637.5511     -5451.6401      1082.4331      48948.009      109.65178    
     27470   926.4278      -5635.7355     -5451.9189      1451.4896      48934.803      109.56266    
     27480   925.59749     -5635.7996     -5452.1478      1645.0221      48921.248      109.47995    
     27490   939.78019     -5638.8003     -5452.3344      1631.9718      48907.681      109.41874    
     27500   955.36919     -5642.0988     -5452.5398      1592.162       48894.048      109.40503    
     27510   947.81427     -5640.8518     -5452.7919      1766.9329      48880.096      109.42949    
     27520   931.88222     -5637.9785     -5453.0797      1922.2997      48865.705      109.45511    
     27530   918.70556     -5635.6377     -5453.3534      2069.8462      48850.92       109.47037    
     27540   915.08609     -5635.1433     -5453.5771      1962.804       48835.732      109.48379    
     27550   924.64978     -5637.2201     -5453.7563      1746.238       48819.86       109.49262    
     27560   924.21045     -5637.2871     -5453.9105      1785.1057      48803.012      109.47749    
     27570   924.46598     -5637.464      -5454.0367      2070.6807      48785.311      109.43226    
     27580   932.30976     -5639.1306     -5454.147       2396.1537      48766.949      109.36911    
     27590   941.90829     -5641.1627     -5454.2746      2634.9355      48747.831      109.3041     
     27600   938.96243     -5640.7405     -5454.4369      2859.0957      48727.875      109.25657    
     27610   939.51332     -5641.0404     -5454.6275      2901.9444      48707.411      109.21463    
     27620   942.57305     -5641.8882     -5454.8682      2802.0309      48686.854      109.1729     
     27630   941.50402     -5641.979      -5455.1711      2786.304       48666.449      109.13281    
     27640   939.983       -5642.0519     -5455.5458      2882.5254      48646.327      109.07685    
     27650   918.70197     -5638.251      -5455.9673      3399.7772      48626.648      109.01463    
     27660   907.83748     -5636.514      -5456.3861      3590.2137      48607.931      108.98861    
     27670   906.66505     -5636.677      -5456.7817      3507.1412      48590.447      109.00459    
[...]
     48200   743.41449     -5654.7008     -5507.1967     -77.123912      52200.922      216.32434    
     48210   745.37606     -5655.5955     -5507.7022     -187.03876      52197.037      216.33438    
     48220   749.05163     -5656.9647     -5508.3421     -367.95042      52192.185      216.31944    
     48230   732.11074     -5654.3291     -5509.0678     -250.28366      52185.578      216.28842    
     48240   739.3898      -5656.5227     -5509.8172     -234.52762      52177.548      216.25052    
     48250   745.9092      -5658.5684     -5510.5693     -123.78104      52168.301      216.21406    
     48260   742.83961     -5658.7083     -5511.3182      170.9406       52158.415      216.19916    
     48270   741.54777     -5659.1667     -5512.033       395.38545      52149.281      216.21665    
     48280   748.21535     -5661.1699     -5512.7133      256.83098      52141.897      216.25027    
     48290   749.89617     -5662.1594     -5513.3693      52.63939       52135.757      216.26907    
     48300   749.89991     -5662.7996     -5514.0087     -250.17113      52129.805      216.24536    
     48310   746.72722     -5662.7966     -5514.6353     -603.51437      52122.462      216.16524    
     48320   731.48108     -5660.3503     -5515.214      -683.84333      52112.074      216.04553    
     48330   724.27356     -5659.4125     -5515.7062     -619.30412      52098.129      215.91487    
     48340   720.23322     -5658.9902     -5516.0856     -306.49863      52081.042      215.81141    
     48350   708.63655     -5656.9391     -5516.3354      82.524917      52062.279      215.76738    
     48360   710.53055     -5657.4097     -5516.4302      226.80442      52043.631      215.78423    
     48370   724.48773     -5660.1306     -5516.3819      160.02743      52025.889      215.83338    
     48380   733.30607     -5661.7284     -5516.23        121.37176      52008.825      215.87185    
     48390   739.72473     -5662.7897     -5516.0177      46.913877      51992.192      215.8765     
     48400   739.77337     -5662.5337     -5515.7521      48.740754      51975.696      215.84696    
     48410   751.66036     -5664.5889     -5515.4487      10.474772      51959.25       215.77932    
     48420   756.36429     -5665.2092     -5515.1357      107.36666      51942.747      215.68375    
     48430   738.25277     -5661.3062     -5514.8262      415.59266      51926.742      215.58894    
     48440   732.7158      -5659.856      -5514.4746      488.42489      51912.562      215.51952    
     48450   738.33901     -5660.5514     -5514.0544      354.84917      51900.629      215.48797    
     48460   733.51828     -5659.11       -5513.5695      249.32609      51890.428      215.49848    
     48470   733.93777     -5658.639      -5513.0153      117.11685      51881.409      215.54833    
     48480   739.75104     -5659.1689     -5512.3917      51.435818      51872.942      215.62176    
     48490   740.00362     -5658.5449     -5511.7176      108.62255      51864.712      215.6858     
     48500   741.69565     -5658.1798     -5511.0168      249.1477       51857.005      215.71669    
     48510   745.82438     -5658.2871     -5510.3049      315.74033      51850.434      215.72149    
     48520   749.60834     -5658.334      -5509.601       339.14         51845.396      215.716      
     48530   749.30985     -5657.6008     -5508.927       377.50737      51842.058      215.70818    
     48540   752.98707     -5657.6971     -5508.2937      343.25267      51840.592      215.70466    
     48550   763.19813     -5659.14       -5507.7106      116.41663      51840.747      215.71398    
     48560   770.12549     -5660.016      -5507.2121      7.6863816      51841.561      215.74013    
     48570   776.92222     -5660.9722     -5506.8197      14.60996       51842.461      215.79153    
     48580   779.28248     -5661.1776     -5506.5568      216.97099      51843.532      215.86922    
     48590   780.88368     -5661.3677     -5506.4292      460.00781      51845.712      215.96888    
     48600   778.4808      -5660.8894     -5506.4277      626.89888      51850.214      216.08615    
     48610   769.22514     -5659.166      -5506.5407      630.12146      51857.903      216.21553    
     48620   762.91058     -5658.1051     -5506.7327      441.44064      51868.846      216.3606     
     48630   753.65648     -5656.5037     -5506.9674      211.28819      51882.164      216.51565    
     48640   750.58458     -5656.1444     -5507.2177     -55.328605      51896.718      216.66753    
     48650   750.72463     -5656.422      -5507.4675     -297.71103      51911.205      216.80379    
     48660   750.05487     -5656.5381     -5507.7165     -436.17206      51924.403      216.92179    
     48670   750.58076     -5656.9025     -5507.9765     -396.71546      51935.623      217.02778    
     48680   747.88254     -5656.6359     -5508.2453     -167.9165       51945.053      217.12789    
     48690   753.57932     -5658.0461     -5508.5252      2.9473708      51953.716      217.23131    
     48700   751.76378     -5657.9839     -5508.8232      273.92452      51962.6        217.35204    
     48710   756.78949     -5659.3125     -5509.1546      406.44874      51972.899      217.50727    
     48720   756.5489      -5659.6403     -5509.5301      604.56837      51985.473      217.68785    
     48730   754.99585     -5659.7615     -5509.9595      679.42023      52001.252      217.86859    
     48740   748.93754     -5659.0356     -5510.4357      590.60292      52020.656      218.03672    
     48750   736.84929     -5657.1324     -5510.931       479.09781      52043.353      218.18797    
     48760   734.74448     -5657.1921     -5511.4083      229.17657      52068.743      218.32099    
     48770   738.02425     -5658.3032     -5511.8686     -60.367608      52095.645      218.45171    
     48780   742.65539     -5659.6772     -5512.3238     -218.33602      52122.675      218.58959    
     48790   743.28028     -5660.2716     -5512.7942     -280.1433       52148.98       218.72353    
     48800   734.48512     -5659.0221     -5513.2897     -165.01685      52174.25       218.84554    
     48810   724.37689     -5657.5082     -5513.7814     -30.271875      52199.008      218.95498    
     48820   728.73118     -5658.821      -5514.2303     -208.69002      52223.781      219.05546    
     48830   742.17373     -5661.9155     -5514.6576     -582.23581      52247.694      219.15253    
     48840   738.24258     -5661.5793     -5515.1014     -726.35526      52269.02       219.24569    
     48850   722.73166     -5658.9591     -5515.5588     -669.94975      52286.977      219.32188    
     48860   718.11529     -5658.4753     -5515.991      -628.72488      52301.694      219.36838    
     48870   717.28739     -5658.6866     -5516.3666     -606.15017      52313.324      219.3908     
     48880   725.58877     -5660.6484     -5516.6812     -627.29904      52321.948      219.40814    
     48890   726.08323     -5661.0157     -5516.9504     -675.87685      52327.407      219.43585    
     48900   713.63048     -5658.7507     -5517.1562     -640.8105       52329.47       219.47336    
     48910   711.03259     -5658.3464     -5517.2674     -745.26271      52328.143      219.50518    
     48920   711.74248     -5658.4636     -5517.2437     -810.56607      52322.966      219.52084    
     48930   714.18492     -5658.7643     -5517.0598     -809.50379      52313.588      219.52384    
     48940   718.05945     -5659.1689     -5516.6957     -701.32752      52299.991      219.51369    
     48950   720.84679     -5659.1638     -5516.1375     -561.06871      52282.615      219.47939    
     48960   719.4472      -5658.1249     -5515.3762     -341.15822      52262.188      219.42223    
     48970   717.76349     -5656.8402     -5514.4257     -73.006513      52239.847      219.3589     
     48980   727.5955      -5657.6748     -5513.3094     -1.1185244      52216.857      219.28721    
     48990   737.45656     -5658.4373     -5512.1153     -48.361565      52193.607      219.2011     
     49000   746.9519      -5659.1667     -5510.9608     -148.50026      52169.883      219.1089     
     49010   750.05083     -5658.7405     -5509.9197     -146.76787      52145.269      219.02801    
     49020   754.40035     -5658.7104     -5509.0266     -141.49879      52119.727      218.97198    
     49030   760.41661     -5659.1635     -5508.2859     -95.338224      52093.264      218.94831    
     49040   757.52807     -5657.9865     -5507.682       198.1529       52066.249      218.94428    
     49050   763.75754     -5658.7266     -5507.1861      377.04692      52039.976      218.93757    
     49060   772.30847     -5660.0251     -5506.7881      426.03723      52015.403      218.91799    
     49070   781.49492     -5661.5658     -5506.506       367.02348      51992.81       218.89565    
     49080   770.7294      -5659.2773     -5506.3536      453.83071      51972.033      218.88215    
     49090   760.67549     -5657.2328     -5506.3039      367.25455      51953.306      218.88721    
     49100   755.44649     -5656.1971     -5506.3057      249.99022      51936.338      218.90618    
     49110   750.27461     -5655.1952     -5506.33        210.7085       51920.588      218.92128    
     49120   754.88961     -5656.1488     -5506.3679      243.40011      51905.826      218.92702    
     49130   764.06355     -5658.0249     -5506.4238      290.4757       51892.188      218.92098    
     49140   778.17678     -5660.9476     -5506.5462      227.69442      51879.9        218.90163    
     49150   782.71084     -5662.0869     -5506.7859      153.95107      51868.698      218.88105    
     49160   772.06832     -5660.3427     -5507.1532      210.93196      51858.291      218.86844    
     49170   764.42679     -5659.2927     -5507.6195      344.86098      51848.965      218.86667    
     49180   765.29774     -5660.0046     -5508.1586      439.22033      51841.32       218.89459    
     49190   763.37495     -5660.2291     -5508.7646      597.01079      51835.869      218.95353    
     49200   761.31773     -5660.4847     -5509.4284      662.33972      51833.346      219.03734    
     49210   761.65442     -5661.2534     -5510.1303      648.55112      51834.153      219.16256    
     49220   769.54199     -5663.5664     -5510.8783      532.12314      51838.208      219.33224    
     49230   767.00352     -5663.8539     -5511.6694      434.97785      51844.966      219.52268    
     49240   756.22025     -5662.5187     -5512.4737      496.59743      51854.087      219.70001    
     49250   749.19437     -5661.8892     -5513.2383      473.11067      51865.823      219.84978    
     49260   746.9341      -5662.1294     -5513.927       338.4753       51880.057      219.97552    
     49270   746.83735     -5662.7183     -5514.535       182.91379      51896.139      220.08883    
     49280   733.62206     -5660.6177     -5515.0566      172.77452      51913.383      220.19805    
     49290   721.01088     -5658.512      -5515.4531      180.26942      51931.704      220.30951    
     49300   721.52624     -5658.8712     -5515.7101      60.628025      51951.057      220.43309    
     49310   723.38218     -5659.3663     -5515.8369     -103.44712      51970.889      220.57014    
     49320   726.74152     -5660.0515     -5515.8556     -291.10136      51990.398      220.71605    
     49330   725.18667     -5659.6707     -5515.7832     -393.20901      52008.657      220.86664    
     49340   727.87322     -5660.0394     -5515.619      -550.82437      52025.068      221.01311    
     49350   743.79336     -5662.968      -5515.3888     -837.66516      52038.737      221.14337    
     49360   750.01906     -5663.9498     -5515.1353     -967.1136       52048.333      221.25026    
     49370   752.65967     -5664.234      -5514.8956     -1032.9411      52053.078      221.3345     
     49380   748.275       -5663.142      -5514.6735     -868.02674      52052.727      221.3971     
     49390   740.72772     -5661.4189     -5CHGNet v0.3.0 initialized with 412,525 parameters
CHGNet will run on cuda:0
CHGNet will run on cuda:0
514.448      -624.82576      52047.971      221.44576    
     49400   738.40858     -5660.7056     -5514.1947     -445.95157      52039.947      221.48024    
     49410   745.95036     -5661.9181     -5513.9109     -405.87131      52029.476      221.49338    
     49420   744.09564     -5661.2366     -5513.5973     -206.87083      52016.911      221.48885    
     49430   743.70866     -5660.8257     -5513.2632     -25.085411      52003.161      221.48213    
     49440   745.04372     -5660.7283     -5512.9009      110.51039      51989.131      221.49264    
     49450   743.65125     -5660.0669     -5512.5158      317.12843      51975.566      221.53236    
     49460   733.88529     -5657.7045     -5512.0911      600.65936      51963.546      221.60191    
     49470   731.56182     -5656.7571     -5511.6047      729.19177      51954.41       221.69719    
     49480   743.65958     -5658.5973     -5511.0446      545.98954      51948.763      221.80418    
     49490   751.57776     -5659.5769     -5510.4531      255.25151      51945.792      221.90907    
     49500   749.89991     -5658.6625     -5509.8716      74.55985       51944.167      222.0042     
     49510   748.90604     -5657.8923     -5509.2986     -107.81884      51942.92       222.08338    
     49520   756.51943     -5658.8489     -5508.7446     -272.93375      51941.13       222.15411    
     49530   772.8549      -5661.5746     -5508.2291     -433.01107      51937.927      222.22855    
     49540   775.2317      -5661.6313     -5507.8143     -392.42655      51932.547      222.30471    
     49550   765.99988     -5659.4963     -5507.511      -199.1735       51925.145      222.36768    
     49560   767.31046     -5659.5461     -5507.3008     -42.165814      51916.634      222.41218    
     49570   762.75986     -5658.5043     -5507.1618      216.14613      51907.898      222.45627    
     49580   756.42131     -5657.1643     -5507.0795      407.72987      51900.122      222.51731    
     49590   752.57781     -5656.3433     -5507.021       432.87246      51894.284      222.58533    
     49600   754.13525     -5656.6062     -5506.975       296.32638      51890.535      222.64587    
     49610   757.83153     -5657.3152     -5506.9506      232.73102      51888.324      222.69048    
     49620   765.47323     -5658.8518     -5506.971       257.78357      51887.333      222.72641    
     49630   765.97738     -5659.0225     -5507.0416      360.38773      51887.707      222.76363    
     49640   770.85395     -5660.1343     -5507.1858      364.40168      51889.888      222.8136     
     49650   763.4029      -5658.8569     -5507.3869      362.77376      51893.955      222.89403    
     49660   759.69327     -5658.3582     -5507.6241      218.34747      51899.818      223.01633    
     49670   755.99604     -5657.8678     -5507.8674      47.336178      51906.846      223.16094    
     49680   749.22495     -5656.7479     -5508.091      -72.338321      51914.196      223.29756    
     49690   752.89436     -5657.6649     -5508.2799     -199.23945      51921.21       223.41922    
     49700   756.91758     -5658.6284     -5508.4451     -216.21474      51927.304      223.53407    
     49710   754.10552     -5658.2256     -5508.6002     -39.096597      51932.454      223.63706    
     49720   756.1644      -5658.7811     -5508.7473      55.892187      51937.413      223.7341     
     49730   754.41767     -5658.575      -5508.8877      142.59955      51942.728      223.83639    
     49740   751.76719     -5658.1725     -5509.0111      203.42717      51948.813      223.93918    
     49750   749.76525     -5657.8689     -5509.1047      124.3308       51955.902      224.03797    
     49760   744.99109     -5657.0013     -5509.1844      145.19559      51963.778      224.12879    
     49770   738.48326     -5655.7654     -5509.2397      285.33444      51972.564      224.21419    
     49780   736.53427     -5655.3999     -5509.261       353.93978      51982.825      224.31707    
     49790   730.44879     -5654.1595     -5509.228       448.78752      51994.966      224.4572     
     49800   729.85997     -5653.9427     -5509.1281      499.47468      52009.499      224.64131    
     49810   738.63552     -5655.5149     -5508.959       357.51549      52026.585      224.86428    
     49820   745.38587     -5656.6469     -5508.7516      320.80787      52045.651      225.09836    
     49830   745.27232     -5656.3971     -5508.5244      350.89755      52066.489      225.31318    
     49840   756.84433     -5658.4559     -5508.2872      245.64381      52089.132      225.49485    
     49850   759.29967     -5658.7185     -5508.0626      179.5908       52113.152      225.64792    
     49860   756.54481     -5657.9879     -5507.8786      177.73421      52138.223      225.79648    
     49870   755.18723     -5657.5682     -5507.7283      57.374485      52164.174      225.9642     
     49880   739.78733     -5654.3694     -5507.585       48.807335      52190.558      226.15709    
     49890   734.79798     -5653.2023     -5507.4078      30.269053      52217.237      226.37802    
     49900   742.93187     -5654.5778     -5507.1694     -83.789506      52244.047      226.62538    
     49910   751.01456     -5655.902      -5506.8899     -141.05797      52270.469      226.88683    
     49920   751.34771     -5655.6687     -5506.5906     -35.735359      52296.227      227.13893    
     49930   759.81331     -5657.0453     -5506.2874      5.1760548      52321.774      227.36686    
     49940   766.42857     -5658.0762     -5506.0058     -44.935584      52347.265      227.56071    
     49950   759.48986     -5656.4685     -5505.7748      38.481729      52372.56       227.71039    
     49960   757.94274     -5655.9661     -5505.5794      10.49936       52397.978      227.84297    
     49970   757.92113     -5655.7936     -5505.4112      20.029925      52423.47       228.00877    
     49980   751.24428     -5654.3196     -5505.262       19.426997      52449.005      228.22583    
     49990   742.22729     -5652.3823     -5505.1138     -37.470116      52474.552      228.48656    
     50000   736.53778     -5651.0618     -5504.9221     -113.37994      52499.866      228.77695    
Loop time of 6874.73 on 1 procs for 20000 steps with 1536 atoms

Performance: 0.251 ns/day, 95.482 hours/ns, 2.909 timesteps/s, 4.469 katom-step/s
126.1% CPU use with 1 MPI tasks x 1 OpenMP threads

MPI task timing breakdown:
Section |  min time  |  avg time  |  max time  |%varavg| %total
---------------------------------------------------------------
Pair    | 6706.5     | 6706.5     | 6706.5     |   0.0 | 97.55
Bond    | 0.0064644  | 0.0064644  | 0.0064644  |   0.0 |  0.00
Neigh   | 5.6723     | 5.6723     | 5.6723     |   0.0 |  0.08
Comm    | 0.65812    | 0.65812    | 0.65812    |   0.0 |  0.01
Output  | 160.24     | 160.24     | 160.24     |   0.0 |  2.33
Modify  | 1.5256     | 1.5256     | 1.5256     |   0.0 |  0.02
Other   |            | 0.1395     |            |       |  0.00

Nlocal:           1536 ave        1536 max        1536 min
Histogram: 1 0 0 0 0 0 0 0 0 0
Nghost:           2470 ave        2470 max        2470 min
Histogram: 1 0 0 0 0 0 0 0 0 0
Neighs:              0 ave           0 max           0 min
Histogram: 1 0 0 0 0 0 0 0 0 0
FullNghs:        45506 ave       45506 max       45506 min
Histogram: 1 0 0 0 0 0 0 0 0 0

Total # of neighbors = 45506
Ave neighs/atom = 29.626302
Ave special neighs/atom = 0
Neighbor list builds = 2000
Dangerous builds = 2000
System init for write_data ...
System init for write_restart ...
Total wall time: 2:56:35
