LAMMPS data file via write_data, version 2 Aug 2023, timestep = 50000, units = metal

1536 atoms
3 atom types

-1.61843818372283 24.354412739930478 xlo xhi
-0.9434695046231738 23.679444060830818 ylo yhi
-6.94187702473792 75.14980069336235 zlo zhi

Masses

1 35.45
2 39.0983
3 6.94

Atoms # full

1146 0 2 1 -1.2860269484452433 0.055646114490934595 -5.950396033648812 0 1 1
688 0 1 -1 4.508770423300285 -0.05909294321422831 -4.704780741394162 0 1 0
6 0 1 -1 7.460772918787995 2.5005737493563345 -4.163883284296893 0 0 0
393 0 3 1 6.711798252695365 0.2227425953906219 -4.299442356951019 0 0 0
676 0 2 1 10.274613780724689 -0.6997180322001821 -6.604763583469752 0 1 0
961 0 2 1 13.248895429919006 2.333877856009172 -6.322254883689349 0 1 0
1060 0 2 1 17.889661909010123 -0.41507506434395347 -6.434109693130009 0 1 0
1131 0 2 1 1.178810237112386 5.5154412627251 -5.4695680932171635 1 1 1
669 0 1 -1 3.6277341223345907 5.7298506000186675 -4.237646991508954 0 0 1
292 0 2 1 4.766180214733643 3.3284924388866477 -6.286266797221956 0 1 0
383 0 1 -1 6.978150084539472 5.513294510588293 -6.620101369840898 0 1 1
1528 0 1 -1 10.424197626780318 4.4010294617650505 -5.267831642808984 1 1 1
59 0 3 1 8.6654868613461 3.2486259342894535 -6.1601532674071295 -1 1 1
1345 0 2 1 17.08635849530428 4.0016769618996735 -4.708083126685709 0 0 0
1240 0 1 -1 19.653544201346577 4.491345212159451 -6.240651979024709 0 0 1
392 0 1 -1 23.726195283428943 3.3449969782066873 -6.235210287902011 -1 0 0
4 0 3 1 -0.13064557228276352 8.251407744830196 -4.705781676265628 0 0 0
582 0 1 -1 -1.3710683220857187 8.828357293278826 -6.628040257842102 0 0 0
486 0 1 -1 2.0851452459930426 8.743303557975693 -5.669262845825871 0 0 0
467 0 3 1 4.601119749162077 7.037017842028059 -6.0782350885592065 0 0 1
866 0 2 1 8.411988524716039 7.21107165713463 -4.490129393293905 0 0 0
97 0 2 1 21.482764324162336 7.197735664969125 -4.563043354068666 -1 0 0
289 0 2 1 -0.007202877210970682 11.666799390010333 -4.065875967114739 0 0 0
100 0 3 1 3.750746173179108 10.305347342585797 -5.67383050490341 0 0 0
93 0 1 -1 3.0036086007612264 12.23636622374283 -4.608368830907148 0 -1 1
8 0 1 -1 5.804234106595038 9.674553433326418 -5.636802658721471 0 0 0
382 0 1 -1 9.696544965099084 10.261401769497255 -4.269061578311351 0 0 1
580 0 3 1 10.151115155401431 12.349867588177995 -3.86633920612084 0 0 0
1507 0 3 1 11.660378848264497 10.067385696520422 -5.08742392413518 1 0 1
755 0 3 1 13.671590007336032 11.596334286051865 -4.149009922686496 0 0 1
966 0 1 -1 13.98625400992359 9.71870557253648 -4.854069126188957 0 0 0
485 0 1 -1 12.058704199111409 12.036819030482588 -6.21344281476939 0 0 0
573 0 1 -1 15.517219228127193 12.74421447483769 -5.236513054265448 0 0 1
1052 0 2 1 16.948674340307054 9.830879843288342 -6.252863552402755 0 1 1
199 0 1 -1 23.220296832409538 12.715696268125857 -3.9961703942751705 -1 0 0
196 0 2 1 22.783196154508097 11.612835513158839 -6.88178444979392 -1 0 0
880 0 1 -1 9.669606828297411 14.174043521632088 -5.62786370978745 0 0 0
570 0 2 1 12.85709659531761 14.885848373464084 -4.902808051992578 0 0 1
475 0 2 1 18.532204782804296 14.607957992466046 -6.441468771170742 0 -1 1
578 0 2 1 22.817487988645667 15.961611968292964 -4.138847744089758 -1 0 0
1348 0 2 1 -0.1288164969089689 17.05449851609617 -6.033495271630435 1 0 0
968 0 1 -1 1.6371459726165227 18.776596745666108 -3.996175429771198 0 0 0
1527 0 1 -1 8.321536306989156 18.22665256500369 -5.91257214646755 1 0 1
370 0 3 1 10.232110055201794 18.060102322754027 -4.290437640083908 -1 1 1
378 0 3 1 13.106483818056235 17.926926668735586 -4.505864452354523 -1 1 1
1236 0 3 1 11.561447307835468 20.00174677497292 -6.351432790555 0 0 1
1349 0 1 -1 20.193596061393407 17.282637136630083 -6.100997381774782 0 0 0
1350 0 1 -1 23.774700802597156 18.841297576204955 -3.8793778253925986 0 0 0
376 0 1 -1 0.448477133393153 22.335886607806682 -5.301098725819834 0 0 1
282 0 3 1 2.4052626204904524 20.4087102924597 -5.172156932390957 -1 0 1
863 0 1 -1 3.6675142226798947 21.23233588542392 -6.864581891299979 0 -1 1
1434 0 3 1 4.995930856455831 22.197139983746233 -4.970187237827382 0 0 1
1055 0 1 -1 7.480566113509436 22.827987229085508 -5.790362785366121 0 0 1
1062 0 1 -1 12.860510628519153 23.51630976904421 -4.6440148069449245 0 0 0
1330 0 3 1 14.605431757629152 22.005849432977655 -5.6697012014024315 0 -1 1
1151 0 1 -1 13.49866284881419 20.27219846967287 -4.676268698822719 0 0 1
1346 0 2 1 20.784826288838204 20.24283538848305 -5.0301285773705935 0 0 0
263 0 1 -1 22.88788083057998 22.721551311937464 -4.848854708450551 -1 -1 1
293 0 1 -1 -1.2341482566581918 0.18095481264725932 -2.4953761223798585 0 1 0
674 0 3 1 8.30607531501247 -0.8412228010443479 -0.9773031175465308 0 1 0
1063 0 1 -1 10.50861001341608 -0.8874525988011014 -1.4888139289299076 0 1 0
1161 0 3 1 14.43803187048325 0.20542277483671234 -3.377346466437776 0 0 0
1158 0 1 -1 13.953435943955075 0.22350692104664227 -1.0123275401286325 0 0 0
1447 0 1 -1 16.699940560109177 1.230790037693446 -3.522906799412952 0 1 0
1257 0 2 1 17.535509568302675 2.0336007181279485 -0.6833924625669319 0 0 0
1446 0 1 -1 20.147138620652363 1.452274272006211 -2.48335026795435 0 1 0
764 0 2 1 -0.35053048412835497 5.983462930133243 -1.0492842112228926 0 1 1
400 0 1 -1 -1.594153272956598 3.476886029116776 -0.9766527906631595 0 0 0
871 0 1 -1 7.972003474082339 4.865667161452147 -0.9092766095790861 0 0 0
781 0 1 -1 10.97220419122871 2.666767421113437 -1.7459801419124235 0 0 0
772 0 3 1 8.535061040327827 2.5997295522218264 -1.8829861610816323 0 0 0
387 0 3 1 11.428609848437672 4.435669504000881 -3.384990235225178 0 0 0
575 0 1 -1 13.8457399591226 4.113389661039747 -3.5322285626587826 0 0 1
1153 0 2 1 22.95909073904655 2.5820297980832674 -3.297565690468355 0 0 0
1254 0 1 -1 -1.1789171375086114 8.139778489843144 -2.804803037297373 1 0 0
483 0 3 1 3.715484410549548 7.437805501385325 -2.910394110117096 0 0 0
390 0 1 -1 2.433433436770007 7.291158179718087 -1.1690697782856594 0 0 0
775 0 1 -1 6.273948070299344 8.177830594565252 -2.0866274420542803 0 0 0
389 0 1 -1 10.891793109250292 6.834729276083831 -2.8873728817586493 0 0 0
875 0 2 1 10.14440327892669 9.281018819217577 -0.8989343080672132 0 0 0
388 0 2 1 14.003304362703698 7.211995387154262 -3.2861270834461407 0 0 0
964 0 3 1 16.870459005302887 9.342788441692337 -2.5684125607404704 0 0 0
1256 0 1 -1 16.786645427935895 6.78461291221235 -3.053958769220866 0 0 0
878 0 1 -1 14.943068356252592 9.477795970433815 -1.0926153804624512 0 0 0
1160 0 1 -1 20.815201657525122 6.205741985632331 -1.9045520970537053 0 0 0
865 0 3 1 18.661093048526013 6.136194800444301 -1.7978791683890165 0 0 0
98 0 3 1 19.174837094086335 8.988362202344671 -1.4021824551266748 -1 0 0
101 0 1 -1 18.717956266597003 8.939366880396438 -3.736015523839866 -1 0 0
876 0 2 1 6.041522898709206 11.85205993128879 -1.7209730198187705 0 0 0
965 0 1 -1 11.516471091366071 12.845038881151325 -2.157982697835128 0 0 0
1351 0 1 -1 17.273583977501556 12.05695416163061 -1.0136857859802078 0 0 0
201 0 3 1 20.996883318883924 12.401132411108618 -3.0085143706210467 -1 0 0
102 0 1 -1 20.65371896951189 10.572721165790602 -1.535530932262322 -1 0 0
584 0 1 -1 0.895039132680211 15.27567154459948 -3.2462443543093022 0 0 0
379 0 3 1 -0.4309078806050237 14.793898702103379 -1.5589795886301898 0 0 1
488 0 1 -1 3.1633411759684167 15.968509517305137 -0.7127834000795685 0 0 0
482 0 3 1 2.463881983405101 13.937273708901635 -2.6048412085328643 0 0 0
1250 0 2 1 9.199871288283527 15.533725230437206 -0.9577812068619904 0 0 0
381 0 1 -1 11.601955246796269 16.57313253876039 -2.8655122184934294 0 1 1
1441 0 2 1 16.75855990481673 14.909327223908683 -1.818779236169454 0 0 0
1352 0 1 -1 19.4230618258677 13.957804157432957 -3.240773613413385 0 0 0
198 0 1 -1 23.26358824816999 15.700251639023236 -1.3061900558808555 -1 0 0
1443 0 2 1 0.05075819767089218 18.723116520373836 -1.3332772306474165 1 0 0
579 0 2 1 3.613065553542386 16.822312439740045 -3.6875310039348035 0 0 0
967 0 1 -1 7.052371347514107 17.633122164810416 -2.2676920799939246 0 0 0
94 0 1 -1 15.215382122075226 17.427885579708224 -3.44207646008116 0 0 1
1448 0 1 -1 14.889144571862836 19.34400610274609 -1.0432850196555972 0 0 0
1436 0 3 1 15.975245929864162 19.642658647670537 -3.359642168799552 0 0 1
1442 0 3 1 18.83843960474862 18.88135319365617 -1.6904268583684674 0 0 0
1536 0 1 -1 21.056427996074383 19.682637153765196 -2.2508093672359335 0 0 1
1347 0 3 1 22.526540438114743 17.89289299115508 -1.552960935636591 0 0 0
83 0 3 1 -1.359500061428741 22.69585877027788 -3.5187160716000236 0 -1 1
1344 0 1 -1 -0.5091203727580325 21.3763512014482 -1.8247798948873362 0 -1 1
682 0 2 1 1.8928193187326445 23.214989878413572 -2.226018624603272 0 0 0
680 0 1 -1 4.030217308653148 21.143870883362396 -2.815117641197957 0 0 0
380 0 2 1 6.994694243841339 20.26013916968595 -3.7275133880216207 0 0 1
685 0 1 -1 7.696031664193422 21.5898995103657 -0.9043000048193326 0 0 0
581 0 1 -1 10.121378268188293 20.40536009473563 -3.5212056250262833 0 0 0
684 0 3 1 10.46385668002597 21.42662835746939 -1.5983085657578382 0 0 0
1068 0 2 1 13.32374106516133 21.66231094344136 -2.1592547561981403 0 0 0
1445 0 1 -1 17.840402998577016 20.92665560915591 -3.542579484288575 0 0 0
385 0 2 1 19.858405803557655 22.945080204586485 -3.33083961915371 -1 -1 0
771 0 3 1 23.105935991709824 20.78250093114022 -2.80595490625861 0 -1 0
481 0 3 1 0.04351095325810639 1.7867770407553731 -0.5152814583483405 0 0 0
294 0 1 -1 -0.9568946358048374 0.9859989822770974 1.8850532868075103 0 1 0
13 0 1 -1 2.1504066467130265 2.4707345454680514 0.08990231054550701 0 0 0
99 0 2 1 4.543333209234367 0.8879914313318216 0.8295864684346705 0 0 0
391 0 1 -1 7.393399957786917 1.0825045526944748 0.19292050394772886 0 0 0
769 0 3 1 12.051396111264673 1.2252118717308238 0.03739519120167145 0 0 0
1064 0 1 -1 11.788293958269097 1.1657336789234458 2.377132354852641 0 1 0
1450 0 2 1 15.203190165176018 -0.9100080165542969 2.1811536160932405 0 1 0
1444 0 3 1 20.744586041149166 0.7095251147786299 -0.24311859154269033 0 1 0
16 0 1 -1 20.417490764336637 2.034334239251957 1.5124895731530401 -1 0 0
399 0 1 -1 0.4935818016024056 5.295507084686193 1.6627355313234098 0 0 0
9 0 3 1 -1.1458979162438436 3.578617042778121 1.4669688186764542 0 0 0
12 0 3 1 3.305123100276643 5.321519824641108 0.33964992389110726 0 0 0
777 0 2 1 7.374941436234668 3.8464342599684853 2.2153041601950516 0 0 0
776 0 1 -1 4.917757433041275 6.077832675818676 1.4449677030574417 0 0 0
1162 0 3 1 9.52198827723159 5.871112360893582 0.05736796165037017 0 0 0
1167 0 1 -1 11.128900041972702 5.106258950256701 1.9094220281187138 0 0 0
1132 0 2 1 13.643380583926493 4.045655722477482 -0.6196968732620842 0 1 1
103 0 1 -1 18.138467863992105 4.80415505865843 -0.0288221336760639 -1 0 0
109 0 1 -1 -0.2021829177757133 9.306118168938731 1.492443327147166 0 0 0
492 0 3 1 6.465259148746597 6.579020990436611 0.011879580544395196 0 0 0
877 0 1 -1 8.311552488554556 7.109496290362527 1.6841178510746406 0 0 0
1168 0 1 -1 12.114272428914676 9.031141473606876 1.9279168371503204 0 0 0
963 0 3 1 14.388211564629081 8.34719147942259 1.3596145456368145 0 0 0
981 0 1 -1 14.93285786207424 6.257483085648921 1.101187361160962 0 0 0
1259 0 3 1 17.432841025289132 6.537037867303809 1.12980249310087 0 0 0
112 0 1 -1 18.595978039264473 9.144911718723403 0.773848112160942 -1 0 0
1251 0 2 1 21.368605456505747 6.82414493375825 1.105581830219986 0 0 0
487 0 1 -1 -0.029594216521431127 12.778758257436998 -0.18288340438784 0 0 0
493 0 1 -1 3.2727825004437134 12.855065934411812 -0.35252660306691386 0 0 0
489 0 2 1 2.1665082110657496 11.65531176521477 2.027369601152902 0 0 0
501 0 1 -1 5.032584674878168 10.296151635810007 2.2865511002008265 0 0 0
778 0 3 1 7.270499821417962 9.738095533176258 2.192246374905519 0 0 0
976 0 1 -1 8.513467944979537 11.41358121914238 0.5440864989543401 0 0 0
1354 0 2 1 14.480680629798105 12.774249042504056 1.3990110840473164 0 0 0
969 0 3 1 16.439303853179997 10.371255900357658 0.456751144059135 0 0 0
577 0 2 1 23.28956209461934 9.926459997949173 -0.5509580029151895 -1 0 0
585 0 3 1 1.6213098803389312 16.499854982508054 1.3316766323126004 0 0 0
194 0 3 1 -1.4518136906256462 14.567789361619221 1.00391268428982 0 0 0
88 0 1 -1 -0.5558294542564655 16.44747735009846 1.910701588191003 0 0 1
484 0 3 1 4.430417466778176 14.477836427663203 0.9002737243877723 0 0 0
589 0 1 -1 6.520222099784352 14.425154256967387 0.632902905060762 0 0 0
1360 0 1 -1 15.13312692412185 15.715351176883011 1.0633979008046932 0 0 0
1260 0 2 1 20.136233093199355 13.251506486903258 0.0058674869538810626 0 0 0
1262 0 1 -1 18.829127585099798 15.094477215025265 2.1948512500883055 0 0 0
583 0 1 -1 22.482257409102427 14.039450956649478 1.893708118100479 -1 0 0
679 0 1 -1 3.5398077928772063 17.882206290998717 2.274170301980517 0 0 0
591 0 1 -1 7.862512927158221 17.69804108107045 1.1383004591444745 0 0 0
1065 0 3 1 8.399630770843924 19.028411110121294 -0.12933411938921147 0 0 0
1067 0 2 1 12.452510325744612 17.844581514794626 0.4954287577003127 0 0 0
1059 0 3 1 15.721315641294549 18.783419557860636 0.9764948909552196 0 0 0
298 0 3 1 17.45200183602054 16.88973456773743 2.3053514374634236 -1 0 0
295 0 1 -1 18.50470118909604 18.286355584840944 0.5381072762138297 -1 0 0
208 0 1 -1 23.296252322884442 19.57655119714082 0.16060172589087784 -1 0 0
675 0 2 1 4.551182282605506 20.174319785465418 0.5936086125260793 0 0 0
678 0 1 -1 2.740091170781846 22.660293742860965 1.2625001100650213 0 0 0
588 0 2 1 10.539263859973559 23.25662976021021 1.9226737211790272 0 0 0
1069 0 1 -1 11.985573876785061 21.09197505569775 0.3144933115264399 0 0 0
870 0 1 -1 15.535347181819105 20.836076212087825 1.8997155072778078 0 0 0
1440 0 1 -1 20.43712869924062 22.974701585271973 -0.2678817519215544 0 0 1
291 0 2 1 19.461352824802535 21.04299608708523 2.3224200691033996 -1 0 0
673 0 2 1 23.52769866677007 23.18134962644648 0.5162637001977899 -1 0 0
686 0 1 -1 4.807961321688434 2.054653551727759 3.9871397653174583 0 1 0
396 0 3 1 7.1806494333631985 1.609412436110294 5.289755910936927 0 0 0
1070 0 1 -1 8.724363317654701 0.032191692238667025 5.506904054922792 0 1 0
1159 0 1 -1 14.559342217114498 1.7059939125783599 5.492353136462635 0 0 0
1157 0 1 -1 16.944192006340533 1.8211523511443803 2.90936052327301 0 0 0
1164 0 3 1 19.17025470251246 0.9696145995287635 3.2801964437376956 0 0 0
312 0 1 -1 19.52894575154969 1.7586281108886008 5.445472882391234 -1 1 0
300 0 2 1 24.21921958986991 1.63858213373432 5.1258297486095525 -1 1 0
1249 0 2 1 1.5398801673113987 3.06260281654344 3.4298888745684497 1 0 0
408 0 1 -1 1.705351430807323 6.007160336251434 5.494489085787539 0 0 0
779 0 2 1 10.972775631618985 2.606822761261808 4.776433460669521 0 0 0
397 0 1 -1 8.159543132211049 3.9404083999775423 5.335398403606755 0 0 0
1165 0 1 -1 14.145560544632906 4.842204084052469 4.396765943439396 0 0 0
1155 0 3 1 14.901014409479163 2.7888898935364788 3.5207015964786272 0 0 0
2 0 2 1 20.507719409294694 4.207896863363754 3.6749102485716456 -1 0 0
15 0 1 -1 23.83150636117638 4.017126744028959 3.449599711953379 -1 0 0
491 0 2 1 2.1293966006589007 7.4201445057102795 2.7985845583700204 0 0 0
879 0 1 -1 5.999223795675743 7.338969094196923 5.503916399998991 0 0 0
1156 0 3 1 11.745627043693014 6.778981249049093 2.898950950263334 0 0 0
782 0 1 -1 12.518548669009734 8.02555304861347 5.298703228890785 0 0 0
11 0 3 1 16.177205650813054 6.419917719650978 3.7280918162713608 -1 0 0
1176 0 1 -1 16.837178281748535 8.21735072401684 5.590431074987849 0 0 0
1263 0 1 -1 18.42252181630841 6.115764924229296 3.2271684759280124 0 0 0
1172 0 3 1 19.121023257449988 7.690080563868083 5.660418436568936 0 0 0
107 0 3 1 22.666207925181837 8.519612032810587 4.774365487874997 -1 0 0
496 0 1 -1 22.10683280857622 8.957743837515737 2.790508415948384 -1 0 0
404 0 2 1 4.3575305358165926 9.748205057741707 5.5172720915324955 0 0 0
111 0 1 -1 1.7863862162397202 11.448117338864627 5.223986462027035 0 0 0
490 0 3 1 6.407340585543357 12.318958216219652 2.6101906690464673 0 0 0
495 0 1 -1 7.019459678392261 12.611351257035752 4.702422806597541 0 0 0
1268 0 2 1 11.888996535694385 11.030865574302547 4.344782446193394 0 0 0
1264 0 1 -1 15.215279224410324 10.302122084360242 2.6397775872181484 0 0 0
105 0 2 1 18.13160945818352 10.109317454265543 4.010445515861372 -1 0 0
1353 0 3 1 20.16846041894713 12.759545072037575 5.562799328839851 0 0 0
108 0 2 1 24.292251324676762 11.340979071932386 2.7916783584899747 -1 0 0
592 0 1 -1 3.741701425354041 14.283337670149983 3.1047957001965294 0 0 0
962 0 2 1 6.55151465601176 16.02710748072347 3.1395128901478415 0 0 0
974 0 1 -1 11.993685400753348 14.962119301461888 3.153646450518142 0 0 0
1258 0 3 1 12.213918455261368 14.41783729475481 5.268009074060496 0 0 0
1359 0 1 -1 14.296309358498974 15.302858762894935 4.941711673874881 0 0 0
1363 0 3 1 13.93300052975371 16.10648372209792 3.032861223781712 0 0 0
1460 0 2 1 17.48922468702319 14.963728437036814 5.050533763801694 0 0 0
681 0 2 1 -1.2708032940384062 19.446091311780883 2.5405417492161497 0 0 0
206 0 1 -1 0.4514154710281568 19.019222527260194 5.426378869099885 0 0 0
689 0 2 1 3.8588989608042477 18.49413612671919 5.031646399826332 0 0 0
972 0 2 1 11.039127331027021 17.986058495358584 5.430045298853589 0 0 0
973 0 1 -1 13.108410766376482 18.70617754063369 2.9876401035613895 0 0 0
1456 0 1 -1 18.08189894485049 18.256098732062497 4.02934508578659 0 0 0
1356 0 2 1 20.96580121574743 17.10887171339934 2.995320000041458 0 0 0
1453 0 1 -1 21.649621637499816 19.97313639131213 4.348943479934029 0 0 0
301 0 1 -1 -0.8317439352679377 22.576048906369177 3.548829455106965 0 0 0
586 0 3 1 0.800785160265924 23.664400024379002 2.5335012981121316 0 0 0
683 0 3 1 0.5274449449347935 21.390666220444846 5.6683096022795265 0 0 0
1072 0 1 -1 11.91430647845618 22.017005987756853 4.02307657514749 0 0 0
1449 0 3 1 14.040170269983651 20.539638012974258 4.3429423656812105 0 0 0
7 0 1 -1 15.444932801731426 22.683305440067755 4.6805735485778275 -1 -1 0
304 0 1 -1 20.975665511784964 23.605786037995028 4.095370516055953 -1 0 0
14 0 1 -1 0.639230638369821 2.3372236476583104 6.878211361277668 0 0 0
416 0 1 -1 5.77664940921143 1.6278311683034619 7.562371928365723 0 0 0
1169 0 2 1 13.775098101895583 -0.8266327619287724 6.885732515654167 0 0 0
3 0 2 1 17.063287118173005 -0.018566167155022906 6.374248364899419 -1 0 0
1277 0 1 -1 16.21953553600821 1.0540055783180153 8.841976809836202 0 0 0
308 0 3 1 20.365031796887113 -0.6053176073485959 6.221064323723986 -1 1 0
303 0 1 -1 22.561310074427094 -0.1770211891537915 6.741353788357237 -1 1 0
1171 0 3 1 23.250342748020206 1.8432492231831223 8.168679817946916 0 0 0
306 0 3 1 -0.48913371812880935 3.7918400346698657 7.694786942289305 0 1 0
395 0 2 1 4.175194017806191 4.327427773079855 5.967936066173015 0 0 0
386 0 3 1 6.925884019867855 3.5652177247636363 7.885566879317693 0 0 0
398 0 1 -1 5.404956727992799 5.359689972257227 8.645455685578431 0 0 0
792 0 1 -1 11.277456911551457 4.184513166269811 7.579146241994852 0 0 0
892 0 3 1 12.823878195131297 5.680617487427725 6.259538817779015 0 0 0
788 0 2 1 15.778727716165893 3.6697877453409085 7.167334414684387 0 0 0
1173 0 1 -1 18.224741404591924 5.387960815423404 6.78378800894764 0 0 0
22 0 1 -1 23.33581739828819 4.382515883872328 7.648163107593101 -1 0 0
203 0 3 1 0.6123799886278714 6.38105681278644 7.348508419319462 0 0 0
1269 0 1 -1 -1.327896264002929 8.37895376972295 6.826383309074085 1 0 0
120 0 1 -1 2.0087783753323785 8.438411707830147 7.824082500433258 0 0 0
884 0 3 1 6.031741851220068 7.579423875841954 8.037307869720664 0 0 0
780 0 2 1 9.694299942786666 6.850316579136226 6.025681468522876 0 0 0
887 0 1 -1 8.538522453543504 8.234875970985385 8.591697159585507 0 0 0
791 0 1 -1 14.05886635957097 6.750350747048943 8.10755501765331 0 0 0
121 0 3 1 14.519507605285554 8.512552653607699 6.257690179142601 -1 0 0
113 0 3 1 16.920750679519838 7.065863605146205 8.541902784561191 -1 0 0
1166 0 1 -1 18.666073409885875 8.524728564863564 8.67830898224692 0 0 0
1261 0 1 -1 21.322555236145487 6.962958483065507 5.784862201562863 0 0 0
115 0 3 1 22.851608000839654 6.849065906930553 7.505527614928912 -1 0 0
500 0 3 1 0.3656825906974932 10.304552343122062 6.784476979554112 0 0 0
1271 0 1 -1 14.33336627453342 10.770782012157651 7.2736312506555585 0 0 0
1272 0 1 -1 11.384158080556901 12.830939138591624 6.966540283005461 0 0 0
1357 0 1 -1 17.824370596844343 12.47289460538009 6.151196244709716 0 0 0
1355 0 2 1 17.10296865389773 10.981109896175843 8.574666422313756 0 0 0
110 0 1 -1 21.47318048705746 10.841256610884644 5.732042284527049 -1 0 0
205 0 1 -1 -1.1074037689503253 13.273331652034566 7.012513722580042 0 0 0
204 0 2 1 1.4547253922655927 14.485982900962506 5.81700891783634 0 0 0
601 0 3 1 4.769981801528197 15.043833538373264 8.72978936602525 0 0 0
494 0 1 -1 5.037759573134916 16.083398958280295 6.728473154807389 0 0 0
587 0 3 1 7.3968556526138745 14.210214643822779 6.461801854623998 0 0 0
975 0 1 -1 8.582211069646265 16.45257023322868 5.989719667042529 0 0 0
1358 0 1 -1 17.051825042786554 16.503418648034863 7.980780013730387 0 0 0
202 0 2 1 19.68207493930847 15.682952251643258 8.551824544630826 -1 0 0
207 0 1 -1 21.2616962514033 14.735353626082286 6.179436961109225 -1 0 0
106 0 3 1 22.695830239257216 13.146842758350154 7.50124860198442 -1 0 0
299 0 3 1 0.11527339567959038 19.247680618891973 7.675679498539294 0 0 0
216 0 1 -1 -0.7193994999183375 17.3273622671832 8.559840955921578 0 0 0
595 0 2 1 7.4120343873082035 17.656058987756523 8.397501203865254 0 0 0
693 0 1 -1 5.54367737425601 19.776933716082734 7.4210658491330115 0 0 0
1077 0 1 -1 12.68414075733503 16.98768691511358 8.321372337043721 0 0 0
1455 0 1 -1 14.347577797321748 19.894532032146962 6.5051489289538615 0 0 0
971 0 3 1 14.47247908925096 17.78863382240708 6.812439413812514 0 0 0
18 0 2 1 17.584480353366992 19.73490861028686 6.289716146663171 -1 -1 0
1464 0 1 -1 19.925457993903716 18.96230914777464 8.777049903588674 0 0 0
1163 0 2 1 22.42290846191219 17.714205594617688 7.311348388194215 0 -1 0
401 0 2 1 1.3211752519492177 23.33497754719974 8.732911482277075 0 -1 0
302 0 1 -1 -1.4398542150542002 21.621938254428418 7.664780347957656 0 0 0
687 0 1 -1 2.529437654313676 21.79370789924039 6.674425796193651 0 0 0
1074 0 3 1 3.5946657058485325 20.67652875458916 8.305536701115388 0 0 0
692 0 2 1 6.613767969517836 22.6124366393744 6.893870955714933 0 0 0
1071 0 1 -1 9.217198473585988 20.625045949785758 6.237229629277653 0 0 0
1066 0 3 1 9.650727302677048 21.499163222100243 8.445375386507942 0 0 0
1058 0 3 1 10.471518786916604 22.308478087142536 5.78606155391593 0 0 0
789 0 1 -1 11.0782567192988 22.990394734588186 8.022206687747643 0 -1 0
1454 0 1 -1 19.097502066138826 22.1863126620306 6.925298528465152 0 0 0
297 0 3 1 21.293312652654304 22.045817932347138 5.7494462008676255 -1 0 0
21 0 1 -1 -0.9695477531653868 1.1220077580766907 10.182732611611794 0 0 0
20 0 3 1 0.8934652955077325 2.197526265910983 9.602650788426029 0 0 0
316 0 3 1 3.710579834021762 -0.031249530786828905 11.323208283896847 0 1 0
503 0 1 -1 3.2000997301813126 1.90741189284967 9.726931390194494 0 0 0
784 0 1 -1 8.099958499923625 2.3288509973564984 10.192007057424632 0 0 0
402 0 3 1 5.781447247876933 1.8162250979075965 9.887424377043775 0 0 0
696 0 1 -1 6.007304486836743 0.17796569634601056 11.716819614965921 0 1 0
1076 0 2 1 9.506291343322829 -0.5232094465917233 11.023285497149224 0 1 0
790 0 1 -1 13.170398516613965 -0.8779228767278995 10.6176346638972 0 0 0
1451 0 3 1 15.350636900672455 1.8408812054191102 10.994902324541666 0 1 0
310 0 1 -1 21.607722089484124 2.3518235868533726 9.535729544196553 -1 1 0
117 0 1 -1 0.6515417639903305 4.821422125807711 9.153608750588536 0 0 0
499 0 2 1 3.884902967533389 5.9474966407251335 11.695621295884084 0 0 0
405 0 1 -1 10.079120242684297 4.85338650718434 11.068288594495037 0 0 0
873 0 3 1 9.516050322083553 3.7513976539379117 9.271287287957996 0 0 0
785 0 2 1 13.566860055232183 5.619515049211384 11.049249408962009 0 0 0
24 0 1 -1 16.65800316025625 5.423907058975888 10.405293339053763 -1 0 0
17 0 2 1 18.597367749511765 3.665302223613164 8.912874178314247 -1 0 0
28 0 2 1 21.425465968479525 5.843029882446462 10.747777312357012 -1 0 0
123 0 2 1 23.695772280972726 3.1586511708635836 11.788484276016913 -1 0 0
394 0 2 1 -0.4330920196321293 7.846291031071116 10.129371966183971 0 0 0
504 0 1 -1 5.526950640327537 9.28386868141631 10.05023977796214 0 0 0
881 0 2 1 7.9401446531489555 7.1034094785906845 11.255848393618791 0 0 0
119 0 1 -1 22.728868425141723 8.26965742542266 9.506031907865772 -1 0 0
118 0 1 -1 -0.27022609813544873 10.730123609347281 11.629953581068055 0 0 0
497 0 2 1 2.547834684572889 10.475724854354658 10.472142423091682 0 0 0
977 0 2 1 8.410887546487187 11.133691854249376 9.541957215592 0 0 0
1266 0 2 1 13.300214546864481 11.209999083919296 10.168528733363281 0 0 0
885 0 1 -1 11.405610285634564 12.654622265722251 11.996975329092269 0 0 0
1365 0 1 -1 15.77619406958733 11.694699555360707 11.547890876375359 0 0 0
1265 0 3 1 20.73105112861688 9.830986826830353 9.080800634237065 0 0 0
128 0 1 -1 20.26652297829191 10.789459586960815 11.194562953331214 -1 0 0
116 0 2 1 23.232561534025674 12.63144135504095 11.803324364209825 -1 0 0
305 0 3 1 0.2993895008008467 15.268182144303225 9.379631618790835 0 0 0
599 0 1 -1 -0.07093023414128363 15.47087219342465 11.611649530635454 0 0 0
309 0 1 -1 2.247196299487124 13.532786667969486 9.23117208985099 0 0 0
597 0 1 -1 7.637446242857477 14.241380214675996 9.02673667838144 0 0 0
593 0 2 1 7.118473797359824 13.904439155533222 11.979799860807674 0 0 0
600 0 1 -1 4.951444664298843 16.10551724652484 10.791447500162587 0 0 0
979 0 2 1 11.035238123662515 15.039418683664527 10.313578154795284 0 0 0
1364 0 2 1 14.839323307300575 16.491593667892943 10.169162806498573 0 0 0
1373 0 1 -1 18.475594929012047 16.375023786534815 11.496274057695032 0 0 0
213 0 1 -1 22.389979120656225 14.274615280005973 9.338084550070732 -1 0 0
19 0 3 1 -1.0058422478877156 20.097639817389055 10.670009834933818 0 -1 0
590 0 1 -1 8.739349490635075 17.33124288234104 10.925647087692113 0 0 0
985 0 3 1 8.967282218969535 19.695478135454934 11.506823169656492 0 0 0
970 0 3 1 10.792523263171926 18.37169320140715 11.381873545522964 0 0 0
1461 0 1 -1 16.873505732081508 20.15531517428357 9.948483619455107 0 0 0
209 0 3 1 18.011018531331338 18.33315451007701 10.171600244264027 -1 0 0
212 0 2 1 22.794569319977185 17.015142309909116 10.981047733676544 -1 0 0
215 0 1 -1 22.444473293233155 19.961042436687336 11.125238648656097 -1 0 0
407 0 1 -1 1.203036517253178 20.202812123267627 9.730955215838723 0 -1 0
29 0 1 -1 4.120887759299961 22.2090513305043 9.928831521456896 0 -1 0
783 0 1 -1 7.8878882974485265 21.212810522486727 9.790792731518533 0 -1 0
1073 0 3 1 6.114015898739318 20.276529593552244 11.035438106653178 0 0 0
980 0 2 1 13.625282833084004 21.229539406262326 9.557598185591182 0 0 0
10 0 3 1 19.08075564214906 20.892698543176454 8.951506640016232 -1 -1 0
1175 0 1 -1 19.765432983337874 22.88373609628291 10.59138004836377 0 -1 0
210 0 2 1 22.738831012772422 22.9551857726292 9.502594362391235 -1 0 0
411 0 2 1 1.143826319243439 1.3505670719466498 13.903413223069695 0 0 0
797 0 1 -1 10.754052197235604 1.367215812008435 12.842498202621197 0 0 0
1084 0 3 1 12.807780568824514 0.7717791163436813 12.388111585206495 0 1 0
1184 0 1 -1 16.880278706000034 1.1878304402208455 12.36796707130259 0 0 0
1180 0 2 1 20.147917372347344 0.8362537003557284 12.55168856859163 0 0 0
413 0 1 -1 3.1440612605752953 4.141890103036895 14.386758755546598 0 0 0
505 0 2 1 7.975154247903962 2.6064268800391064 13.19490634236995 0 0 0
509 0 1 -1 6.299705743862282 5.398456865313336 13.056213119685253 0 0 0
786 0 3 1 11.4004544685719 3.938170871122077 12.909243951392416 0 0 0
1174 0 1 -1 13.652556977426057 3.1204927944098086 12.431279974822402 0 0 0
893 0 1 -1 11.471796230566966 5.168303579364588 14.752535950691911 0 0 0
793 0 3 1 14.048938721337976 4.853323666026906 15.102608644643947 0 0 0
23 0 1 -1 20.69934927124128 4.080226021709662 12.911930677898866 -1 0 0
796 0 2 1 18.545377616984172 4.58984223353044 15.104404704759517 0 0 0
125 0 1 -1 24.335489915562114 2.707053336395588 14.295841667038086 -1 0 0
506 0 3 1 -1.2366843365077413 9.331099754812922 14.121928894975106 0 0 0
414 0 1 -1 4.193154365389523 8.313322651502652 13.877499986746045 0 0 0
412 0 3 1 5.274892456892031 6.312156517405021 14.628027619867137 0 0 0
1267 0 2 1 17.196592099318533 8.055978855139381 12.297198733174895 0 0 0
1270 0 1 -1 15.942873696061028 6.413858149981552 14.434125318454523 0 0 0
223 0 1 -1 20.177225449556126 7.703410984128235 13.132974800638806 -1 0 0
218 0 3 1 21.365443422834886 9.491182042151472 12.64388336698179 -1 0 0
135 0 1 -1 23.843119412541625 7.333071887323319 13.389162521847474 -1 0 0
219 0 2 1 1.5869184585394902 10.519181006251635 14.027257797080726 0 0 0
512 0 1 -1 4.1938524136974245 12.05063138552197 12.714625022008796 0 0 0
874 0 3 1 5.448678773392043 9.970022198440914 12.329371707666645 0 0 0
888 0 1 -1 7.554110522034417 10.810381987388306 12.608480384934904 0 0 0
882 0 2 1 10.480865268754268 9.862511603611978 14.825262654246611 0 0 0
896 0 1 -1 9.400805588772046 13.013100370343668 14.651781131801098 0 0 0
1361 0 3 1 14.842114758856297 10.8329183090566 14.093061731522855 0 0 0
1367 0 1 -1 17.227112404583373 10.17720108379622 14.96673647205036 0 0 0
229 0 1 -1 22.754977655190604 10.621250420156521 14.708559723023598 -1 0 0
498 0 3 1 -1.4208074126776338 15.15428639155703 13.730664937083969 0 0 0
607 0 1 -1 -0.4836552826275946 13.341919214670536 14.845116620215997 0 0 0
508 0 2 1 2.695574181100147 14.88416023203721 13.296918622948212 0 0 0
502 0 1 -1 6.023799145808745 15.334994141241811 14.660763412359227 0 0 0
986 0 2 1 11.919942437799074 14.543828998549353 14.466916984409234 0 0 0
1368 0 1 -1 14.838079039336584 13.264098105333337 15.062179542996066 0 0 0
114 0 2 1 17.94795153819604 13.250321422174373 13.537850924704646 -1 0 0
221 0 1 -1 21.76837190182609 15.035279720842329 13.402583422818534 -1 0 0