LAMMPS (29 Sep 2021 - Update 3)
OMP_NUM_THREADS environment is not set. Defaulting to 1 thread. (src/comm.cpp:98)
  using 1 OpenMP thread(s) per MPI task
units	metal
atom_style	full

read_data	mixed.data
Reading data file ...
  orthogonal box = (0.0000000 0.0000000 0.0000000) to (19.174564 18.334371 80.209106)
  2 by 1 by 8 MPI processor grid
  reading atoms ...
  864 atoms
Finding 1-2 1-3 1-4 neighbors ...
  special bond factors lj:    0        0        0       
  special bond factors coul:  0        0        0       
     0 = max # of 1-2 neighbors
     0 = max # of 1-3 neighbors
     0 = max # of 1-4 neighbors
     1 = max # of special neighbors
  special bonds CPU = 0.001 seconds
  read_data CPU = 0.030 seconds

pair_style	quip
pair_coeff	* * /ocean/projects/cts180021p/wuziqi/clease/mint-PD/PhaseDiagram-Clease/Liquid/GAP_potential/gap_LiKCl.xml "Potential xml_label=GAP_2021_9_27_0_1_17_37_618" 17 19 3

neighbor	0.3 bin
neigh_modify	delay 10

timestep	0.001
compute	msd all msd
thermo_style	custom step temp pe etotal press vol c_msd[4]
thermo	10
dump	1 all custom 10 xyz-mix.dump type id x y z
dump	2 all custom 10 force-mix.dump type id fx fy fz

fix     1 all nve
run     2000
Neighbor list info ...
  update every 1 steps, delay 10 steps, check yes
  max neighbors/atom: 2000, page size: 100000
  master list distance cutoff = 6.22
  ghost atom cutoff = 6.22
  binsize = 3.11, bins = 7 6 26
  1 neighbor lists, perpetual/occasional/extra = 1 0 0
  (1) pair quip, perpetual
      attributes: full, newton on
      pair build: full/bin
      stencil: full/bin/3d
      bin: standard
Per MPI rank memory allocation (min/avg/max) = 8.893 | 8.896 | 8.899 Mbytes
Step Temp PotEng TotEng Press Volume c_msd[4] 
       0            0   -7433.4988   -7433.4988   -3276.2935    28197.798            0 
      10    52.404798   -7439.3508    -7433.505   -3251.1444    28197.798 0.00037653742 
      20    139.99986   -7449.1283   -7433.5111   -2882.4638    28197.798 0.0046525409 
      30    184.89844   -7454.1347    -7433.509   -2125.0677    28197.798  0.015985103 
      40    208.94932   -7456.8149   -7433.5063   -1662.4669    28197.798  0.031135218 
      50    246.75939   -7461.0345   -7433.5082   -1664.6184    28197.798   0.04535964 
      60    276.85124   -7464.3928   -7433.5096   -1760.8171    28197.798  0.058304449 
      70    281.74509   -7464.9368   -7433.5077   -1780.9744    28197.798  0.071745136 
      80    278.62215   -7464.5886   -7433.5078   -1830.5145    28197.798  0.086537519 
      90    271.63877   -7463.8088   -7433.5071   -1784.3037    28197.798   0.10323335 
     100    268.54351   -7463.4633   -7433.5068   -1527.9053    28197.798   0.12174182 
     110    273.48277   -7464.0152   -7433.5078   -1273.3517    28197.798   0.14167857 
     120    278.69582   -7464.5968   -7433.5079   -1205.0202    28197.798   0.16248057 
     130    280.47217   -7464.7953   -7433.5082   -1323.1784    28197.798   0.18317475 
     140    277.20241   -7464.4295   -7433.5071   -1372.0801    28197.798   0.20283031 
     150    282.78617    -7465.053   -7433.5078   -1505.2169    28197.798   0.22058727 
     160     290.1136   -7465.8712   -7433.5086   -1674.0159    28197.798   0.23758181 
     170    284.88573   -7465.2876   -7433.5082   -1706.4981    28197.798   0.25570249 
     180    274.35333   -7464.1113   -7433.5068   -1718.6147    28197.798    0.2744632 
     190    276.48598   -7464.3491   -7433.5066   -1804.1052    28197.798   0.29182989 
     200    291.90348   -7466.0708   -7433.5085   -1940.0736    28197.798   0.30710935 
     210    297.83834   -7466.7336   -7433.5092    -1986.102    28197.798    0.3219422 
     220    286.77102   -7465.4971   -7433.5074   -2078.2599    28197.798   0.33684136 
     230    279.78719   -7464.7179   -7433.5072   -2190.0553    28197.798   0.35047641 
     240    281.73444   -7464.9357   -7433.5078    -2262.753    28197.798   0.36287355 
     250    285.80956   -7465.3901   -7433.5076    -2332.639    28197.798   0.37537005 
     260    292.11854   -7466.0939   -7433.5076   -2475.3781    28197.798    0.3890125 
     270    301.52725   -7467.1437   -7433.5079    -2617.426    28197.798   0.40407374 
     280    309.73897   -7468.0605   -7433.5086   -2752.0145    28197.798   0.42025778 
     290     308.0229   -7467.8686   -7433.5082   -2715.4369    28197.798   0.43692842 
     300    301.85764   -7467.1796   -7433.5069   -2565.9773    28197.798   0.45280033 
     310    304.69869   -7467.4976    -7433.508   -2628.8465    28197.798   0.46676108 
     320     307.0623   -7467.7615   -7433.5082   -2768.8787    28197.798   0.47983687 
     330    305.41709   -7467.5778    -7433.508      -2765.1    28197.798   0.49324396 
     340    302.56991     -7467.26   -7433.5078   -2716.3178    28197.798   0.50716353 
     350    300.34229   -7467.0112   -7433.5075   -2658.0167    28197.798   0.52121437 
     360    300.13685   -7466.9889   -7433.5081   -2535.9529    28197.798    0.5349885 
     370    296.38971   -7466.5706   -7433.5079   -2515.3636    28197.798   0.54851429 
     380    291.53808   -7466.0294   -7433.5079    -2529.736    28197.798   0.56205372 
     390     290.1885   -7465.8788   -7433.5078   -2482.9536    28197.798   0.57569719 
     400    291.57655   -7466.0341   -7433.5083   -2460.7608    28197.798   0.58950816 
     410    291.81754   -7466.0603   -7433.5076   -2418.5806    28197.798   0.60282046 
     420    298.48497   -7466.8046   -7433.5081   -2435.9821    28197.798   0.61423917 
     430    304.86003   -7467.5166    -7433.509   -2500.2682    28197.798   0.62410746 
     440    300.53815   -7467.0334   -7433.5079   -2482.1647    28197.798   0.63337578 
     450    297.90616   -7466.7393   -7433.5074   -2405.1031    28197.798   0.64188608 
     460    305.04414   -7467.5363   -7433.5082   -2344.8776    28197.798   0.64994066 
     470    313.18339   -7468.4445   -7433.5084   -2312.4999    28197.798   0.65909106 
     480    315.98519   -7468.7577   -7433.5091    -2216.287    28197.798   0.67012074 
     490    307.67199   -7467.8296   -7433.5083   -2089.9887    28197.798   0.68241459 
     500    299.91726   -7466.9628   -7433.5066    -1960.647    28197.798   0.69416783 
     510    308.53611   -7467.9263   -7433.5087   -1960.4852    28197.798   0.70416346 
     520    314.23793   -7468.5623   -7433.5086    -2016.915    28197.798   0.71410879 
     530    312.42144   -7468.3595   -7433.5085   -1984.2099    28197.798   0.72571833 
     540    307.01613   -7467.7561    -7433.508   -1823.8796    28197.798   0.73855723 
     550    303.44774   -7467.3583   -7433.5082   -1689.4313    28197.798   0.75080443 
     560    302.80868   -7467.2868   -7433.5081   -1721.8734    28197.798   0.76028881 
     570    306.14156   -7467.6591   -7433.5086   -1896.0317    28197.798   0.76577262 
     580    306.93991    -7467.748   -7433.5084   -2073.7003    28197.798   0.76829475 
     590    304.78082   -7467.5068   -7433.5081   -2160.3833    28197.798   0.76976388 
     600    306.71546   -7467.7219   -7433.5073    -2171.429    28197.798   0.77165514 
     610    317.96515   -7468.9782   -7433.5087   -2147.6693    28197.798   0.77469492 
     620    323.44563   -7469.5898    -7433.509   -2055.8519    28197.798   0.77920454 
     630    319.88606   -7469.1913   -7433.5076   -1961.8604    28197.798   0.78506808 
     640    323.09929   -7469.5502   -7433.5079   -1999.1427    28197.798   0.79162168 
     650    330.22678   -7470.3467   -7433.5094   -2105.0366    28197.798     0.799145 
     660    325.03755   -7469.7673   -7433.5088   -2197.0267    28197.798   0.80803625 
     670    314.39576   -7468.5789   -7433.5076   -2235.4599    28197.798    0.8167893 
     680    312.43479   -7468.3614   -7433.5088   -2308.4479    28197.798   0.82351397 
     690    307.50893   -7467.8118   -7433.5087   -2373.4206    28197.798   0.82881195 
     700    298.71836   -7466.8303   -7433.5078   -2292.5189    28197.798   0.83403601 
     710    295.74109    -7466.498   -7433.5077   -2234.6653    28197.798    0.8394168 
     720    303.45036   -7467.3579   -7433.5076   -2292.9548    28197.798   0.84453546 
     730    318.26702   -7469.0126   -7433.5094    -2401.384    28197.798   0.84949034 
     740    319.34393    -7469.132   -7433.5087   -2368.6494    28197.798   0.85545651 
     750    314.90106   -7468.6353   -7433.5076   -2297.5898    28197.798   0.86221479 
     760    318.89541   -7469.0818   -7433.5085   -2261.3305    28197.798     0.868374 
     770    321.30469   -7469.3508   -7433.5087   -2239.4677    28197.798   0.87328839 
     780     318.1442   -7468.9979   -7433.5085   -2193.7408    28197.798   0.87694376 
     790    311.48519   -7468.2551   -7433.5085   -2098.5648    28197.798   0.87939462 
     800    306.47815   -7467.6949   -7433.5068   -1982.0979    28197.798   0.88141231 
     810    316.96018   -7468.8665   -7433.5091    -1983.996    28197.798   0.88434461 
     820    319.28905   -7469.1263   -7433.5092    -1988.341    28197.798   0.89005413 
     830    311.73538   -7468.2821   -7433.5075   -1995.9118    28197.798   0.89840964 
     840    311.65354   -7468.2738   -7433.5084   -2001.3043    28197.798   0.90692957 
     850    312.67197   -7468.3873   -7433.5082   -2004.4044    28197.798    0.9137187 
     860    315.83867   -7468.7406   -7433.5083   -2079.1873    28197.798   0.91829904 
     870    320.71995   -7469.2858    -7433.509   -2168.5597    28197.798   0.92142159 
     880    320.57652   -7469.2691   -7433.5083   -2173.6428    28197.798   0.92519045 
     890    318.91447   -7469.0843   -7433.5089   -2156.9615    28197.798   0.93124072 
     900    312.61391   -7468.3805   -7433.5079    -2099.649    28197.798   0.93924677 
     910    312.10913   -7468.3244   -7433.5082   -2047.7717    28197.798   0.94673589 
     920    316.04181   -7468.7639    -7433.509   -1987.5347    28197.798   0.95198829 
     930    315.03787    -7468.652    -7433.509   -1844.1499    28197.798   0.95534233 
     940    309.80641    -7468.067   -7433.5076   -1661.8607    28197.798   0.95785559 
     950    314.68824   -7468.6122   -7433.5082   -1685.0824    28197.798   0.96071691 
     960    324.95429   -7469.7579   -7433.5087   -1820.0386    28197.798   0.96600779 
     970    331.35116   -7470.4718   -7433.5091    -1957.237    28197.798   0.97519119 
     980     329.7825   -7470.2967    -7433.509   -1901.9892    28197.798   0.98742251 
     990    322.65959   -7469.5016   -7433.5084   -1774.2109    28197.798    1.0002266 
    1000    316.60889   -7468.8269   -7433.5087   -1746.2277    28197.798     1.011533 
    1010    311.25193    -7468.229   -7433.5084   -1845.6806    28197.798      1.02082 
    1020    307.20804   -7467.7784   -7433.5089   -2068.9867    28197.798    1.0281087 
    1030    300.75734    -7467.058    -7433.508   -2239.9958    28197.798    1.0338805 
    1040    299.87308   -7466.9592   -7433.5079   -2372.2706    28197.798    1.0391214 
    1050    306.88679   -7467.7423   -7433.5086   -2472.0727    28197.798    1.0450663 
    1060    312.67567   -7468.3884    -7433.509   -2543.5336    28197.798    1.0516895 
    1070     312.8664   -7468.4091   -7433.5084   -2570.2571    28197.798    1.0572381 
    1080    312.76626   -7468.3979   -7433.5084   -2664.3961    28197.798    1.0603499 
    1090    312.81427   -7468.4033   -7433.5084   -2700.2906    28197.798    1.0615235 
    1100    312.52187   -7468.3705   -7433.5082   -2687.2237    28197.798    1.0621707 
    1110    312.75056   -7468.3963   -7433.5085   -2641.2369    28197.798    1.0634308 
    1120    311.63928   -7468.2725   -7433.5087   -2523.8064    28197.798    1.0656422 
    1130    309.44865   -7468.0275    -7433.508   -2319.4135    28197.798    1.0686259 
    1140    314.06598   -7468.5434   -7433.5089   -2167.0113    28197.798    1.0722483 
    1150    316.84713   -7468.8536   -7433.5088   -2057.6275    28197.798    1.0766087 
    1160     317.6305   -7468.9401    -7433.508   -1909.0819    28197.798    1.0804093 
    1170    324.21655   -7469.6761   -7433.5093   -1794.4319    28197.798    1.0823291 
    1180    324.83339   -7469.7444   -7433.5088   -1595.8979    28197.798      1.08324 
    1190     323.0656    -7469.547   -7433.5086   -1375.8946    28197.798    1.0843645 
    1200    326.00229   -7469.8755   -7433.5094   -1363.0761    28197.798    1.0866847 
    1210    323.60131   -7469.6075   -7433.5093   -1443.8788    28197.798    1.0914376 
    1220    314.86633   -7468.6315   -7433.5077    -1441.619    28197.798    1.0987426 
    1230    317.32768   -7468.9064    -7433.508   -1559.6432    28197.798    1.1065849 
    1240    326.61768   -7469.9442   -7433.5095    -1737.292    28197.798    1.1124274 
    1250    327.91435   -7470.0882   -7433.5088   -1749.2493    28197.798    1.1148136 
    1260    327.41425   -7470.0321   -7433.5085   -1712.0432    28197.798    1.1139762 
    1270    328.75653   -7470.1825   -7433.5092   -1683.8137    28197.798    1.1115386 
    1280    325.80598   -7469.8529   -7433.5088   -1538.0149    28197.798    1.1099118 
    1290    323.59797   -7469.6061   -7433.5083    -1393.147    28197.798    1.1110394 
    1300    328.71985   -7470.1782    -7433.509   -1431.9253    28197.798    1.1157633 
    1310    332.05384   -7470.5509   -7433.5098   -1601.7046    28197.798    1.1238464 
    1320    326.34719   -7469.9128   -7433.5083    -1756.141    28197.798    1.1334851 
    1330    324.68525   -7469.7281    -7433.509   -1866.9567    28197.798    1.1424768 
    1340    323.62895   -7469.6106   -7433.5093   -1820.3961    28197.798    1.1503474 
    1350    321.18374   -7469.3371   -7433.5086   -1632.9848    28197.798    1.1571992 
    1360    323.09507   -7469.5509   -7433.5091   -1587.1482    28197.798    1.1631636 
    1370    324.29232   -7469.6842   -7433.5089   -1616.6449    28197.798    1.1686982 
    1380     326.2503   -7469.9023   -7433.5086   -1636.9188    28197.798     1.173831 
    1390    332.41763   -7470.5906   -7433.5089   -1665.6686    28197.798     1.178143 
    1400     337.5602   -7471.1651   -7433.5097   -1687.4959    28197.798    1.1818866 
    1410    333.85834   -7470.7513   -7433.5089   -1669.0761    28197.798    1.1862746 
    1420    329.15392   -7470.2262   -7433.5086   -1696.7844    28197.798     1.192114 
    1430    328.52491   -7470.1563   -7433.5089   -1763.0447    28197.798    1.1993094 
    1440     327.3183   -7470.0222   -7433.5093   -1740.2368    28197.798    1.2070267 
    1450    320.56166   -7469.2677   -7433.5086   -1571.8358    28197.798    1.2140574 
    1460    317.21612   -7468.8939    -7433.508   -1450.6782    28197.798    1.2193446 
    1470    324.56132   -7469.7143    -7433.509   -1410.6769    28197.798    1.2226826 
    1480    330.13379   -7470.3368   -7433.5098   -1431.8034    28197.798    1.2245776 
    1490    325.99003   -7469.8731   -7433.5084   -1460.0301    28197.798    1.2251991 
    1500    326.34111   -7469.9125   -7433.5087   -1492.8131    28197.798    1.2250425 
    1510    328.98361   -7470.2082   -7433.5096   -1366.0993    28197.798    1.2258269 
    1520    323.19049   -7469.5616   -7433.5092   -1233.2236    28197.798    1.2287949 
    1530    314.30765   -7468.5695    -7433.508   -1166.0146    28197.798     1.233467 
    1540    316.88621   -7468.8578   -7433.5086   -1296.0227    28197.798    1.2387587 
    1550    324.65879   -7469.7256   -7433.5094   -1479.6195    28197.798    1.2448694 
    1560    327.50012   -7470.0423   -7433.5091   -1643.9366    28197.798    1.2525129 
    1570    327.65604   -7470.0595    -7433.509   -1741.9673    28197.798    1.2614899 
    1580    328.47786    -7470.151   -7433.5088   -1769.2005    28197.798    1.2709819 
    1590    329.28696   -7470.2422   -7433.5097   -1803.0203    28197.798    1.2802744 
    1600     321.9951   -7469.4276   -7433.5085   -1826.5634    28197.798    1.2894024 
    1610    317.74199   -7468.9527   -7433.5082   -1871.7877    28197.798    1.2978342 
    1620    322.49906   -7469.4845   -7433.5092   -1926.4056    28197.798    1.3047741 
    1630    324.53767   -7469.7123   -7433.5097    -1886.055    28197.798    1.3106314 
    1640    321.32055   -7469.3524   -7433.5086   -1889.5966    28197.798    1.3165616 
    1650    324.87363   -7469.7495   -7433.5094   -2048.7483    28197.798    1.3231018 
    1660    327.06048   -7469.9934   -7433.5093   -2321.9126    28197.798    1.3301325 
    1670    327.01807    -7469.988   -7433.5087   -2463.2173    28197.798    1.3371232 
    1680    332.73575   -7470.6262    -7433.509   -2473.9756    28197.798    1.3434501 
    1690    340.27634   -7471.4684   -7433.5101   -2358.4231    28197.798     1.349213 
    1700    337.44669   -7471.1522   -7433.5095   -2252.2725    28197.798    1.3549843 
    1710    330.67556    -7470.396   -7433.5086   -2160.1691    28197.798    1.3604068 
    1720    331.67093   -7470.5077   -7433.5093   -2156.9409    28197.798    1.3647557 
    1730    333.01289   -7470.6579   -7433.5098   -2021.7211    28197.798    1.3682441 
    1740    330.44178   -7470.3703    -7433.509   -1850.1577    28197.798    1.3714091 
    1750     332.4665    -7470.596   -7433.5089   -1832.8568    28197.798    1.3748089 
    1760    338.17048   -7471.2334     -7433.51   -1973.1084    28197.798    1.3794872 
    1770    335.21561    -7470.903   -7433.5092   -2005.2986    28197.798    1.3861103 
    1780    331.46871   -7470.4842   -7433.5083    -2006.432    28197.798    1.3935425 
    1790    336.57308   -7471.0542    -7433.509   -1950.7177    28197.798    1.4003036 
    1800    342.16681   -7471.6789   -7433.5097   -1858.6382    28197.798    1.4064058 
    1810    341.53807   -7471.6084   -7433.5093   -1744.4176    28197.798    1.4119797 
    1820    338.74843   -7471.2969    -7433.509   -1716.7454    28197.798    1.4163984 
    1830    337.43007   -7471.1504   -7433.5096   -1688.5283    28197.798    1.4193696 
    1840    332.09753   -7470.5554   -7433.5094   -1600.2009    28197.798    1.4219384 
    1850    325.17964    -7469.783   -7433.5087    -1439.338    28197.798    1.4258708 
    1860    325.05027   -7469.7687   -7433.5089    -1373.363    28197.798    1.4317493 
    1870    331.46526   -7470.4843   -7433.5088    -1327.857    28197.798    1.4388941 
    1880    342.15073   -7471.6771   -7433.5097   -1249.4856    28197.798    1.4469071 
    1890    346.12273   -7472.1203   -7433.5098   -1070.4903    28197.798    1.4557041 
    1900    342.16962    -7471.678   -7433.5085   -929.47635    28197.798    1.4642996 
    1910     342.4351   -7471.7085   -7433.5094   -1069.1378    28197.798    1.4714358 
    1920    340.30349   -7471.4704    -7433.509   -1312.7881    28197.798    1.4769569 
    1930    335.83125   -7470.9717   -7433.5092   -1652.4617    28197.798    1.4812625 
    1940    329.14467   -7470.2254   -7433.5088   -1839.7793    28197.798     1.484747 
    1950    325.46317   -7469.8145   -7433.5086    -1862.611    28197.798    1.4876872 
    1960    325.80538   -7469.8536   -7433.5095   -1803.4783    28197.798    1.4908352 
    1970    322.63237   -7469.4987   -7433.5085   -1762.1388    28197.798    1.4943863 
    1980    323.28026   -7469.5712   -7433.5088   -1849.0487    28197.798    1.4974264 
    1990    326.60106   -7469.9416   -7433.5087   -1955.1148    28197.798     1.499423 
    2000    331.22759   -7470.4581   -7433.5091   -2018.3182    28197.798     1.500266 
Loop time of 1639.69 on 16 procs for 2000 steps with 864 atoms

Performance: 0.105 ns/day, 227.734 hours/ns, 1.220 timesteps/s
97.8% CPU use with 16 MPI tasks x 1 OpenMP threads

MPI task timing breakdown:
Section |  min time  |  avg time  |  max time  |%varavg| %total
---------------------------------------------------------------
Pair    | 1247.4     | 1510.1     | 1623.1     | 274.3 | 92.10
Bond    | 0.00021482 | 0.00071459 | 0.0021281  |   0.0 |  0.00
Neigh   | 0.019685   | 0.024256   | 0.0265     |   1.2 |  0.00
Comm    | 15.311     | 123.27     | 389.02     | 961.0 |  7.52
Output  | 0.28841    | 3.2021     | 8.6578     | 176.2 |  0.20
Modify  | 0.04948    | 0.053425   | 0.061254   |   1.9 |  0.00
Other   |            | 3.021      |            |       |  0.18

Nlocal:        54.0000 ave          62 max          42 min
Histogram: 1 0 0 1 2 2 4 3 1 2
Nghost:        408.688 ave         443 max         379 min
Histogram: 2 2 1 1 2 3 1 3 0 1
Neighs:         0.00000 ave           0 max           0 min
Histogram: 16 0 0 0 0 0 0 0 0 0
FullNghs:      1634.62 ave        2021 max        1124 min
Histogram: 1 0 1 1 3 1 5 2 0 2

Total # of neighbors = 26154
Ave neighs/atom = 30.270833
Ave special neighs/atom = 0.0000000
Neighbor list builds = 199
Dangerous builds = 198
unfix   1

velocity    all create 337.5 1312343 dist gaussian
fix     2 all npt temp 337.5 337.5 $(100.0*dt) aniso 0.0 1.01325 $(1000.0*dt)
fix     2 all npt temp 337.5 337.5 0.10000000000000000555 aniso 0.0 1.01325 $(1000.0*dt)
fix     2 all npt temp 337.5 337.5 0.10000000000000000555 aniso 0.0 1.01325 1
run     3000
Per MPI rank memory allocation (min/avg/max) = 8.897 | 8.898 | 8.900 Mbytes
Step Temp PotEng TotEng Press Volume c_msd[4] 
    2000        337.5   -7470.4581   -7432.8094   -1991.8141    28197.798     1.500266 
    2010    333.96607   -7470.0718   -7432.8174    -1969.162    28191.941    1.4954528 
    2020    327.24827   -7469.3392   -7432.8342   -1907.9884    28174.456    1.4899397 
    2030    324.75096   -7469.0684    -7432.842   -1674.1926    28145.791    1.4842172 
    2040    332.36243   -7469.9018   -7432.8263   -1269.3186    28107.384     1.478906 
    2050    343.00125   -7471.0535   -7432.7912   -820.44785    28061.614    1.4748934 
    2060    341.35766   -7470.8305   -7432.7516    -371.4503    28011.149    1.4723723 
    2070    336.68156   -7470.2643    -7432.707    148.92413    27958.751    1.4708399 
    2080    339.80551   -7470.5543   -7432.6485    486.78268    27907.351     1.470978 
    2090    345.83983   -7471.1632   -7432.5843    633.41521    27858.968    1.4740016 
    2100    350.15379   -7471.5913   -7432.5311     667.9193      27814.5    1.4802997 
    2110    353.99704   -7471.9943   -7432.5054    668.24473    27774.183    1.4902191 
    2120    351.58161   -7471.7381   -7432.5187    630.79385    27738.006    1.5038842 
    2130    342.77585   -7470.8014   -7432.5642    623.74592    27705.783    1.5201256 
    2140    339.00378    -7470.441   -7432.6246     640.0192    27677.447    1.5372697 
    2150    336.12575   -7470.1845   -7432.6892    714.03026    27653.108    1.5546089 
    2160    330.76511   -7469.6549   -7432.7576    689.37022    27633.068    1.5719497 
    2170    327.54654   -7469.3679   -7432.8295    590.65968    27617.192     1.589324 
    2180    324.43074   -7469.0897   -7432.8989    484.66848    27604.906    1.6065422 
    2190    321.52881   -7468.8198   -7432.9528    351.18123    27595.533    1.6236326 
    2200    319.59622   -7468.6243   -7432.9729    243.56021    27588.316    1.6406098 
    2210    323.65645   -7469.0546   -7432.9502    173.83135    27582.635    1.6562064 
    2220    332.22701   -7469.9497   -7432.8893    77.119602    27578.033    1.6691633 
    2230    338.65785   -7470.5843   -7432.8065   -60.024549    27573.939    1.6800504 
    2240    342.69565   -7470.9473   -7432.7191   -175.50526    27569.618     1.690709 
    2250    345.32173   -7471.1618   -7432.6406   -211.46669    27564.448    1.7033048 
    2260    343.81418   -7470.9288   -7432.5758   -129.19233    27558.268     1.719241 
    2270    341.24431   -7470.5874   -7432.5211    22.311024    27551.553    1.7380944 
    2280    345.65874    -7471.031   -7432.4722    3.8801303    27545.009    1.7584528 
    2290    351.71052   -7471.6721   -7432.4383   -89.504968    27538.603    1.7793846 
    2300    345.35705   -7470.9572   -7432.4321   -237.10484    27531.797    1.8000062 
    2310    333.01498   -7469.5933    -7432.445   -296.85351    27523.875    1.8187204 
    2320    330.33721   -7469.3052   -7432.4556   -248.78059    27514.524    1.8353967 
    2330    336.67092   -7470.0119   -7432.4557   -69.732395    27504.035    1.8523057 
    2340    336.66559   -7470.0035    -7432.448    272.56537    27493.484    1.8708881 
    2350    331.29931   -7469.3888   -7432.4319    549.28484    27484.653    1.8899003 
    2360    328.83416   -7469.0807   -7432.3988    654.55066    27478.986    1.9072725 
    2370    332.39607   -7469.4238   -7432.3445    723.32828     27477.08    1.9221908 
    2380    336.12084   -7469.7687   -7432.2739    821.64703    27479.264    1.9360254 
    2390    339.02799   -7470.0137   -7432.1946    873.02355    27485.962    1.9508512 
    2400    348.49382   -7470.9909   -7432.1159    793.98133    27497.303    1.9674734 
    2410    358.53514   -7472.0518   -7432.0566    676.22141    27512.805    1.9857624 
    2420     353.2466   -7471.4436   -7432.0384     581.7908    27531.766    2.0049788 
    2430    334.34789   -7469.3486   -7432.0516    456.91659    27553.574    2.0225603 
    2440    324.39634   -7468.2467   -7432.0598    175.50829      27577.4    2.0352659 
    2450    327.65602   -7468.5877   -7432.0372   -228.99356    27601.646    2.0429544 
    2460    333.03309   -7469.1343    -7431.984   -557.07793    27624.153    2.0482933 
    2470    336.85608   -7469.4892   -7431.9124   -840.29158    27643.091    2.0538642 
    2480    345.21901    -7470.347   -7431.8373   -1067.9941    27656.944    2.0599993 
    2490    347.61943   -7470.5549   -7431.7774   -1138.7735    27664.565    2.0655742 
    2500    342.16657   -7469.9112    -7431.742   -1004.6694     27665.74    2.0691578 
    2510    342.16507   -7469.8938   -7431.7247   -854.15068     27661.24    2.0698166 
    2520     343.9503    -7470.089   -7431.7208   -687.15605    27652.022    2.0681975 
    2530    341.17438   -7469.7892   -7431.7307   -554.91372    27639.126    2.0648139 
    2540    338.65095   -7469.5296   -7431.7525   -638.38156    27623.248    2.0585675 
    2550    337.25624   -7469.4037   -7431.7822   -707.18762      27604.1    2.0485022 
    2560    336.52153   -7469.3523   -7431.8128    -691.4868    27581.405      2.03539 
    2570    339.94029   -7469.7636   -7431.8428   -732.68081    27555.253    2.0210324 
    2580    341.27536    -7469.948   -7431.8782   -711.56989    27525.563    2.0074871 
    2590      338.788   -7469.7119   -7431.9196   -553.60761    27492.582    1.9963564 
    2600    340.84936   -7469.9861   -7431.9638   -434.63069    27457.194    1.9880022 
    2610     342.6113   -7470.2308    -7432.012   -388.04274    27420.119    1.9821469 
    2620    335.98214   -7469.5463    -7432.067    -273.4596     27381.74    1.9785482 
    2630    327.51436    -7468.649   -7432.1143    76.133659    27342.845    1.9769771 
    2640    328.94349   -7468.8349   -7432.1408    423.96059    27305.258    1.9764989 
    2650    330.90784   -7469.0595   -7432.1462    678.03399    27270.824    1.9758951 
    2660    334.06418   -7469.4046   -7432.1392    809.49062    27240.827    1.9740292 
    2670    340.95306   -7470.1636   -7432.1298    818.46596    27215.881     1.971304 
    2680    349.72154   -7471.1497   -7432.1378    734.17278    27195.903    1.9696965 
    2690    345.50347   -7470.7186   -7432.1772    742.91664    27180.413    1.9700783 
    2700     339.7822   -7470.1446   -7432.2414     788.9831    27169.322     1.970265 
    2710    351.73194   -7471.5673   -7432.3311     675.4357     27162.68    1.9677722 
    2720     356.0804   -7472.1882   -7432.4669    464.83377    27159.797    1.9634316 
    2730     344.4215   -7471.0754   -7432.6546    316.03933     27159.55    1.9586046 
    2740    335.68666   -7470.3165   -7432.8702    135.25464    27161.012    1.9529467 
    2750     335.3266      -7470.5   -7433.0938   -8.8195176    27163.211    1.9466309 
    2760    338.19561   -7471.0509   -7433.3247   -23.603612    27165.401    1.9415867 
    2770    332.68056   -7470.6705   -7433.5594    157.06386    27167.544    1.9401178 
    2780    328.26285   -7470.3998   -7433.7816    310.90789      27170.5    1.9423528 
    2790    335.07886   -7471.3688   -7433.9902    311.17896    27175.031    1.9473365 
    2800     334.6584   -7471.5213   -7434.1896     299.4851    27181.199    1.9550622 
    2810    332.41235   -7471.4585   -7434.3774    211.00694    27188.901     1.964134 
    2820    337.86481   -7472.2417   -7434.5524    62.199775    27197.627    1.9724574 
    2830     343.6236   -7473.0569   -7434.7252   -9.3101992    27206.622    1.9789321 
    2840    341.49291   -7472.9977   -7434.9037    87.347986    27215.553    1.9830075 
    2850    334.08894   -7472.3497   -7435.0816    341.79762    27224.934    1.9845169 
    2860    331.50391   -7472.2254   -7435.2456    459.36974    27236.005    1.9839217 
    2870    334.07429   -7472.6615    -7435.395    445.05384    27249.428    1.9831332 
    2880    327.87135   -7472.1009   -7435.5263    393.35503    27265.172     1.983726 
    2890    325.16315   -7471.9026   -7435.6302    168.35267    27282.825    1.9850156 
    2900    331.47551   -7472.6787   -7435.7021   -117.68786    27301.212    1.9860555 
    2910    340.74567   -7473.7676   -7435.7569   -410.94344    27318.769    1.9868982 
    2920    341.89366   -7473.9545   -7435.8157   -469.52473    27334.028    1.9889424 
    2930     335.5068   -7473.3087   -7435.8824   -302.63621    27346.675    1.9926532 
    2940    331.90699   -7472.9722   -7435.9475   -166.76637    27357.509    1.9971304 
    2950    327.71313   -7472.5566   -7435.9997   -14.395902    27367.351    2.0019374 
    2960    324.99303   -7472.2855   -7436.0321     59.81722    27377.002     2.005829 
    2970    324.92061   -7472.2842   -7436.0389   -86.380722    27386.818    2.0077797 
    2980    326.01968   -7472.3868   -7436.0188   -353.29384    27396.014    2.0086136 
    2990    328.02273   -7472.5649   -7435.9735   -510.09389    27403.221    2.0104719 
    3000      333.537   -7473.1151   -7435.9086   -418.48106    27407.668    2.0153909 
    3010    333.70825   -7473.0564   -7435.8308   -186.52291    27409.827     2.023726 
    3020     324.5194   -7471.9371   -7435.7364    64.674908    27410.949    2.0330327 
    3030    321.94922   -7471.5208   -7435.6068      213.732    27412.366    2.0395737 
    3040     324.6585   -7471.6346   -7435.4185    277.74342    27414.929    2.0410141 
    3050     326.4251   -7471.5781   -7435.1649    337.32437    27419.045    2.0369938 
    3060    327.91767   -7471.4276   -7434.8479    364.04729    27425.014    2.0287453 
    3070    334.61355   -7471.8001   -7434.4734    301.99073    27432.932    2.0186757 
    3080    346.07921     -7472.67   -7434.0643    219.99371    27442.469    2.0101721 
    3090    344.90613   -7472.1404   -7433.6656    263.24141    27453.255    2.0058002 
    3100    339.23295   -7471.1562   -7433.3142    235.21898    27465.413    2.0046536 
    3110    340.74371   -7471.0232   -7433.0127    71.448026     27478.74    2.0039828 
    3120    341.36453   -7470.8436   -7432.7639   -71.966703    27492.394    2.0028946 
    3130    338.63919   -7470.3455   -7432.5697   -156.07782    27505.603    2.0022859 
    3140    338.83975   -7470.2186   -7432.4205   -314.73389    27517.807    2.0029592 
    3150    341.63853   -7470.4178   -7432.3076    -459.9743    27528.177    2.0053633 
    3160    345.81697   -7470.8028   -7432.2263   -625.13405     27535.88    2.0098824 
    3170     349.9265   -7471.2121   -7432.1772    -770.2525    27540.034    2.0157098 
    3180    352.39917   -7471.4731   -7432.1624   -834.00267    27539.867    2.0204085 
    3190    349.56691   -7471.1764   -7432.1817   -812.99116     27535.04    2.0229859 
    3200    339.55437   -7470.1006   -7432.2228   -649.60818    27525.767    2.0232564 
    3210     333.2128   -7469.4349   -7432.2645   -500.40282    27512.899    2.0207457 
    3220    338.50811   -7470.0599   -7432.2988   -424.05007    27497.282    2.0170461 
    3230    345.98699   -7470.9325   -7432.3371   -336.45426    27479.423    2.0160892 
    3240    341.19585   -7470.4504   -7432.3895   -262.85048    27459.784    2.0205721 
    3250    334.78787   -7469.7947   -7432.4486   -209.46643    27438.767    2.0292014 
    3260    339.44979   -7470.3713   -7432.5051   -145.62269    27416.728    2.0388756 
    3270    348.52478   -7471.4468   -7432.5683   -24.829224    27394.048    2.0480443 
    3280     345.9605   -7471.2433   -7432.6509    158.81825    27371.378    2.0566376 
    3290    335.63859   -7470.1857   -7432.7448    363.84024    27349.724    2.0639039 
    3300    334.38803   -7470.1353   -7432.8338    534.94119    27330.196    2.0683332 
    3310    339.92122   -7470.8377    -7432.919    696.50753    27313.724    2.0697505 
    3320    343.95508   -7471.3818   -7433.0131    839.36076    27301.192    2.0690459 
    3330    345.25114   -7471.6449   -7433.1316    867.56904    27293.323    2.0675161 
    3340    339.70276   -7471.1668   -7433.2724    757.89981    27290.227    2.0658206 
    3350    335.98703   -7470.9035   -7433.4236    534.55912    27291.296    2.0630634 
    3360    336.61525   -7471.1265   -7433.5765    295.30629    27295.313    2.0582404 
    3370    335.36115   -7471.1408   -7433.7308    141.23489    27301.002    2.0517304 
    3380    326.55724   -7470.3058   -7433.8778    58.645556    27307.506    2.0444754 
    3390    320.03174   -7469.7022   -7434.0021   -95.949745    27314.257    2.0362953 
    3400    324.23522   -7470.2641   -7434.0952   -130.61237    27320.535    2.0264436 
    3410    334.48633   -7471.4798   -7434.1673   -18.633057    27326.163    2.0149872 
    3420    338.10483   -7471.9497   -7434.2336    98.563234    27331.693    2.0035325 
    3430    342.30633   -7472.4932   -7434.3084   -26.360278    27337.638    1.9938538 
    3440    342.14842   -7472.5657   -7434.3986   -283.59728    27343.356    1.9872653 
    3450    333.57263   -7471.7129   -7434.5023   -399.42627    27347.569    1.9840123 
    3460    328.86844   -7471.2912   -7434.6055   -314.08867     27349.67    1.9837264 
    3470    336.60176   -7472.2527   -7434.7043    -84.81839    27350.095    1.9856693 
    3480    341.41536    -7472.895   -7434.8096     106.9914    27350.045    1.9890078 
    3490     336.4989   -7472.4719    -7434.935    128.43603    27350.507    1.9931994 
    3500    328.80242   -7471.7504    -7435.072     252.8869     27351.76    1.9968674 
    3510    330.00753     -7472.02   -7435.2072     254.0434    27354.343    1.9979048 
    3520    334.76737   -7472.6854   -7435.3416    129.85931    27358.294    1.9965936 
    3530    331.20219    -7472.425   -7435.4789   -32.629393     27362.95    1.9951764 
    3540    326.54846   -7472.0425   -7435.6155   -196.21594    27367.411    1.9944937 
    3550    333.06237   -7472.9073   -7435.7537    -278.9106    27370.813    1.9941541 
    3560    342.34242   -7474.1021   -7435.9133   -257.91345     27372.71    1.9945911 
    3570     342.0943   -7474.2758   -7436.1146   -148.86429     27373.21    1.9970512 
    3580    333.85545   -7473.5938   -7436.3517   -32.728225     27372.88    2.0020105 
    3590     326.4243   -7473.0159   -7436.6028   -43.169537    27372.324    2.0091919 
    3600    320.02511    -7472.546   -7436.8468   -230.82828    27371.444    2.0179517 
    3610    315.49215   -7472.2606    -7437.067   -457.76498    27369.273    2.0272008 
    3620      311.614   -7472.0115   -7437.2505   -587.29193    27364.612    2.0365177 
    3630    307.79177   -7471.7194   -7437.3848   -523.50575     27356.79    2.0464702 
    3640    308.72456   -7471.9018   -7437.4631   -420.65463    27346.088    2.0577708 
    3650    310.71484    -7472.142   -7437.4813   -249.83308    27333.123     2.070723 
    3660    313.61053   -7472.4247   -7437.4409    12.252196    27318.845    2.0846847 
    3670    314.05378    -7472.375   -7437.3418    273.01714    27304.655     2.098507 
    3680    314.42586   -7472.2551   -7437.1805    466.73158    27291.979    2.1099746 
    3690    323.30994   -7473.0241   -7436.9584    486.76826    27281.816    2.1179957 
    3700    328.46915   -7473.3271   -7436.6858    537.37873    27274.383    2.1244797 
    3710    329.18243   -7473.1038    -7436.383    670.10556    27269.983    2.1304034 
    3720    330.51799   -7472.9318   -7436.0621    665.99202    27269.225    2.1349514 
    3730    336.21601   -7473.2429   -7435.7375    463.73234    27272.043    2.1380237 
    3740    341.08286   -7473.4789   -7435.4306    346.49635    27277.477    2.1409018 
    3750    338.78212    -7472.955   -7435.1634    419.72685     27284.93    2.1447817 
    3760    339.17239    -7472.776   -7434.9408    568.96128    27294.763    2.1494604 
    3770    340.53222   -7472.7456   -7434.7587    664.07526    27307.738     2.154311 
    3780     339.6462   -7472.5029   -7434.6149    645.95355     27324.35    2.1590736 
    3790    340.92116   -7472.5335   -7434.5032    501.85969    27344.506    2.1637218 
    3800    340.93645   -7472.4483   -7434.4163    257.11849    27367.413    2.1684384 
    3810    336.84629   -7471.9247    -7434.349    128.40759    27391.841     2.174007 
    3820    332.44118   -7471.3751   -7434.2908   -24.405113    27416.974    2.1809192 
    3830    330.71344   -7471.1199   -7434.2283   -193.43503    27441.985    2.1894307 
    3840    330.24244   -7470.9912   -7434.1522   -358.96478    27465.918     2.199537 
    3850    331.98305   -7471.0967   -7434.0634   -440.50639    27487.892    2.2101388 
    3860    336.11097    -7471.462   -7433.9683   -462.21944    27507.425    2.2194641 
    3870    340.16236   -7471.8204   -7433.8748   -461.43353    27524.369    2.2260759 
    3880    340.15839   -7471.7361   -7433.7909   -463.89571    27538.701    2.2285392 
    3890    339.57416   -7471.5983   -7433.7183   -428.27405    27550.434    2.2255808 
    3900    342.54139   -7471.8679   -7433.6569   -365.06259    27559.784    2.2180719 
    3910    344.10157    -7471.996    -7433.611   -303.10048    27567.088    2.2098949 
    3920    337.25777   -7471.2018   -7433.5801   -310.92833    27572.641    2.2048381 
    3930     329.1049   -7470.2639   -7433.5518   -427.17159    27576.378    2.2036178 
    3940    322.45794    -7469.478   -7433.5073   -547.39568    27577.715    2.2047001 
    3950    319.93133   -7469.1215   -7433.4327   -641.31042    27575.985    2.2055565 
    3960    328.64698   -7469.9847   -7433.3237   -670.52375    27570.651    2.2042973 
    3970    340.21471   -7471.1413   -7433.1899   -563.47002    27561.576    2.2007303 
    3980    346.23193   -7471.6763   -7433.0536   -388.71427    27549.334    2.1957244 
    3990    345.52625    -7471.476    -7432.932   -110.69724    27534.952    2.1895098 
    4000    338.98498   -7470.6386   -7432.8243    150.69569    27519.914    2.1812995 
    4010    334.92152   -7470.0789   -7432.7179    220.53944    27505.608    2.1703314 
    4020    341.49816   -7470.7015   -7432.6069    86.484031    27492.439    2.1564676 
    4030    342.38719   -7470.6871   -7432.4933   -51.299613    27479.761    2.1406979 
    4040    342.69152   -7470.6131   -7432.3853   -212.53492    27466.761     2.123864 
    4050    341.79831   -7470.4105   -7432.2824   -266.74629    27452.622    2.1074351 
    4060    341.89127   -7470.3216   -7432.1831   -138.36674    27437.086    2.0926228 
    4070    350.40724   -7471.1727   -7432.0843    63.909945    27420.814    2.0787301 
    4080     358.6017   -7472.0008   -7431.9982     337.6959    27404.959    2.0644807 
    4090    351.44304   -7471.1452   -7431.9412    568.42748    27390.978    2.0501278 
    4100     350.0334   -7470.9597    -7431.913    581.82311    27380.077    2.0356699 
    4110    359.22846   -7471.9898   -7431.9173    479.59553    27372.384    2.0207039 
    4120    360.72587   -7472.2223   -7431.9828     450.3194    27367.417    2.0061071 
    4130    349.82421   -7471.1474   -7432.1239    448.46036    27364.981    1.9927833 
    4140    342.62983   -7470.5474   -7432.3265    509.21767    27365.092    1.9802569 
    4150    345.04472   -7471.0751   -7432.5848    472.75632     27367.98    1.9672336 
    4160    343.08377   -7471.1734   -7432.9019    399.34442    27373.502    1.9529221 
    4170     340.9555   -7471.3038   -7433.2697    261.60807    27381.203    1.9370857 
    4180    336.37783   -7471.1877   -7433.6643    264.87058     27390.43    1.9213273 
    4190    328.59332   -7470.7052   -7434.0501    408.19698    27401.198    1.9069634 
    4200    327.67006   -7470.9495   -7434.3974    396.90268    27414.158    1.8936106 
    4210    335.11901   -7472.0843   -7434.7012    228.59654    27429.244    1.8811146 
    4220    337.64586   -7472.6286   -7434.9637    110.42936    27445.607    1.8698002 
    4230    339.51704    -7473.063   -7435.1894     130.4481    27462.639    1.8593638 
    4240    342.41917   -7473.5857   -7435.3883    226.01965    27480.398    1.8495015 
    4250    339.65638   -7473.4558   -7435.5666     364.6117    27499.419    1.8401608 
    4260    337.98212   -7473.4288   -7435.7264     372.1084    27520.392    1.8305344 
    4270    338.09233   -7473.5833   -7435.8686    220.94778    27543.336    1.8207682 
    4280    340.02461    -7473.926   -7435.9957    27.194376    27567.472    1.8120757 
    4290    343.77635   -7474.4616   -7436.1128   -297.50901    27591.638    1.8043487 
    4300    341.25891   -7474.2914   -7436.2234   -653.40989    27614.064    1.7968608 
    4310    333.59915   -7473.5407   -7436.3272   -935.68608    27632.767    1.7894991 
    4320    328.93719   -7473.1095   -7436.4161   -1049.6338    27646.196    1.7830242 
    4330    333.34395   -7473.6751   -7436.4901   -1030.0953    27653.694    1.7785247 
    4340     336.8918   -7474.1385   -7436.5577   -910.71172    27655.378    1.7771893 
    4350    334.02005   -7473.8836   -7436.6231   -839.03591    27651.846    1.7796898 
    4360    332.74968   -7473.8031   -7436.6844   -834.77713    27643.521    1.7862662 
    4370    333.64502   -7473.9574   -7436.7388   -791.23996    27630.487     1.796565 
    4380    334.49168   -7474.0989   -7436.7859   -726.81484    27612.989    1.8092802 
    4390    335.42816   -7474.2452   -7436.8277   -615.68035    27591.445    1.8231958 
    4400    334.70114   -7474.2011   -7436.8647   -402.66101    27566.524    1.8381881 
    4410    337.62438   -7474.5587   -7436.8962   -134.19055    27539.411    1.8553671 
    4420     336.0328   -7474.4098   -7436.9248     122.0327    27511.612    1.8766319 
    4430    322.18913   -7472.8812   -7436.9406     390.9742    27484.614    1.9026591 
    4440    319.48613   -7472.5631    -7436.924    524.93141     27459.84    1.9314656 
    4450    326.61626   -7473.2993   -7436.8648    569.94113    27438.055    1.9601021 
    4460    332.14618   -7473.8214     -7436.77    621.99928     27419.55    1.9864821 
    4470    328.54796    -7473.295    -7436.645    701.47194    27404.635    2.0098582 
    4480    326.03236   -7472.8573   -7436.4879    672.24751    27393.649    2.0296266 
    4490    331.11359   -7473.2338   -7436.2976    579.18223    27386.432     2.046239 
    4500    332.69435   -7473.1898   -7436.0772    603.14428     27382.53    2.0613992 
    4510    335.06407   -7473.2102   -7435.8333    656.84013    27382.007    2.0758883 
    4520    337.04323   -7473.1688   -7435.5712    649.02783    27385.108    2.0898588 
    4530    336.33916   -7472.8192   -7435.3001    694.77207    27391.847    2.1029717 
    4540    337.91339   -7472.7222   -7435.0274    783.44729    27402.463    2.1137079 
    4550    343.84322   -7473.1143   -7434.7581    691.73821    27417.332    2.1199421 
    4560    349.03211   -7473.4413   -7434.5062    381.29994      27435.9    2.1209396 
    4570    342.24059   -7472.4634   -7434.2859    162.43166    27456.591    2.1177023 
    4580    334.45145   -7471.4015   -7434.0929     49.31127    27478.162    2.1114337 
    4590    335.37028   -7471.3201   -7433.9091   -50.303297     27499.92    2.1039335 
    4600    339.85854   -7471.6446   -7433.7329   -138.13391    27521.306    2.0974923 
    4610    341.05653   -7471.6204    -7433.575   -280.47229    27541.774    2.0933007 
    4620    341.54105   -7471.5417   -7433.4422    -384.3442    27560.569    2.0909151 
    4630    341.74591   -7471.4565   -7433.3343   -327.05766    27577.164     2.089042 
    4640    342.10127   -7471.4131   -7433.2512   -158.59526    27591.873    2.0861369 
    4650    343.45276   -7471.5031   -7433.1905   -117.74001     27605.53    2.0813501 
    4660    343.94282    -7471.519   -7433.1516   -189.84181    27618.397    2.0754907 
    4670    340.78094   -7471.1459   -7433.1313   -332.03064    27630.076    2.0703025 
    4680    340.08136   -7471.0601   -7433.1235   -527.27539    27639.749    2.0670819 
    4690    340.95016   -7471.1574   -7433.1238   -632.00271    27646.426    2.0661959 
    4700    340.27224   -7471.0894   -7433.1315   -539.90089    27649.579    2.0666509 
    4710    341.01379    -7471.185   -7433.1444   -363.81301     27649.69    2.0661922 
    4720    343.13404   -7471.4393   -7433.1622   -220.06741    27647.728    2.0628741 
    4730    344.62572    -7471.633   -7433.1895   -102.44352      27644.5    2.0564251 
    4740    341.62177   -7471.3364    -7433.228    25.602254    27640.714    2.0478115 
    4750    337.36439   -7470.9024   -7433.2689    67.572314    27637.068    2.0379098 
    4760    342.32661   -7471.4956   -7433.3086    10.226828    27633.786    2.0276719 
    4770    346.34778   -7471.9921   -7433.3565   -11.405402    27630.616    2.0187673 
    4780    342.32625   -7471.6065   -7433.4195     35.54003     27627.45    2.0124597 
    4790    337.33921   -7471.1201   -7433.4894    65.437462    27624.497    2.0085935 
    4800    337.26248   -7471.1809   -7433.5587    114.40356    27621.962    2.0063904 
    4810    340.35715   -7471.5942   -7433.6268    131.03787    27620.099    2.0053989 
    4820    346.63228   -7472.3694   -7433.7021    64.304959    27618.963    2.0055898 
    4830    355.50202   -7473.4564   -7433.7996   -114.76781    27618.137     2.007733 
    4840    361.36117   -7474.2512   -7433.9409   -354.68754    27616.618    2.0139135 
    4850    354.67955   -7473.6967   -7434.1317   -349.17906    27613.232    2.0258024 
    4860    347.79365   -7473.1528   -7434.3559   -194.52181    27607.951    2.0417032 
    4870    344.88762   -7473.0685   -7434.5958   -72.645943    27601.575    2.0582834 
    4880    344.02878   -7473.2176   -7434.8407    -44.88427     27594.77    2.0732134 
    4890    345.34619   -7473.6114   -7435.0875   -26.972952    27587.741    2.0861226 
    4900    337.66256   -7472.9898   -7435.3231   -11.880192    27580.594    2.0986301 
    4910    329.05697   -7472.2305   -7435.5237   -46.517231    27573.415    2.1125383 
    4920    326.87803   -7472.1389   -7435.6752   -81.937148    27566.029     2.128922 
    4930    328.37465   -7472.4095   -7435.7788   -40.592662    27558.256    2.1478335 
    4940    330.29752   -7472.6908   -7435.8456    140.78779    27550.365     2.168824 
    4950    330.08713    -7472.706   -7435.8843    340.56316    27543.306    2.1910823 
    4960    329.68394   -7472.6756   -7435.8989    432.36025    27538.142    2.2127122 
    4970     336.3286   -7473.4145   -7435.8965    396.79316    27535.372    2.2324464 
    4980     344.0709   -7474.2733   -7435.8916    361.93823    27534.864    2.2512197 
    4990    346.27481   -7474.5263   -7435.8989    218.35755    27536.344    2.2703936 
    5000    344.02154   -7474.2964   -7435.9203     -56.4152    27538.972    2.2896698 
Loop time of 2513.43 on 16 procs for 3000 steps with 864 atoms

Performance: 0.103 ns/day, 232.725 hours/ns, 1.194 timesteps/s
97.7% CPU use with 16 MPI tasks x 1 OpenMP threads

MPI task timing breakdown:
Section |  min time  |  avg time  |  max time  |%varavg| %total
---------------------------------------------------------------
Pair    | 1873       | 2322.2     | 2509       | 319.9 | 92.39
Bond    | 0.00028634 | 0.0010586  | 0.0028737  |   1.9 |  0.00
Neigh   | 0.038867   | 0.046133   | 0.051326   |   1.3 |  0.00
Comm    | 1.1141     | 153.54     | 614.42     |1264.3 |  6.11
Output  | 0.19866    | 0.20504    | 0.29894    |   5.4 |  0.01
Modify  | 0.84923    | 37.393     | 99.558     | 612.1 |  1.49
Other   |            | 0.03421    |            |       |  0.00

Nlocal:        54.0000 ave          64 max          41 min
Histogram: 1 0 0 2 3 4 2 1 2 1
Nghost:        417.438 ave         433 max         387 min
Histogram: 1 1 0 1 0 4 1 0 3 5
Neighs:         0.00000 ave           0 max           0 min
Histogram: 16 0 0 0 0 0 0 0 0 0
FullNghs:      1675.50 ave        2161 max        1153 min
Histogram: 1 0 2 1 3 4 2 2 0 1

Total # of neighbors = 26808
Ave neighs/atom = 31.027778
Ave special neighs/atom = 0.0000000
Neighbor list builds = 300
Dangerous builds = 300
unfix   2

fix     3 all npt temp 337.5 337.5 $(100.0*dt) aniso 1.01325 1.01325 $(1000.0*dt)
fix     3 all npt temp 337.5 337.5 0.10000000000000000555 aniso 1.01325 1.01325 $(1000.0*dt)
fix     3 all npt temp 337.5 337.5 0.10000000000000000555 aniso 1.01325 1.01325 1
run     20000
Per MPI rank memory allocation (min/avg/max) = 8.897 | 8.898 | 8.900 Mbytes
Step Temp PotEng TotEng Press Volume c_msd[4] 
    5000    344.02154   -7474.2964   -7435.9203     -56.4152    27538.972    2.2896698 
    5010    338.85833   -7473.7263   -7435.9261   -300.06741    27538.572     2.296247 
    5020    334.82882   -7473.2881   -7435.9374   -345.73874    27536.594    2.3009273 
    5030     332.1852   -7472.9996   -7435.9439   -194.79645    27532.775    2.3039925 
    5040     331.2833   -7472.8925   -7435.9374    25.093435    27527.895    2.3056426 
    5050    335.34522   -7473.3247   -7435.9164    149.51115    27523.088    2.3060034 
    5060    339.27286   -7473.7326   -7435.8862    253.51872    27519.121    2.3052571 
    5070    343.26508   -7474.1503   -7435.8585    301.69261    27516.545    2.3032224 
    5080    341.34263   -7473.9187   -7435.8414    360.45033    27515.677    2.3001406 
    5090    333.22084   -7473.0029   -7435.8316    403.51712    27516.832    2.2956466 
    5100    328.24228   -7472.4324   -7435.8164    345.45966    27520.211    2.2886307 
    5110    324.02487   -7471.9241   -7435.7786    231.93689    27525.535    2.2793601 
    5120    328.64841   -7472.3684   -7435.7072    81.775908    27532.165    2.2696461 
    5130    333.61508   -7472.8128   -7435.5975    32.864078    27539.348    2.2613831 
    5140    333.17404   -7472.6185   -7435.4525     44.26797    27546.781    2.2547292 
    5150    335.71335   -7472.7197   -7435.2704    20.489038    27554.466     2.248144 
    5160    339.31698   -7472.9009   -7435.0496    -57.39506    27562.261    2.2405712 
    5170    345.18341   -7473.3046   -7434.7989   -152.39161    27569.758     2.232491 
    5180    353.12425   -7473.9219   -7434.5304   -254.72071    27576.411    2.2253234 
    5190    353.26014   -7473.6735   -7434.2668   -284.21877    27581.706    2.2200217 
    5200    337.29884   -7471.6462     -7434.02   -220.12173    27585.472    2.2160404 
    5210    326.98053   -7470.2477   -7433.7726   -88.655601    27588.023    2.2116347 
    5220    335.78627   -7470.9574      -7433.5    17.394265    27590.059    2.2060136 
    5230    346.29389   -7471.8412   -7433.2116    62.693432    27592.166    2.2001976 
    5240    345.69395    -7471.503   -7432.9403    37.161025    27594.614    2.1951094 
    5250    346.00021   -7471.2969      -7432.7   -20.920679    27597.277    2.1907082 
    5260    356.19446   -7472.2259   -7432.4919   -87.936664    27599.819    2.1873513 
    5270    368.76548   -7473.4715   -7432.3351    -116.1699    27601.883    2.1865135 
    5280    372.00892   -7473.7548   -7432.2566    -29.16589     27603.37    2.1887906 
    5290    366.04853   -7473.0938   -7432.2605     49.63607     27604.71    2.1931826 
    5300    357.86222   -7472.2464   -7432.3264    74.584769    27606.321    2.1989548 
    5310    350.72409   -7471.5554   -7432.4316    34.165873    27608.331    2.2064916 
    5320    342.71931   -7470.7875   -7432.5566    62.660375    27610.597    2.2156506 
    5330    341.95363   -7470.8344   -7432.6889    127.34663     27613.25    2.2249272 
    5340    344.75078   -7471.2856   -7432.8281    183.09208    27616.631     2.232569 
    5350    345.94879   -7471.5681    -7432.977    162.63511    27621.043    2.2370219 
    5360    348.23185   -7471.9853   -7433.1395   -7.0130815     27626.32    2.2388427 
    5370    346.65475   -7471.9855   -7433.3156   -135.40053    27631.612    2.2414242 
    5380    342.45348   -7471.6985   -7433.4973   -216.87505    27636.156    2.2471096 
    5390    341.96881   -7471.8238   -7433.6766   -163.27582    27639.542    2.2556279 
    5400    344.32816   -7472.2609   -7433.8506    45.451895    27642.107    2.2659107 
    5410    348.73369   -7472.9253   -7434.0236    64.471588    27644.841    2.2767494 
    5420    348.01005   -7473.0186   -7434.1975   -100.79087    27647.872    2.2874392 
    5430    343.68242   -7472.7067   -7434.3684   -266.87221    27650.356    2.2975713 
    5440    339.71479   -7472.4224   -7434.5267   -356.25798    27651.398    2.3071575 
    5450    338.49047   -7472.4265   -7434.6674    -357.6119    27650.466     2.317227 
    5460    337.33033   -7472.4196   -7434.7899   -318.63785     27647.52    2.3292527 
    5470    337.25156   -7472.5169    -7434.896   -255.57637    27642.736    2.3433057 
    5480    333.71366   -7472.2082   -7434.9819    65.742532    27636.615    2.3579488 
    5490    334.51672   -7472.3603   -7435.0445    320.06574    27630.781    2.3709344 
    5500    342.48434   -7473.2987    -7435.094    456.25383    27626.691    2.3814465 
    5510    345.54591   -7473.6933   -7435.1472    508.47468    27625.151     2.390537 
    5520    347.23356   -7473.9487   -7435.2143    454.81021    27626.466    2.3991366 
    5530    348.60548   -7474.1832   -7435.2957     317.9955    27630.359    2.4081472 
    5540    347.84497   -7474.1925   -7435.3899    103.89281    27636.065    2.4184323 
    5550    344.11769    -7473.879   -7435.4922   -106.71734    27642.403     2.430117 
    5560    340.58771   -7473.5916   -7435.5986   -202.41698    27648.233    2.4425211 
    5570    339.25983   -7473.5519    -7435.707   -304.91026    27652.935    2.4545303 
    5580    336.80603   -7473.3855   -7435.8143   -506.57903    27655.866    2.4654068 
    5590    330.97648    -7472.832   -7435.9111   -475.92267    27656.049    2.4748283 
    5600    332.03124   -7473.0304   -7435.9918   -231.01294    27653.619     2.482736 
    5610    336.01852   -7473.5434     -7436.06   -16.093265    27649.829    2.4899935 
    5620    335.54774   -7473.5524   -7436.1215    73.903323    27645.865    2.4972498 
    5630    335.35501    -7473.588   -7436.1787      49.0084     27642.23    2.5043771 
    5640     334.3147    -7473.524   -7436.2307    42.839437    27638.856    2.5117698 
    5650    332.69876   -7473.3892   -7436.2761    9.1624285    27635.685    2.5199383 
    5660    331.80966   -7473.3266   -7436.3127   -61.179041     27632.52    2.5289968 
    5670    328.50149   -7472.9821   -7436.3373   -168.16131    27628.946    2.5394375 
    5680    323.93388   -7472.4776   -7436.3423    -251.5649      27624.4    2.5515159 
    5690    325.27071   -7472.6042   -7436.3198   -382.57899    27618.349    2.5636836 
    5700    333.54329    -7473.479   -7436.2717   -525.05304    27610.044    2.5741563 
    5710    337.10975   -7473.8142   -7436.2091   -467.96419    27598.756    2.5830161 
    5720    334.48102   -7473.4495   -7436.1376   -254.50289    27584.753    2.5909841 
    5730    336.79587   -7473.6236   -7436.0535   -116.76253    27569.118    2.5985121 
    5740    343.76189   -7474.3042   -7435.9571   -117.81502    27552.577    2.6071557 
    5750     345.0688   -7474.3508   -7435.8578   -88.362601    27535.212    2.6190215 
    5760    342.22644   -7473.9361   -7435.7602   -17.180937    27517.177    2.6342288 
    5770    345.21505   -7474.1711   -7435.6619    2.5276858    27498.812    2.6514131 
    5780     345.1866   -7474.0682   -7435.5621    103.51224    27480.303    2.6692052 
    5790    338.47228   -7473.2171     -7435.46    326.80617     27462.24    2.6855496 
    5800    334.14628   -7472.6169   -7435.3423    485.07744    27445.784    2.6983634 
    5810    338.02181   -7472.9027   -7435.1958    429.44358    27431.756    2.7064885 
    5820    344.70589   -7473.4724   -7435.0199    266.08913    27419.911    2.7103486 
    5830    346.23351   -7473.4461   -7434.8233    323.79151    27409.548    2.7120528 
    5840    345.25238   -7473.1265    -7434.613    487.47969    27400.916    2.7133668 
    5850    344.62076   -7472.8343   -7434.3913    776.15611    27394.996    2.7143294 
    5860    345.94882    -7472.754   -7434.1629    1041.3326    27393.332    2.7132319 
    5870    345.46807   -7472.4737   -7433.9362    1162.9953    27397.414    2.7086648 
    5880    346.61801   -7472.3843   -7433.7185    1086.5281    27408.008    2.7009135 
    5890    348.20514    -7472.355   -7433.5121    886.61625    27424.826    2.6916489 
    5900    348.10789    -7472.153    -7433.321    581.24851    27446.859    2.6817356 
    5910    345.95049   -7471.7357   -7433.1444    273.24709    27472.542    2.6710724 
    5920    343.44237   -7471.2917   -7432.9802    155.27403    27500.282    2.6592191 
    5930    347.28574   -7471.5696   -7432.8293    135.65795    27529.389    2.6450576 
    5940    348.58571   -7471.5815   -7432.6963    131.39716    27559.748     2.628204 
    5950    343.73412     -7470.93    -7432.586    145.18581    27591.361    2.6096702 
    5960    340.16814   -7470.4362   -7432.4899    119.80135    27624.304    2.5914237 
    5970    344.90049   -7470.8738   -7432.3997   -87.676255    27658.365    2.5752272 
    5980    344.66874    -7470.764   -7432.3157   -310.08674    27692.467    2.5619527 
    5990    340.20743   -7470.1918   -7432.2411   -458.83937    27725.361     2.550558 
    6000    342.09474   -7470.3312     -7432.17    -538.6085    27756.174    2.5389545 
    6010    350.34286   -7471.1873    -7432.106   -552.29496    27784.386    2.5256154 
    6020    353.91597   -7471.5451   -7432.0652    -502.1089    27809.878    2.5110637 
    6030    353.16839   -7471.4577   -7432.0612   -492.66444    27832.817    2.4969181 
    6040    350.32885   -7471.1769   -7432.0971    -465.7564    27853.259    2.4840122 
    6050    349.08354   -7471.1133   -7432.1725   -424.72077    27871.306    2.4716418 
    6060    356.85277   -7472.1026   -7432.2952   -468.65471    27887.128    2.4583082 
    6070    360.34622    -7472.682   -7432.4848   -664.84486    27900.387    2.4434754 
    6080    351.24603   -7471.9299   -7432.7479   -842.45053    27909.987    2.4275382 
    6090    345.41828    -7471.599   -7433.0671   -949.43447    27914.828    2.4106685 
    6100     348.9586   -7472.3605   -7433.4337   -912.85264    27914.281    2.3936923 
    6110    349.12537   -7472.7879   -7433.8425   -942.64641     27908.35    2.3791747 
    6120     343.2955   -7472.5599   -7434.2648   -1011.9924    27896.825    2.3697836 
    6130    343.40763   -7472.9768   -7434.6691   -1029.4117    27879.269    2.3654964 
    6140    344.94959   -7473.5201   -7435.0405   -943.42366    27855.551    2.3648218 
    6150    340.99864    -7473.403   -7435.3641   -803.46659    27826.112    2.3661022 
    6160    337.92428   -7473.3325   -7435.6365   -649.64094    27791.699    2.3674595 
    6170    333.43841    -7473.047   -7435.8515    -375.0135    27753.288    2.3673018 
    6180    336.01879   -7473.5001   -7436.0167   -134.93828    27712.378    2.3645589 
    6190    338.23498   -7473.8822   -7436.1516   -13.299429    27670.348    2.3600311 
    6200    331.62123   -7473.2565   -7436.2636    137.76058    27628.061    2.3561466 
    6210     326.0482   -7472.7135   -7436.3423    334.01785     27586.43    2.3544032 
    6220    333.52289   -7473.5925   -7436.3875     524.5921    27546.636    2.3546923 
    6230    339.08407   -7474.2415   -7436.4162     637.4348    27509.788    2.3571986 
    6240    333.67091   -7473.6613   -7436.4398    655.23994    27476.571    2.3614143 
    6250    325.85388   -7472.7958   -7436.4463    648.94676    27447.166    2.3648876 
    6260    326.27184   -7472.8176   -7436.4215    622.85343    27421.569    2.3648055 
    6270     336.0303    -7473.855   -7436.3703    578.31832    27399.633     2.361427 
    6280    340.33004   -7474.2747   -7436.3104     756.5479    27381.245     2.357844 
    6290    332.95295   -7473.3916   -7436.2501    972.04961     27367.26    2.3546815 
    6300    330.72697   -7473.0769   -7436.1839    1077.9197    27358.769    2.3501302 
    6310    335.30312   -7473.5093   -7436.1057     1110.145    27356.316    2.3448656 
    6320     336.2689   -7473.5338   -7436.0225    1117.2305    27360.037    2.3416809 
    6330    334.41857   -7473.2454   -7435.9405    1123.7377    27369.913    2.3413438 
    6340    334.05836    -7473.124   -7435.8593    1030.9903    27385.844    2.3422364 
    6350    331.89577   -7472.7983   -7435.7748    877.88872    27407.288    2.3434877 
    6360    334.80752   -7473.0307   -7435.6824    678.79296     27433.32    2.3446758 
    6370    343.82296   -7473.9362   -7435.5823    493.94151    27462.835    2.3450276 
    6380    351.18491   -7474.6632    -7435.488    328.73318    27494.764    2.3439906 
    6390    355.12818   -7475.0352   -7435.4201    323.52265     27528.24    2.3420347 
    6400    349.20505   -7474.3429   -7435.3886    377.33364    27563.137    2.3404107 
    6410    346.86552    -7474.082   -7435.3887    318.85837    27599.653    2.3394759 
    6420    346.26256   -7474.0378   -7435.4117    164.06884    27637.448    2.3393856 
    6430    339.12723   -7473.2835   -7435.4533    60.801899    27675.699    2.3405675 
    6440    334.36336   -7472.7984   -7435.4997   -64.905595    27713.734    2.3426715 
    6450    336.30056   -7473.0515   -7435.5367   -268.25024    27750.786    2.3447772 
    6460    338.18833   -7473.2897   -7435.5642   -446.54537    27785.744    2.3459429 
    6470    341.06868   -7473.6382   -7435.5914   -622.19371    27817.569    2.3458281 
    6480    343.86912   -7473.9897   -7435.6306   -725.76099    27845.322    2.3455393 
    6490    337.77276   -7473.3694   -7435.6904   -778.62621    27868.426    2.3466444 
    6500    326.02678   -7472.1278    -7435.759   -775.75761    27886.666    2.3495409 
    6510    320.95047   -7471.6147   -7435.8122   -834.06428    27900.076    2.3534563 
    6520    324.38601   -7472.0212   -7435.8355   -967.05296    27908.377    2.3578028 
    6530    328.95923    -7472.525   -7435.8291   -992.81558    27911.012     2.362731 
    6540    334.63299   -7473.1331   -7435.8043   -913.66546    27907.956      2.36816 
    6550    337.78079   -7473.4508   -7435.7708   -751.56676    27899.791    2.3733192 
    6560    341.33804   -7473.8108    -7435.734   -574.15133    27887.528    2.3771393 
    6570    338.59811   -7473.4652   -7435.6941   -430.70018    27872.266    2.3788273 
    6580    334.69748   -7472.9847   -7435.6486   -319.78728    27854.929    2.3775365 
    6590    340.02279   -7473.5253   -7435.5953    -309.4162    27836.148    2.3738184 
    6600    341.16262   -7473.5978   -7435.5406   -235.03114    27816.138     2.371189 
    6610    333.66229   -7472.7067   -7435.4862   -201.67223    27795.278    2.3729809 
    6620    331.32943   -7472.3829   -7435.4226    -287.5332    27773.743    2.3794426 
    6630    331.82522   -7472.3553   -7435.3397   -304.18121    27751.165    2.3878125 
    6640    338.41888    -7472.988   -7435.2369   -280.01962    27727.453    2.3940962 
    6650    348.67644    -7474.022   -7435.1266   -321.54751     27702.72    2.3962142 
    6660    349.56679   -7474.0229   -7435.0282   -297.20181     27676.84     2.394509 
    6670    348.55926   -7473.8338   -7434.9515   -161.71871    27649.991    2.3897813 
    6680    348.60193   -7473.7813   -7434.8942     11.84861    27622.919    2.3830546 
    6690    346.76487   -7473.5398   -7434.8576    112.55589     27596.55    2.3761732 
    6700    342.32921   -7473.0253   -7434.8379    180.59755    27571.453    2.3711452 
    6710    342.60245   -7473.0468    -7434.829    196.84768    27547.954     2.368273 
    6720    342.52067   -7473.0398   -7434.8311    111.03443    27526.055    2.3661197 
    6730    337.62435   -7472.5062   -7434.8437    82.148287    27505.345    2.3630603 
    6740    333.35217   -7472.0444   -7434.8585     125.4013    27485.627    2.3581735 
    6750    332.97111    -7472.008   -7434.8646    188.69267     27467.07    2.3519046 
    6760    338.56035   -7472.6289    -7434.862    212.16603    27449.965    2.3459811 
    6770    340.18771   -7472.8068   -7434.8583    317.37037    27434.481    2.3427229 
    6780    339.41031   -7472.7205   -7434.8587     468.1516    27421.128    2.3432894 
    6790    342.34596   -7473.0552    -7434.866    463.68701    27410.582    2.3469893 
    6800     345.5385   -7473.4316   -7434.8863    357.87076    27402.793    2.3524776 
    6810    350.58941   -7474.0404   -7434.9316    240.57092    27397.137    2.3585259 
    6820     351.0332   -7474.1731   -7435.0148    196.83377    27392.948    2.3641758 
    6830    340.73135   -7473.1436   -7435.1345    280.61254    27389.999    2.3680831 
    6840    330.81034    -7472.172   -7435.2696    402.34362    27388.686    2.3692828 
    6850    332.12005   -7472.4539   -7435.4054    400.65125    27389.556    2.3682949 
    6860    334.94375   -7472.9051   -7435.5416    341.97845     27392.63    2.3671454 
    6870    334.25962   -7472.9685   -7435.6814    250.71063    27397.544    2.3671932 
    6880    333.91214    -7473.073   -7435.8246    146.72228    27403.759    2.3682911 
    6890    331.84578   -7472.9854   -7435.9675    120.73655    27410.743     2.370408 
    6900    332.81503   -7473.2339   -7436.1079    117.09672    27418.304    2.3735476 
    6910    336.13194    -7473.745    -7436.249    76.332974    27426.361    2.3774879 
    6920    337.04625   -7473.9927   -7436.3947    95.785709    27434.761    2.3817444 
    6930    337.92122   -7474.2454   -7436.5498    73.426568    27443.534     2.385715 
    6940    330.33485    -7473.558   -7436.7086    168.67399    27452.673    2.3890108 
    6950    325.94787   -7473.2173   -7436.8573    150.66886    27462.579    2.3903058 
    6960    333.84001   -7474.2336   -7436.9933   -51.605132    27473.102    2.3886701 
    6970    338.82384   -7474.9243    -7437.128   -173.57913    27483.267    2.3844608 
    6980     339.2652   -7475.1187   -7437.2731   -151.44389    27492.415    2.3775839 
    6990      337.841   -7475.1173   -7437.4307   -19.534223    27500.672    2.3683946 
    7000    333.92866   -7474.8461   -7437.5958    39.100353    27508.693    2.3590839 
    7010    326.57205   -7474.1867   -7437.7571   -9.2661234    27516.795    2.3522473 
    7020    317.43116   -7473.3068   -7437.8968   -69.941656    27524.768    2.3490424 
    7030    313.06419   -7472.9203   -7437.9976   -184.48549    27532.245     2.349014 
    7040     318.9654   -7473.6359   -7438.0548   -370.99787    27538.585    2.3507971 
    7050    323.57434   -7474.1704   -7438.0752   -488.08254    27542.824    2.3533746 
    7060    320.57234   -7473.8245   -7438.0642   -390.09336    27544.398    2.3556903 
    7070    323.91716   -7474.1514   -7438.0179   -347.19578    27543.727    2.3562689 
    7080    335.37325     -7475.35   -7437.9386   -432.10409    27541.035    2.3555412 
    7090    335.34637   -7475.2449   -7437.8365   -352.30087    27536.023    2.3556953 
    7100     332.1882   -7474.7721    -7437.716   -179.19551    27529.107    2.3573375 
    7110    330.07243   -7474.3855   -7437.5654   -66.285787    27521.195     2.360307 
    7120    328.94369   -7474.0697   -7437.3755   -49.035357    27512.922    2.3647803 
    7130    331.67586   -7474.1388   -7437.1398   -63.088566    27504.416    2.3709853 
    7140    333.37238   -7474.0455   -7436.8573    18.391489    27495.645      2.37882 
    7150     330.6487   -7473.4186   -7436.5342    259.57961    27487.104    2.3876388 
    7160    332.85426   -7473.3094    -7436.179    460.43945    27480.042    2.3969761 
    7170    339.19773   -7473.6472   -7435.8092    490.59035    27475.497     2.407937 
    7180    339.10992   -7473.2848   -7435.4566    526.35501    27473.745    2.4215303 
    7190    335.90208   -7472.6149   -7435.1445    520.77073    27474.925    2.4364631 
    7200    341.37786   -7472.9562    -7434.875    468.34917    27479.016    2.4511307 
    7210    349.92935   -7473.6871    -7434.652    406.15535    27485.729    2.4652461 
    7220    353.83807   -7473.9568   -7434.4856    345.55563      27494.7    2.4786352 
    7230    355.71038    -7474.057   -7434.3769    232.29464    27505.566    2.4904024 
    7240    355.42124   -7473.9664   -7434.3187    101.73083    27517.695    2.4994147 
    7250    349.92473   -7473.3351   -7434.3004   -41.372707    27530.356    2.5047058 
    7260     351.2622   -7473.4972   -7434.3134   -286.21218    27542.693    2.5058262 
    7270    350.38013   -7473.4398   -7434.3543   -429.60112    27553.436    2.5046865 
    7280    339.08306   -7472.2409   -7434.4157   -391.76622    27561.797     2.503959 
    7290    330.64263   -7471.3585   -7434.4748   -203.61486    27567.995    2.5052437 
    7300    338.45546   -7472.2759   -7434.5207    67.618709    27573.075    2.5091171 
    7310    351.53182   -7473.7841   -7434.5702    360.99436     27578.52    2.5155749 
    7320    352.80029   -7474.0047   -7434.6493    698.86126    27586.022    2.5234642 
    7330    346.20003   -7473.3815   -7434.7623    911.78856    27597.421    2.5295727 
    7340    344.11159   -7473.2829   -7434.8968    796.36006    27613.816    2.5306549 
    7350    349.04443   -7473.9833   -7435.0469    416.46721    27634.581    2.5266611 
    7360    347.79522   -7474.0118   -7435.2147    5.7405411     27657.67    2.5205367 
    7370    337.88723   -7473.0834   -7435.3916   -159.31017     27680.93    2.5155242 
    7380    337.31634   -7473.1926   -7435.5645   -219.04542    27703.304     2.513897 
    7390    342.25459   -7473.9147   -7435.7356   -245.37212    27724.426    2.5164049 
    7400    339.74939   -7473.8076    -7435.908   -431.99273    27744.032    2.5216251 
    7410    333.29774   -7473.2532   -7436.0733   -742.12367    27761.084    2.5267209 
    7420    327.44858    -7472.746   -7436.2186   -907.54246     27773.97    2.5289477 
    7430    327.76561   -7472.9013   -7436.3386   -946.88237     27781.71    2.5267632 
    7440    332.41149     -7473.52    -7436.439   -895.46753    27784.079      2.51986 
    7450     331.5736   -7473.5139   -7436.5263   -764.96565    27781.354    2.5097967 
    7460    327.28346   -7473.1068   -7436.5978   -546.53662    27774.282    2.4995346 
    7470    328.30214   -7473.2702   -7436.6476   -387.96233    27764.051    2.4917052 
    7480    333.26999   -7473.8544   -7436.6777   -405.56509    27751.504    2.4872704 
    7490    338.41252   -7474.4494   -7436.6989   -453.27046    27736.609    2.4856532 
    7500    341.44771   -7474.8114   -7436.7224    -296.3342    27719.212    2.4853151 
    7510    339.73069   -7474.6479   -7436.7505    44.543295    27700.208    2.4845201 
    7520    338.65108   -7474.5566   -7436.7795    356.76328     27681.42    2.4822831 
    7530    341.40863   -7474.8964   -7436.8118    555.39386    27664.592     2.478732 
    7540    338.28371   -7474.5858   -7436.8498    696.13186    27650.892    2.4747779 
    7550    333.08491   -7474.0458   -7436.8897    769.63269    27641.109     2.471409 
    7560    332.88401   -7474.0595   -7436.9258    792.73565    27635.676    2.4696657 
    7570    332.54872   -7474.0531   -7436.9568    765.11664    27634.733     2.470087 
    7580    329.66121   -7473.7563   -7436.9821    704.01739     27638.15    2.4716043 
    7590    329.02248   -7473.7012   -7436.9982    574.22041    27645.555    2.4725457 
    7600    328.30093   -7473.6213   -7436.9989    387.77555    27656.234    2.4724977 
    7610    332.83561   -7474.1085   -7436.9802    116.07138    27669.124    2.4720047 
    7620    338.62519   -7474.7156   -7436.9415   -183.33026    27682.705    2.4724835 
    7630    337.40028   -7474.5244   -7436.8869   -360.82513    27695.341    2.4755193 
    7640    333.10404   -7473.9699   -7436.8117     -368.025    27706.046    2.4811981 
    7650    334.85253   -7474.0588   -7436.7055   -356.69993     27714.68     2.488202 
    7660    341.98531   -7474.7136   -7436.5647   -344.03274    27721.313    2.4950201 
    7670    349.56244   -7475.3964   -7436.4021   -377.97962    27725.988    2.5013485 
    7680    353.26699   -7475.6459   -7436.2385   -392.09338    27728.542    2.5087079 
    7690    351.45845   -7475.2954   -7436.0897   -436.01912    27728.841    2.5179459 
    7700    347.67218   -7474.7456   -7435.9623   -552.49823    27726.601    2.5276404 
    7710    341.98989   -7474.0009   -7435.8514   -550.70967     27721.26    2.5364218 
    7720    338.00328   -7473.4516   -7435.7468   -419.98518    27712.797    2.5437804 
    7730    338.92163   -7473.4472   -7435.6399   -210.92658    27701.956     2.549279 
    7740    338.22562   -7473.2568   -7435.5272   -136.42854    27689.811    2.5525297 
    7750    342.73594   -7473.6457    -7435.413   -214.75155    27676.768    2.5535723 
    7760    344.98553   -7473.7886   -7435.3049   -349.79053    27662.412     2.553911 
    7770    338.87806   -7473.0114    -7435.209   -327.16296    27646.099    2.5545944 
    7780    336.11551   -7472.6087   -7435.1145   -110.09353    27627.972     2.554461 
    7790     338.9145   -7472.8158   -7435.0094    253.70112    27609.251    2.5522432 
    7800    344.11741   -7473.2822   -7434.8954    652.93447    27591.935    2.5491692 
    7810    354.91028   -7474.3821   -7434.7913     880.6592    27578.191    2.5478361 
    7820    357.33483   -7474.5831   -7434.7218    894.31742    27569.307    2.5498099 
    7830    352.22962   -7473.9917   -7434.6999    769.06699    27565.404    2.5545028 
    7840    348.11053   -7473.5485   -7434.7163    561.11398    27565.795    2.5598537 
    7850    343.14797   -7473.0346   -7434.7559    372.80459    27569.389    2.5634087 
    7860    342.04598   -7472.9646   -7434.8088    145.17612    27575.093    2.5625765 
    7870    345.13866   -7473.3755   -7434.8748   -105.91744    27581.642    2.5567485 
    7880    345.75254   -7473.5318   -7434.9626   -210.70257      27587.7    2.5486487 
    7890     342.4092   -7473.2719   -7435.0756   -160.41974    27592.678    2.5420697 
    7900    342.71622   -7473.4412   -7435.2107   -114.61631    27596.767    2.5393275 
    7910     344.8688   -7473.8408   -7435.3701    -63.12966    27600.227    2.5407996 
    7920    342.50461   -7473.7656   -7435.5587   -27.291689    27603.355    2.5451845 
    7930    335.62572   -7473.2081   -7435.7686   -9.5268326    27606.369    2.5500373 
    7940    332.78211   -7473.1102   -7435.9879   -55.478461    27609.307    2.5530187 
    7950    329.90179   -7473.0074   -7436.2064    13.190513    27612.008    2.5543957 
    7960    327.04292   -7472.8959   -7436.4137    229.97228    27614.895    2.5569331 
    7970    328.27947   -7473.2211    -7436.601    382.79771    27619.058    2.5627426 
    7980    331.94118   -7473.7921   -7436.7636    452.51872    27625.382    2.5715249 
    7990    340.42234   -7474.8826   -7436.9079    450.23617    27634.295    2.5805389 
    8000    348.61067   -7475.9424   -7437.0544    359.29197    27645.769    2.5865613 
    8010    348.86614   -7476.1376   -7437.2211    229.80602    27659.306    2.5880363 
    8020    345.21924   -7475.9184   -7437.4087    164.80261    27674.205    2.5849412 
    8030      342.657   -7475.8355   -7437.6115    224.54318     27690.15    2.5785786 
    8040    341.20336   -7475.8855   -7437.8237     216.8012    27707.363    2.5719183 
    8050    340.46476   -7476.0164    -7438.037    175.50001    27725.808    2.5688816 
    8060    340.51264   -7476.2338   -7438.2491    181.22106    27745.276    2.5719007 
    8070    338.96716   -7476.2708   -7438.4585    284.67543    27765.854    2.5796268 
    8080    334.08769   -7475.9258   -7438.6579    314.16578    27788.008    2.5886689 
    8090    327.77274   -7475.3951   -7438.8315    263.71432    27811.927    2.5962516 
    8100    329.53894   -7475.7322   -7438.9717    48.184338     27837.25    2.6017721 
    8110    333.42948   -7476.2753   -7439.0807   -214.94938     27862.81    2.6068046 
    8120    333.10174   -7476.3237   -7439.1657   -390.37497    27887.144    2.6127497 
    8130    331.59638   -7476.2201   -7439.2301   -498.15824    27909.212    2.6195031 
    8140    331.09858   -7476.2085   -7439.2739   -563.13079    27928.385    2.6262085 
    8150    332.00415   -7476.3377   -7439.3022   -574.11056    27944.284    2.6329518 
    8160    327.14431   -7475.8089   -7439.3154   -610.26962    27956.818    2.6413946 
    8170    317.50066   -7474.7217    -7439.304   -736.65516    27965.743    2.6531995 
    8180    318.84285   -7474.8274     -7439.26   -910.18812    27970.346    2.6682876 
    8190    324.21961   -7475.3538   -7439.1866   -1071.2529    27969.654    2.6857947 
    8200    322.89751   -7475.1146   -7439.0949   -1142.9873    27962.774    2.7054276 
    8210    324.50919   -7475.1902   -7438.9907   -1180.9566    27949.278    2.7267365 
    8220    328.10387   -7475.4788   -7438.8783   -1261.9177     27928.93    2.7486517 
    8230    326.20979   -7475.1548   -7438.7656   -1202.2904    27901.406    2.7703301 
    8240    324.70862    -7474.873   -7438.6513   -1001.2333    27867.088    2.7920075 
    8250    328.51742   -7475.1766     -7438.53   -759.03082     27827.14    2.8161019 
    8260    331.14511   -7475.3402   -7438.4004   -441.62542    27783.051    2.8456204 
    8270    336.09078   -7475.7581   -7438.2666   -99.485415    27736.657    2.8815888 
    8280    337.51784   -7475.7826    -7438.132    280.86503    27689.988    2.9227765 
    8290    332.60356   -7475.1007   -7437.9983    716.93519    27645.274    2.9656245 
    8300    333.94421   -7475.1153   -7437.8633    1034.5386    27604.884    3.0052887 
    8310    338.62274   -7475.5077   -7437.7338    1161.0881    27570.553    3.0391572 
    8320    335.91123   -7475.0913   -7437.6199    1221.7655    27542.998    3.0671875 
    8330    335.27266   -7474.9196   -7437.5194     1208.745    27522.484    3.0889762 
    8340    343.01256   -7475.6951   -7437.4315    1012.2132    27508.814     3.104881 
    8350    346.58658   -7476.0273    -7437.365    708.68093    27500.864    3.1179496 
    8360    343.08716   -7475.5963   -7437.3244    441.10473    27496.964    3.1306911 
    8370     339.4168   -7475.1616   -7437.2991    233.11318     27495.58    3.1422805 
    8380    341.46434   -7475.3729   -7437.2821    185.74808      27495.6     3.151113 
    8390    340.90182   -7475.3005   -7437.2723     354.7696    27496.786    3.1574887 
    8400    340.15502   -7475.2165   -7437.2717    601.13843    27499.989     3.161986 
    8410    334.73714   -7474.6158   -7437.2754    785.93664     27506.54     3.164193 
    8420    329.78316   -7474.0646   -7437.2767    768.81542    27517.372    3.1631888 
    8430    329.24148   -7473.9933   -7437.2659    643.75341    27532.418    3.1594007 
    8440    333.81304   -7474.4783   -7437.2409    447.55494    27550.995      3.15396 
    8450    339.23189   -7475.0516   -7437.2097    276.54056    27572.053    3.1467998 
    8460    336.30242   -7474.6949   -7437.1799    265.99818     27594.69    3.1368955 
    8470      335.596   -7474.5866   -7437.1504    197.55966    27618.715    3.1225497 
[...]
   22890    346.13739   -7477.8963   -7439.2842   -246.92687    28112.074    3.5446824 
   22900    336.91883   -7477.0364   -7439.4526   -282.75844    28116.056    3.5486936 
   22910    331.95991    -7476.639   -7439.6084   -400.45957    28118.334    3.5552757 
   22920    334.71429   -7477.0849    -7439.747   -336.74327    28118.369    3.5635178 
   22930    336.59659   -7477.4214   -7439.8735   -135.96802    28116.485    3.5731144 
   22940    333.12703   -7477.1508     -7439.99   -15.260352    28113.722    3.5828958 
   22950    330.74829   -7476.9879   -7440.0925    1.9323225    28110.798    3.5902538 
   22960    329.87617    -7476.975   -7440.1769   -24.041595    28107.857    3.5932017 
   22970    329.94525   -7477.0485   -7440.2426   -75.159705     28104.75    3.5918287 
   22980    331.86077   -7477.3118   -7440.2922   -154.07918    28101.189    3.5886407 
   22990     335.3355   -7477.7394   -7440.3322   -261.86458    28096.697    3.5863615 
   23000    337.11312   -7477.9728   -7440.3674   -315.04683    28090.696    3.5850553 
   23010    340.56312   -7478.3944   -7440.4041   -409.70427    28082.796    3.5832443 
   23020    340.95773   -7478.4829   -7440.4485   -439.53737    28072.475    3.5813073 
   23030    336.91796   -7478.0836   -7440.4999   -368.39939     28059.56    3.5811626 
   23040    338.61655   -7478.3288   -7440.5556   -343.26129    28044.395    3.5845163 
   23050    338.12958   -7478.3339    -7440.615   -318.21471    28027.152    3.5933726 
   23060    336.07899   -7478.1682   -7440.6781   -308.04703    28007.955    3.6087995 
   23070    338.37466   -7478.4905   -7440.7443   -277.74612    27986.877    3.6293216 
   23080    337.07587   -7478.4164   -7440.8151   -177.20796    27964.098    3.6509056 
   23090    328.89621   -7477.5746   -7440.8858   -17.352981    27940.208    3.6685684 
   23100    322.68938   -7476.9379   -7440.9414    136.38321    27916.114    3.6798478 
   23110    325.44425   -7477.2772   -7440.9734    172.19998    27892.629     3.686236 
   23120     327.7953   -7477.5474   -7440.9814    159.80855    27870.001    3.6905717 
   23130    333.78191   -7478.2054   -7440.9715    162.26172    27848.192    3.6946488 
   23140    336.48652    -7478.485   -7440.9494    237.26518    27827.255    3.7002601 
   23150    332.59375   -7478.0173    -7440.916    345.92299    27807.605    3.7084408 
   23160    336.31685   -7478.3831   -7440.8665    377.23162    27789.819    3.7183074 
   23170    343.50196    -7479.125   -7440.8069    354.80097    27774.103    3.7294974 
   23180    338.70772   -7478.5304    -7440.747    381.05674    27760.381    3.7417716 
   23190    336.50081   -7478.2225   -7440.6853    462.66793    27748.816    3.7527315 
   23200    342.01068   -7478.7675   -7440.6157    517.82582    27739.836    3.7616833 
   23210    343.54049   -7478.8658   -7440.5433    683.87294    27733.841    3.7698484 
   23220    340.18099   -7478.4191   -7440.4714    786.39887    27731.685    3.7768139 
   23230    340.12402   -7478.3392   -7440.3979    673.18018    27733.925    3.7815702 
   23240      339.185   -7478.1569   -7440.3203    443.91621    27739.968    3.7845402 
   23250    336.30057   -7477.7523   -7440.2374    208.35673    27748.599    3.7862172 
   23260    337.17029   -7477.7558    -7440.144    18.465572    27758.523    3.7865363 
   23270    341.84639   -7478.1731   -7440.0396   -69.834977    27768.651    3.7861573 
   23280    343.17691   -7478.2137   -7439.9318    18.449921    27778.522     3.785698 
   23290    338.30958   -7477.5646   -7439.8257    153.60573    27788.579    3.7841204 
   23300    333.81718   -7476.9527   -7439.7149    203.98545    27799.541    3.7801462 
   23310     335.4442   -7477.0076   -7439.5883    148.58021    27811.708    3.7742366 
   23320    342.79728   -7477.6878   -7439.4483    103.88024    27824.825    3.7678068 
   23330    341.23057   -7477.3706   -7439.3058     167.2591    27838.666    3.7616737 
   23340    336.38721   -7476.6918   -7439.1673     294.3926    27853.569    3.7551447 
   23350     334.4314   -7476.3296   -7439.0232    329.89493    27870.226    3.7465568 
   23360    339.24378   -7476.7094   -7438.8662    89.297408     27888.75    3.7342447 
   23370    345.11013   -7477.1979   -7438.7003   -268.54675    27907.862    3.7193378 
   23380    341.18053   -7476.5979   -7438.5387   -566.10679    27925.561     3.705592 
   23390    334.81105   -7475.7327    -7438.384   -588.26125    27940.214    3.6951996 
   23400     335.6624   -7475.6704   -7438.2267   -482.64038    27951.583    3.6866577 
   23410    342.49774   -7476.2705   -7438.0644   -488.76508     27960.13    3.6771652 
   23420    343.83312   -7476.2619   -7437.9068   -493.48557    27965.901    3.6654717 
   23430    340.34663   -7475.7265   -7437.7603   -470.88739     27968.84    3.6520623 
   23440    344.72351   -7476.0747   -7437.6203    -421.7602    27969.083    3.6385149 
   23450    352.81244   -7476.8511   -7437.4943   -426.19139    27966.802    3.6266745 
   23460    347.58081   -7476.1693   -7437.3962   -156.28811    27962.173    3.6175043 
   23470    344.46437   -7475.7496   -7437.3241    241.15664    27956.672    3.6101517 
   23480    348.16845   -7476.1082   -7437.2695    447.91151    27952.446    3.6041468 
   23490    348.07566   -7476.0618   -7437.2334     379.4491    27950.676    3.5995712 
   23500    349.48667   -7476.2033   -7437.2175     142.3821    27951.043    3.5956093 
   23510    350.19481    -7476.287   -7437.2223   -1.1548726    27952.312     3.591414 
   23520    346.18007   -7475.8686   -7437.2517   -55.076317    27953.628    3.5871176 
   23530    341.74907   -7475.4237   -7437.3011   -173.43657    27954.595    3.5833425 
   23540    343.62225   -7475.6975   -7437.3659   -287.79959    27954.558    3.5802925 
   23550    347.12464   -7476.1733   -7437.4511   -305.69773    27952.882    3.5777078 
   23560    351.77869   -7476.8152   -7437.5738   -237.43099    27949.469    3.5745054 
   23570    351.24153   -7476.9339   -7437.7524   -201.88984    27944.644    3.5701799 
   23580    342.44923   -7476.1885   -7437.9878   -147.26993    27938.639    3.5646294 
   23590    336.75838   -7475.8286   -7438.2627   -110.49704    27931.746     3.557437 
   23600    336.78629   -7476.1341   -7438.5651   -42.672038     27924.22    3.5502836 
   23610    334.54207   -7476.2014   -7438.8827    52.959444    27916.452    3.5459489 
   23620    331.87497   -7476.2214   -7439.2003    159.25769    27908.998    3.5455491 
   23630    326.84214    -7475.957   -7439.4972    246.65839    27902.452    3.5477393 
   23640    324.18179   -7475.9192   -7439.7563    266.91079    27897.282    3.5488629 
   23650    326.99837   -7476.4486   -7439.9715    267.04273    27893.644    3.5451484 
   23660    333.55072   -7477.3602   -7440.1521    166.49316      27891.5    3.5355119 
   23670    335.23701   -7477.7037   -7440.3075    22.215114    27890.278    3.5219524 
   23680    337.28921   -7478.0676   -7440.4425    29.864856     27889.26    3.5075882 
   23690     344.4092   -7478.9853    -7440.566    66.511888     27888.42    3.4951984 
   23700    345.88512   -7479.2733   -7440.6893    212.74087    27888.054    3.4863528 
   23710    339.83187   -7478.7219   -7440.8131    293.64403    27888.894    3.4805416 
   23720    334.95669   -7478.2933   -7440.9284      205.468    27891.359    3.4751678 
   23730    331.28394   -7477.9793   -7441.0241    91.446946    27895.023    3.4673091 
   23740    333.65169   -7478.3175   -7441.0982   -63.302452    27899.201    3.4552378 
   23750    337.00967   -7478.7519   -7441.1579   -183.88664     27903.05    3.4391361 
   23760    332.18469   -7478.2621   -7441.2064   -114.45819    27905.969    3.4204342 
   23770    328.94697   -7477.9338   -7441.2392   -59.766586    27908.223    3.4013338 
   23780    326.67889    -7477.691   -7441.2495   -11.061257    27910.151    3.3845684 
   23790    330.61198   -7478.1188   -7441.2385   -14.529102    27911.992    3.3710729 
   23800     337.6127   -7478.8768   -7441.2156   -24.691616    27913.767    3.3607801 
   23810    334.75494   -7478.5304   -7441.1879   -134.43859     27915.35    3.3536916 
   23820    332.84701   -7478.2859   -7441.1564    -379.6645    27916.078    3.3491971 
   23830    333.04947   -7478.2719   -7441.1197    -654.1386    27914.584    3.3464473 
   23840    330.13129   -7477.9052   -7441.0785   -705.57959    27909.402    3.3438067 
   23850    329.67104   -7477.8029   -7441.0276   -603.00622    27900.152    3.3390869 
   23860    333.31312   -7478.1454   -7440.9638   -448.43734    27887.368    3.3320884 
   23870    335.29302   -7478.2934   -7440.8909   -206.71357    27871.967    3.3248079 
   23880    334.60904   -7478.1374   -7440.8113    12.108989    27855.263    3.3204826 
   23890    338.49256   -7478.4859   -7440.7265    168.01798     27838.51    3.3213896 
   23900    345.81203   -7479.2228   -7440.6469    134.87635    27822.534    3.3275891 
   23910    345.35104   -7479.1105   -7440.5861  -0.31665366    27807.188    3.3381534 
   23920    338.07083   -7478.2536   -7440.5413   -69.541078    27791.765    3.3503698 
   23930    332.78641   -7477.6159   -7440.4931    1.0150912    27775.913    3.3595693 
   23940    332.45514   -7477.5128   -7440.4269    125.62794        27760    3.3619822 
   23950    333.75297   -7477.5714   -7440.3407    218.83798    27744.718    3.3584112 
   23960    333.91708   -7477.4909   -7440.2419    256.02283    27730.579    3.3538454 
   23970     329.3735   -7476.8744   -7440.1323    439.97967    27717.915    3.3529461 
   23980    324.44469   -7476.1928   -7440.0005     718.5571    27707.755    3.3563566 
   23990    329.60337   -7476.6013   -7439.8335    892.86702    27701.605    3.3626149 
   24000    337.76793   -7477.3066    -7439.628    968.27564    27700.504    3.3710431 
   24010    340.85243    -7477.416   -7439.3934    867.42045    27704.867    3.3793566 
   24020    346.57103   -7477.7969   -7439.1364    611.28711     27714.16    3.3837491 
   24030    350.93153   -7478.0069     -7438.86    319.34567    27726.991    3.3828383 
   24040    346.84507   -7477.2653   -7438.5743    200.71295    27741.844    3.3778469 
   24050    343.00156   -7476.5427   -7438.2804    200.94877    27758.033     3.370808 
   24060    341.67217   -7476.0834   -7437.9694    161.45582    27775.485    3.3649144 
   24070    339.73651   -7475.5384   -7437.6403    108.30282    27794.006    3.3632742 
   24080    342.97121   -7475.5562   -7437.2972    63.188557     27813.31    3.3659262 
   24090    354.85212   -7476.5384   -7436.9541   -25.645308    27833.117    3.3706675 
   24100    360.13749   -7476.8185   -7436.6446   -172.92601    27852.901    3.3764422 
   24110    355.09678   -7476.0122   -7436.4006   -254.59197     27871.88    3.3824894 
   24120    352.96108   -7475.5925   -7436.2192   -296.05356    27889.569    3.3871033 
   24130    358.44775   -7476.0755   -7436.0902   -422.30534    27905.634    3.3894263 
   24140    359.47773   -7476.1172   -7436.0169   -536.18938    27919.394    3.3899322 
   24150    354.86822   -7475.5849   -7435.9988   -620.12269    27930.161    3.3896957 
   24160     350.7689   -7475.1514   -7436.0226   -661.42794     27937.43    3.3905553 
   24170    347.06211   -7474.7874   -7436.0721   -661.92745    27940.927    3.3946642 
   24180    353.65356   -7475.5961   -7436.1455   -786.08454    27940.503    3.4033528 
   24190     360.6105   -7476.4772   -7436.2505   -854.15573     27935.52    3.4185558 
   24200    360.01367    -7476.547   -7436.3869   -705.31123    27925.656    3.4411152 
   24210    355.81227   -7476.2281   -7436.5367     -483.652    27911.671    3.4696187 
   24220    352.62459     -7476.02   -7436.6842   -205.88436    27894.869    3.5015093 
   24230     354.4839    -7476.373   -7436.8298    17.422811    27876.797    3.5339598 
   24240    358.84227   -7477.0157   -7436.9863    138.66247    27858.722    3.5648023 
   24250    356.41243   -7476.9225   -7437.1642    314.71997    27841.447    3.5929001 
   24260     345.7815   -7475.9196   -7437.3472    585.50733    27826.018    3.6181134 
   24270    344.12536   -7475.9097    -7437.522    608.87004    27813.796    3.6406712 
   24280    342.73523   -7475.9205   -7437.6879    489.71908    27805.001    3.6616096 
   24290    335.57701   -7475.2746   -7437.8404     463.5408    27799.065    3.6816864 
   24300    327.43301   -7474.4929   -7437.9672    612.03748    27795.896    3.7007278 
   24310    327.41819   -7474.5835   -7438.0595    647.85687    27796.179    3.7167789 
   24320    340.20942   -7476.0823   -7438.1314    494.30017    27800.092    3.7274336 
   24330    345.10805   -7476.7019   -7438.2046    368.58129    27806.878    3.7331515 
   24340    346.95886   -7476.9967   -7438.2929    309.49632    27815.837    3.7363573 
   24350    353.36668    -7477.823   -7438.4045     195.0973    27826.551    3.7397112 
   24360    355.99005   -7478.2613     -7438.55     100.9517    27838.424    3.7447989 
   24370    350.22253      -7477.8   -7438.7322    74.724301    27850.942    3.7514418 
   24380    338.20737   -7476.6575     -7438.93    72.284471    27863.926    3.7577283 
   24390    335.44228   -7476.5428   -7439.1237   -69.849851    27877.279    3.7609927 
   24400    334.17599    -7476.584   -7439.3061   -209.74314     27890.26    3.7603742 
   24410    326.32685   -7475.8735   -7439.4712   -221.68913    27902.123    3.7566426 
   24420    325.84022   -7475.9576   -7439.6097   -348.49254    27912.666    3.7507244 
   24430    336.81656   -7477.3017   -7439.7294   -542.64728    27921.176    3.7437335 
   24440    340.05968    -7477.781   -7439.8468   -542.62384    27926.654     3.736807 
   24450    337.06168   -7477.5663   -7439.9666   -379.08775    27929.072    3.7292434 
   24460    337.85617    -7477.774   -7440.0857   -273.91805    27929.248    3.7194334 
   24470     336.2447   -7477.7116    -7440.203   -248.39193    27927.797    3.7070667 
   24480    332.97461   -7477.4604   -7440.3166    -235.7705    27924.909    3.6929941 
   24490    334.10417   -7477.6915   -7440.4216   -242.98802    27920.644    3.6780299 
   24500    337.93063   -7478.2171   -7440.5204   -111.27442    27915.058    3.6624005 
   24510    335.60557   -7478.0521   -7440.6148     -1.06269    27908.804    3.6452867 
   24520    334.53995   -7478.0222   -7440.7038   -52.572125    27902.463    3.6249176 
   24530    339.01446   -7478.6075     -7440.79   -155.21786    27895.795    3.6009704 
   24540    339.62215   -7478.7649   -7440.8795   -246.58513    27888.243    3.5757441 
   24550    333.13031   -7478.1324   -7440.9712   -306.85575    27879.275     3.551883 
   24560    324.74806   -7477.2763   -7441.0502   -285.79277    27868.584    3.5300251 
   24570    321.33139   -7476.9488   -7441.1038   -306.19103    27856.232    3.5092051 
   24580    318.89543   -7476.6986   -7441.1253   -261.23046    27842.176    3.4891649 
   24590    317.34222   -7476.5072   -7441.1072   -114.19547    27826.728    3.4709154 
   24600    326.30381   -7477.4484   -7441.0487   -89.764114    27810.594     3.456205 
   24610    334.87044   -7478.3131   -7440.9577    -119.9784    27793.972     3.447427 
   24620    333.32208   -7478.0258   -7440.8432   -116.34463    27776.742    3.4447884 
   24630    329.75138   -7477.4831   -7440.6988    24.298599    27758.982    3.4450963 
   24640    334.04087   -7477.7724   -7440.5096    220.84491    27741.447     3.444267 
   24650     348.8832   -7479.1939   -7440.2754     464.5671    27725.278    3.4400604 
   24660    351.02566   -7479.1751   -7440.0177    779.20108    27711.866    3.4333457 
   24670    345.00613   -7478.2457   -7439.7597    1047.4217    27702.934    3.4260288 
   24680    343.97159   -7477.8691   -7439.4985    1085.9743    27699.884    3.4199766 
   24690    347.95032   -7478.0454    -7439.231     876.6498    27702.906    3.4164109 
   24700    349.17264   -7477.9153   -7438.9645    558.10377    27710.873    3.4155487 
   24710    350.97718   -7477.8613   -7438.7093    268.23527    27722.045    3.4170813 
   24720    352.95142   -7477.8461   -7438.4739    26.632377    27734.768    3.4213757 
   24730    347.50923   -7477.0332    -7438.268   -97.369681    27747.697    3.4286692 
   24740    335.55986   -7475.5164   -7438.0842   -168.30345    27760.088    3.4373398 
   24750    337.27155   -7475.5242    -7437.901   -431.66274    27771.392    3.4454272 
   24760    345.44402   -7476.2437   -7437.7089   -729.59544    27780.204    3.4538573 
   24770    345.51891   -7476.0696   -7437.5264   -975.90993    27784.855     3.464144 
   24780     339.5687   -7475.2444    -7437.365   -1249.3961    27783.868    3.4760199 
   24790     335.0208   -7474.5913   -7437.2192   -1457.6835    27775.731    3.4889146 
   24800    338.32595   -7474.8235   -7437.0828    -1542.728    27759.307    3.5031752 
   24810    340.76894     -7474.97   -7436.9567   -1461.0819    27734.153    3.5199577 
   24820    337.74132    -7474.519   -7436.8434   -1203.1719    27700.767    3.5403124 
   24830    335.06551   -7474.1082   -7436.7312   -786.72463     27660.69    3.5642348 
   24840    337.50761   -7474.2569   -7436.6074    -353.4231    27616.294    3.5903696 
   24850    342.23289   -7474.6487   -7436.4721   -20.910058    27570.037    3.6175504 
   24860     348.5893   -7475.2242   -7436.3386    284.83952    27523.902    3.6469816 
   24870    354.65293   -7475.7822   -7436.2202    636.46846     27479.68     3.680261 
   24880    361.50942   -7476.4599   -7436.1329    1020.1173    27439.349    3.7163131 
   24890    367.38372   -7477.0777   -7436.0954    1332.2417    27404.978    3.7514438 
   24900    368.20447   -7477.2009   -7436.1271    1593.3582     27378.29    3.7820861 
   24910     365.0768   -7476.9635   -7436.2386    1763.3124    27360.627    3.8075397 
   24920    358.10072   -7476.3737    -7436.427    1755.1362    27352.805    3.8297451 
   24930    346.20573   -7475.2902   -7436.6704    1626.8029    27354.736    3.8508384 
   24940    341.42263   -7475.0278   -7436.9416    1489.2655    27365.704    3.8705182 
   24950    343.69025   -7475.5709   -7437.2317    1364.0478    27384.867    3.8867324 
   24960    335.28041   -7474.9284   -7437.5273    1238.2821      27411.5    3.8974002 
   24970    326.31095   -7474.1955   -7437.7951    934.94478    27444.783    3.9012369 
   24980    330.34488   -7474.8637   -7438.0132    557.23295    27483.049     3.899735 
   24990    337.17295   -7475.7967   -7438.1845    265.75082    27524.221    3.8970718 
   25000    337.22817   -7475.9375   -7438.3192    116.61679    27566.668    3.8967059 
Loop time of 16866.2 on 16 procs for 20000 steps with 864 atoms

Performance: 0.102 ns/day, 234.253 hours/ns, 1.186 timesteps/s
97.7% CPU use with 16 MPI tasks x 1 OpenMP threads

MPI task timing breakdown:
Section |  min time  |  avg time  |  max time  |%varavg| %total
---------------------------------------------------------------
Pair    | 13053      | 15593      | 16643      | 824.0 | 92.45
Bond    | 0.0021615  | 0.007654   | 0.020808   |   4.9 |  0.00
Neigh   | 0.30649    | 0.35131    | 0.36777    |   2.8 |  0.00
Comm    | 178.59     | 1034.1     | 3684.7     |3187.9 |  6.13
Output  | 2.891      | 2.9517     | 3.842      |  13.4 |  0.02
Modify  | 35.23      | 235.62     | 722.61     |1692.2 |  1.40
Other   |            | 0.2926     |            |       |  0.00

Nlocal:        54.0000 ave          61 max          46 min
Histogram: 2 1 2 0 2 1 2 1 2 3
Nghost:        417.750 ave         448 max         384 min
Histogram: 1 3 0 1 3 1 1 3 1 2
Neighs:         0.00000 ave           0 max           0 min
Histogram: 16 0 0 0 0 0 0 0 0 0
FullNghs:      1685.75 ave        1962 max        1231 min
Histogram: 1 1 1 1 1 0 4 2 2 3

Total # of neighbors = 26972
Ave neighs/atom = 31.217593
Ave special neighs/atom = 0.0000000
Neighbor list builds = 2000
Dangerous builds = 2000
unfix   3
                
Total wall time: 5:50:28
