LAMMPS (2 Aug 2023)
OMP_NUM_THREADS environment is not set. Defaulting to 1 thread. (src/comm.cpp:98)
  using 1 OpenMP thread(s) per MPI task
Reading restart file ...
  restart file = 2 Aug 2023, LAMMPS = 2 Aug 2023
  restoring atom style full from restart
  orthogonal box = (-0.33623157 -0.341427 -13.879934) to (25.471202 25.476397 89.284846)
  1 by 1 by 1 MPI processor grid
  pair style chgnet/gpu stores no restart info
  1536 atoms
Finding 1-2 1-3 1-4 neighbors ...
  special bond factors lj:    0        0        0       
  special bond factors coul:  0        0        0       
     0 = max # of 1-2 neighbors
     0 = max # of 1-3 neighbors
     0 = max # of 1-4 neighbors
     1 = max # of special neighbors
  special bonds CPU = 0.000 seconds
  read_restart CPU = 0.003 seconds
Resetting peratom fix info from restart file:
  fix style: STORE/ATOM, fix ID: msd_COMPUTE_STORE
All restart file peratom fix info was re-assigned
Neighbor list info ...
  update: every = 1 steps, delay = 10 steps, check = yes
  max neighbors/atom: 2000, page size: 100000
  master list distance cutoff = 6.3
  ghost atom cutoff = 6.3
  binsize = 3.15, bins = 9 9 33
  1 neighbor lists, perpetual/occasional/extra = 1 0 0
  (1) pair chgnet/gpu, perpetual
      attributes: full, newton on
      pair build: full/bin
      stencil: full/bin/3d
      bin: standard
Setting up Verlet run ...
  Unit style    : metal
  Current step  : 20000
  Time step     : 0.001
Per MPI rank memory allocation (min/avg/max) = 6.512 | 6.512 | 6.512 Mbytes
   Step          Temp          PotEng         TotEng         Press          Volume        c_msd[4]   
     20000   1480.9672     -5265.4834     -4971.6383      1074.1725      68737.846      80.319031    
     20010   1474.549      -5264.1727     -4971.6011      1165.4878      68739.028      80.428916    
     20020   1471.0288     -5263.3586     -4971.4855      1238.9018      68742.748      80.559208    
     20030   1460.2163     -5260.9878     -4971.26        1216.9188      68749.016      80.706526    
     20040   1460.9926     -5260.7831     -4970.9012      1037.0259      68757.407      80.864126    
     20050   1471.4055     -5262.3431     -4970.3952      752.37314      68767.188      81.024386    
     20060   1475.147      -5262.4475     -4969.7572      466.16554      68777.598      81.181721    
     20070   1486.1399     -5263.8768     -4969.0054      138.73871      68787.918      81.332206    
     20080   1496.2186     -5265.0297     -4968.1585     -104.04039      68797.544      81.473494    
     20090   1501.6262     -5265.1952     -4967.2511     -168.75991      68806.328      81.607069    
     20100   1497.9464     -5263.5209     -4966.3068     -5.7425838      68814.532      81.737478    
     20110   1481.9057     -5259.3446     -4965.3133      313.71244      68822.544      81.869447    
     20120   1470.8669     -5256.0648     -4964.2238      595.56753      68830.685      82.00604     
     20130   1478.9715     -5256.4541     -4963.005       663.23395      68839.021      82.148456    
     20140   1500.117      -5259.3094     -4961.6648      665.5889       68847.34       82.29624     
     20150   1516.5462     -5261.1973     -4960.2928      668.75514      68855.586      82.448776    
     20160   1525.2938     -5261.6158     -4958.9757      666.95574      68864.054      82.606315    
     20170   1536.1976     -5262.5845     -4957.7809      612.21042      68873.083      82.770459    
     20180   1542.2706     -5262.7701     -4956.7616      545.10623      68882.797      82.943745    
     20190   1549.2087     -5263.34       -4955.9548      528.46213      68893.182      83.127137    
     20200   1552.7743     -5263.4795     -4955.3868      582.07319      68904.166      83.318571    
     20210   1536.8644     -5259.9807     -4955.0448      795.26146      68915.809      83.514707    
     20220   1528.3117     -5258.1229     -4954.884       988.84773      68928.374      83.712709    
     20230   1536.2049     -5259.6676     -4954.8626      1089.2271      68942.087      83.912327    
     20240   1545.6319     -5261.6755     -4955           1200.3471      68957.119      84.115445    
     20250   1535.3726     -5259.9507     -4955.3108      1468.1043      68973.742      84.325011    
     20260   1514.0179     -5256.1465     -4955.7437      1795.075       68992.458      84.545175    
     20270   1503.0861     -5254.4648     -4956.231       1951.015       69013.794      84.779791    
     20280   1514.4252     -5257.2107     -4956.727       1815.9134      69038.043      85.032337    
     20290   1535.8115     -5261.9971     -4957.2701      1546.1284      69065.039      85.303943    
     20300   1540.2568     -5263.5212     -4957.9122      1422.9064      69094.493      85.594159    
     20310   1516.2524     -5259.4812     -4958.635       1578.9478      69126.455      85.903624    
     20320   1483.2736     -5253.6244     -4959.3217      1779.5052      69161.309      86.233254    
     20330   1485.7266     -5254.6838     -4959.8944      1695.7012      69199.32       86.581324    
     20340   1506.9539     -5259.3651     -4960.3639      1446.0101      69240.255      86.945814    
     20350   1511.9877     -5260.7812     -4960.7812      1344.9952      69283.604      87.325946    
     20360   1514.2388     -5261.6356     -4961.1889      1241.653       69329.011      87.720206    
     20370   1517.2747     -5262.6288     -4961.5798      1142.5665      69376.189      88.126524    
     20380   1529.7529     -5265.5222     -4961.9973      974.61455      69424.912      88.544691    
     20390   1526.7571     -5265.3962     -4962.4658      875.60062      69475.072      88.976981    
     20400   1506.9138     -5261.9667     -4962.9734      909.48817      69526.759      89.426664    
     20410   1497.9324     -5260.6923     -4963.481       878.98164      69580.243      89.896692    
     20420   1493.2501     -5260.248      -4963.9658      759.33758      69635.685      90.387583    
     20430   1488.5443     -5259.7661     -4964.4176      633.80798      69693.172      90.897586    
     20440   1485.0322     -5259.4889     -4964.8372      499.92011      69752.453      91.421458    
     20450   1475.6845     -5258.0061     -4965.2092      514.72967      69813.02       91.952593    
     20460   1462.5442     -5255.7067     -4965.5169      617.55769      69874.455      92.486916    
     20470   1461.0697     -5255.6213     -4965.7242      661.67568      69936.47       93.023443    
     20480   1476.237      -5258.7532     -4965.8466      560.18119      69998.735      93.561508    
     20490   1480.3828     -5259.6603     -4965.9311      625.39298      70060.956      94.099598    
     20500   1464.903      -5256.6537     -4965.996       879.50817      70123.304      94.639903    
     20510   1461.4246     -5255.9766     -4966.009       1029.1157      70186.182      95.185569    
     20520   1475.4391     -5258.7004     -4965.9522      1037.071       70249.723      95.736357    
     20530   1480.8863     -5259.683      -4965.8539      1007.0683      70313.828      96.290115    
     20540   1469.5866     -5257.3228     -4965.7357      1084.1628      70378.439      96.844795    
     20550   1459.7715     -5255.205      -4965.5654      1097.1321      70443.625      97.39794     
     20560   1478.8243     -5258.7341     -4965.3142      840.08984      70509.315      97.946966    
     20570   1502.9514     -5263.2246     -4965.0175      471.46671      70575.147      98.491844    
     20580   1503.437      -5263.0602     -4964.7567      422.01807      70640.857      99.036135    
     20590   1488.0424     -5259.8064     -4964.5575      586.2175       70706.517      99.584818    
     20600   1482.7186     -5258.5675     -4964.3749      739.77567      70772.244      100.14089    
     20610   1499.6617     -5261.7429     -4964.1886      645.39312      70838.039      100.70506    
     20620   1515.2716     -5264.681      -4964.0294      484.10798      70903.572      101.27588    
     20630   1517.7231     -5265.0948     -4963.9568      337.80685      70968.261      101.84937    
     20640   1510.9273     -5263.7966     -4964.007       245.50725      71031.588      102.42093    
     20650   1492.128      -5260.2367     -4964.1771      266.27413      71093.347      102.9877     
     20660   1466.4424     -5255.3793     -4964.4161      303.50762      71153.742      103.54931    
     20670   1443.5131     -5251.0525     -4964.6388      345.20826      71213.062      104.10652    
     20680   1431.5969     -5248.8105     -4964.7612      235.635        71271.478      104.66156    
     20690   1442.2407     -5250.8906     -4964.7294     -15.419255      71328.836      105.21413    
     20700   1456.7914     -5253.5914     -4964.5431     -244.47526      71384.57       105.75909    
     20710   1449.3121     -5251.7897     -4964.2254     -218.31509      71438.137      106.29046    
     20720   1424.52       -5246.4104     -4963.7652      65.781708      71489.523      106.80685    
     20730   1401.1351     -5241.0806     -4963.0753      401.78084      71539.386      107.31399    
     20740   1398.6058     -5239.5553     -4962.0519      516.76523      71588.482      107.81876    
     20750   1416.569      -5241.7126     -4960.6451      447.96703      71637.24       108.32473    
     20760   1440.0617     -5244.6394     -4958.9105      299.17941      71685.962      108.83478    
     20770   1463.866      -5247.4406     -4956.9886      141.54645      71734.91       109.35136    
     20780   1479.9441     -5248.7051     -4955.063       88.94285       71784.062      109.87416    
     20790   1481.1234     -5247.1688     -4953.2927      228.7657       71833.228      110.40122    
     20800   1468.4532     -5243.1053     -4951.7432      479.44695      71882.186      110.93052    
     20810   1451.5563     -5238.4116     -4950.4021      720.92008      71930.796      111.4602     
     20820   1455.7306     -5238.0271     -4949.1893      720.59603      71978.984      111.98936    
     20830   1471.6949     -5240.0834     -4948.078       551.38179      72026.428      112.51714    
     20840   1470.7856     -5238.9122     -4947.0873      571.70612      72072.556      113.03987    
     20850   1473.9215     -5238.661      -4946.2139      668.19761      72117.167      113.55266    
     20860   1488.2959     -5240.7327     -4945.4334      569.38242      72160.29       114.05312    
     20870   1491.1477     -5240.6415     -4944.7764      627.16965      72201.976      114.54491    
     20880   1492.5343     -5240.3793     -4944.2391      752.78671      72242.578      115.03161    
     20890   1494.9402     -5240.4302     -4943.8126      787.06307      72282.524      115.51512    
     20900   1495.3926     -5240.1852     -4943.4779      841.21445      72322.064      115.99527    
     20910   1493.3721     -5239.545      -4943.2386      836.82673      72361.396      116.47069    
     20920   1503.9255     -5241.4885     -4943.0882      671.56312      72400.693      116.9403     
     20930   1513.535      -5243.3624     -4943.0554      502.94091      72440.047      117.404      
     20940   1511.2232     -5243.005      -4943.1567      428.53722      72479.34       117.86044    
     20950   1513.5418     -5243.7111     -4943.4027      326.17389      72518.364      118.30784    
     20960   1511.4007     -5243.6851     -4943.8015      208.55927      72556.919      118.74796    
     20970   1494.1168     -5240.7986     -4944.3444      178.99381      72595.05       119.18688    
     20980   1480.3294     -5238.6991     -4944.9805      104.78958      72633.073      119.6315     
     20990   1483.5284     -5240.0317     -4945.6784     -109.68132      72671.241      120.08488    
     21000   1493.2508     -5242.7179     -4946.4356     -361.25267      72709.282      120.54189    
     21010   1496.4307     -5244.2051     -4947.2918     -448.07125      72746.617      120.99427    
     21020   1497.7625     -5245.4312     -4948.2536     -520.12601      72782.984      121.43874    
     21030   1508.4254     -5248.6458     -4949.3526     -590.01829      72818.265      121.87465    
     21040   1495.687      -5247.3442     -4950.5785     -439.79604      72852.376      122.30208    
     21050   1470.1874     -5243.5682     -4951.862      -251.73855      72885.479      122.72282    
     21060   1457.1199     -5242.2198     -4953.1064     -188.80834      72917.709      123.13902    
     21070   1455.1176     -5242.9603     -4954.2442     -271.04305      72949.038      123.55227    
     21080   1464.8634     -5245.9307     -4955.2808     -478.47792      72979.267      123.96009    
     21090   1475.9134     -5249.0717     -4956.2293     -683.28115      73008.024      124.35668    
     21100   1476.4618     -5250.082      -4957.1309     -817.21937      73034.916      124.73837    
     21110   1462.3916     -5248.1276     -4957.9681     -807.8586       73059.504      125.10232    
     21120   1454.6757     -5247.3329     -4958.7044     -788.7314       73081.639      125.4454     
     21130   1462.4398     -5249.5104     -4959.3414     -869.42597      73101.579      125.76658    
     21140   1465.9957     -5250.7811     -4959.9066     -917.99965      73119.727      126.07014    
     21150   1453.6725     -5248.8365     -4960.4071     -840.73828      73136.51       126.36086    
     21160   1442.8016     -5247.0897     -4960.8172     -715.84796      73152.369      126.64148    
     21170   1447.3678     -5248.3041     -4961.1256     -667.06869      73167.681      126.91435    
     21180   1453.8009     -5249.8015     -4961.3466     -640.18536      73182.659      127.18175    
     21190   1455.1668     -5250.2344     -4961.5084     -628.02472      73197.254      127.44492    
     21200   1451.3989     -5249.6001     -4961.6218     -609.36221      73211.259      127.70449    
     21210   1444.3981     -5248.2737     -4961.6844     -610.79344      73224.583      127.96179    
     21220   1435.9568     -5246.5909     -4961.6766     -664.54786      73237.287      128.21868    
     21230   1437.2775     -5246.7587     -4961.5822     -822.8421       73249.383      128.47505    
     21240   1447.5197     -5248.6183     -4961.4096     -1022.97        73260.776      128.72857    
     21250   1447.6127     -5248.4191     -4961.192      -1187.2218      73271.346      128.97522    
     21260   1431.0658     -5244.8793     -4960.9353     -1099.2001      73281.142      129.21138    
     21270   1403.2554     -5239.0049     -4960.5789     -896.44096      73290.348      129.43546    
     21280   1392.9969     -5236.4506     -4960.06       -781.36802      73299.134      129.6471     
     21290   1401.4661     -5237.4115     -4959.3405     -790.75452      73307.501      129.84561    
     21300   1416.0292     -5239.4132     -4958.4527     -876.87805      73315.413      130.03205    
     21310   1430.1895     -5241.2216     -4957.4515     -896.54689      73322.807      130.2094     
     21320   1446.871      -5243.4869     -4956.407      -858.47484      73329.694      130.38214    
     21330   1463.6889     -5245.8109     -4955.3941     -772.2532       73336.044      130.55322    
     21340   1470.8278     -5246.3108     -4954.4775     -578.43181      73341.798      130.72154    
     21350   1479.059      -5247.1743     -4953.7078     -459.91401      73346.999      130.88387    
     21360   1492.3147     -5249.2024     -4953.1058     -484.49305      73351.579      131.03698    
     21370   1491.5386     -5248.63       -4952.6874     -374.37437      73355.332      131.1787     
     21380   1480.5027     -5246.1859     -4952.433      -311.90259      73358.364      131.3103     
     21390   1486.9861     -5247.3446     -4952.3053     -409.87434      73360.995      131.43597    
     21400   1489.8614     -5247.9005     -4952.2907     -561.46215      73363.219      131.5595     
     21410   1477.4774     -5245.5231     -4952.3704     -601.7035       73364.678      131.68188    
     21420   1466.9151     -5243.5646     -4952.5076     -619.19897      73365.093      131.80226    
     21430   1466.5263     -5243.6448     -4952.6649     -766.86733      73364.421      131.91992    
     21440   1465.59       -5243.6199     -4952.8258     -893.71909      73362.775      132.03511    
     21450   1467.7027     -5244.2183     -4953.005      -922.02377      73360.333      132.14785    
     21460   1477.8035     -5246.4174     -4953.2        -987.53096      73357.302      132.25875    
     21470   1472.9669     -5245.7054     -4953.4477     -936.7106       73353.677      132.36636    
     21480   1446.3723     -5240.6942     -4953.7132     -747.75324      73349.634      132.47038    
     21490   1428.1565     -5237.3002     -4953.9335     -698.05117      73345.719      132.57443    
     21500   1425.6571     -5236.9178     -4954.0471     -814.50785      73342.213      132.68146    
     21510   1426.8976     -5237.1819     -4954.065      -959.25669      73338.678      132.78837    
     21520   1416.741      -5235.0758     -4953.9741     -950.41814      73334.525      132.88918    
     21530   1416.1341     -5234.7524     -4953.7712     -956.99998      73329.637      132.98101    
     21540   1425.5011     -5236.2935     -4953.4536     -937.11362      73324.188      133.06322    
     21550   1423.2347     -5235.4362     -4953.046      -815.33231      73318.453      133.13732    
     21560   1408.7871     -5232.0557     -4952.5321     -589.24349      73312.708      133.2058     
     21570   1403.3894     -5230.3444     -4951.8918     -364.07033      73307.213      133.27063    
     21580   1409.2066     -5230.6981     -4951.0913     -204.99848      73302.28       133.33622    
     21590   1422.2911     -5232.3582     -4950.1552     -51.915861      73298.446      133.41096    
     21600   1435.2974     -5233.9113     -4949.1277      97.572542      73296.349      133.50387    
     21610   1452.5534     -5236.2821     -4948.0747      221.6049       73296.452      133.62084    
     21620   1465.2665     -5237.7847     -4947.0548      398.88276      73298.809      133.76229    
     21630   1470.5017     -5237.9062     -4946.1376      532.97386      73303.334      133.92555    
     21640   1481.8138     -5239.3674     -4945.3543      531.50013      73309.901      134.10693    
     21650   1469.5291     -5236.2982     -4944.7226      652.1543       73318.162      134.30115    
     21660   1457.7951     -5233.467      -4944.2196      626.56565      73327.973      134.50459    
     21670   1470.8646     -5235.6354     -4943.7948      353.73534      73339.031      134.71308    
     21680   1496.2409     -5240.3525     -4943.4769     -71.921945      73350.8        134.92316    
     21690   1514.6968     -5243.8799     -4943.3423     -399.84719      73362.838      135.1357     
     21700   1510.8347     -5243.2123     -4943.441      -488.33464      73374.912      135.35365    
     21710   1490.5373     -5239.4733     -4943.7293     -424.01921      73387.144      135.58116    
     21720   1480.4254     -5237.8843     -4944.1467     -406.03638      73399.933      135.82178    
     21730   1475.0655     -5237.2972     -4944.6231     -516.07969      73413.614      136.07508    
     21740   1475.7795     -5237.9608     -4945.145      -612.49837      73428.136      136.33528    
     21750   1470.0367     -5237.3745     -4945.6982     -592.20835      73443.266      136.59692    
     21760   1445.0165     -5232.9565     -4946.2446     -360.74849      73459.195      136.86147    
     21770   1430.8718     -5230.6198     -4946.7143     -174.87016      73476.553      137.1351     
     21780   1439.8523     -5232.7705     -4947.0832     -181.37358      73495.577      137.42184    
     21790   1453.0724     -5235.6932     -4947.3829     -311.93648      73515.949      137.72237    
     21800   1458.8054     -5237.1053     -4947.6575     -385.12322      73537.199      138.03567    
     21810   1464.0002     -5238.4193     -4947.9407     -499.28884      73559.094      138.36082    
     21820   1457.6246     -5237.4573     -4948.2437     -502.76183      73581.533      138.69577    
     21830   1430.7533     -5232.4113     -4948.5293     -356.51078      73604.586      139.03766    
     21840   1408.4261     -5228.1881     -4948.7362     -231.46915      73628.415      139.38368    
     21850   1404.8439     -5227.5425     -4948.8013     -246.69152      73653.002      139.73145    
     21860   1416.6626     -5229.8199     -4948.7338     -405.87987      73678.01       140.07813    
     21870   1428.2314     -5231.9597     -4948.5781     -534.83592      73702.884      140.42009    
     21880   1428.8003     -5231.8707     -4948.3763     -491.1023       73727.307      140.75513    
     21890   1421.2437     -5230.1404     -4948.1453     -384.47674      73751.421      141.0836     
     21900   1423.2416     -5230.2594     -4947.8679     -358.59524      73775.591      141.40874    
     21910   1434.1261     -5232.1025     -4947.5514     -440.65345      73800.153      141.73666    
     21920   1438.2853     -5232.5966     -4947.2201     -485.19827      73825.274      142.07172    
     21930   1434.4918     -5231.5162     -4946.8925     -464.36165      73851.166      142.4151     
     21940   1431.1491     -5230.522      -4946.5615     -450.56044      73878.161      142.7666     
     21950   1435.543      -5231.0468     -4946.2145     -426.31121      73906.388      143.12455    
     21960   1439.3608     -5231.4507     -4945.8609     -457.7048       73935.674      143.48609    
     21970   1432.843      -5229.8013     -4945.5047     -400.31157      73965.678      143.84852    
     21980   1417.5661     -5226.3933     -4945.1279     -240.51756      73996.193      144.2122     
     21990   1409.7924     -5224.4081     -4944.6851     -149.17168      74027.003      144.57864    
     22000   1421.2245     -5226.1373     -4944.146      -217.41141      74057.605      144.94557    
     22010   1444.1917     -5230.0924     -4943.5441     -420.83942      74087.278      145.30765    
     22020   1465.1285     -5233.649      -4942.9466     -653.93785      74115.456      145.65982    
     22030   1485.2516     -5237.1365     -4942.4413     -885.59748      74141.799      145.99928    
     22040   1498.134      -5239.3491     -4942.0979     -1050.1085      74166.113      146.32804    
     22050   1494.5374     -5238.5013     -4941.9637     -1026.5853      74188.428      146.65195    
     22060   1473.5722     -5234.4122     -4942.0344     -881.05239      74209.09       146.97689    
     22070   1453.7144     -5230.6805     -4942.2428     -762.53329      74228.694      147.3074     
     22080   1442.7605     -5228.7836     -4942.5192     -778.00809      74247.94       147.64584    
     22090   1446.7324     -5229.8932     -4942.8408     -912.03411      74267.2        147.99019    
     22100   1457.6666     -5232.4453     -4943.2234     -1095.58        74286.463      148.33546    
     22110   1460.4996     -5233.4985     -4943.7145     -1148.4921      74305.544      148.67615    
     22120   1459.3314     -5233.9164     -4944.3641     -1068.5135      74324.397      149.00864    
     22130   1458.6737     -5234.6272     -4945.2054     -983.37477      74343.188      149.33172    
     22140   1458.8838     -5235.7449     -4946.2814     -976.91366      74362.026      149.6428     
     22150   1463.9737     -5238.1384     -4947.6651     -1090.9859      74380.665      149.93669    
     22160   1470.8941     -5241.2783     -4949.4319     -1266.3243      74398.504      150.20901    
     22170   1469.8349     -5243.2482     -4951.6119     -1490.5328      74414.88       150.45696    
     22180   1460.4403     -5243.8729     -4954.1007     -1593.2198      74429.33       150.67907    
     22190   1441.1657     -5242.5674     -4956.6195     -1573.089       74441.748      150.87826    
     22200   1423.7549     -5241.3409     -4958.8476     -1588.5919      74452.22       151.06014    
     22210   1412.4649     -5240.8473     -4960.594      -1628.1622      74460.77       151.22672    
     22220   1406.5717     -5240.9363     -4961.8523     -1699.1994      74467.435      151.37685    
     22230   1396.1984     -5239.7267     -4962.7009     -1709.8356      74472.223      151.50942    
     22240   1378.8215     -5236.8065     -4963.2286     -1714.9022      74475.085      151.62405    
     22250   1360.5532     -5233.4308     -4963.4775     -1608.2746      74475.977      151.72021    
     22260   1349.4146     -5231.2101     -4963.4669     -1489.5034      74475.005      151.79882    
     22270   1358.5876     -5232.7742     -4963.2109     -1484.6158      74472.255      151.86203    
     22280   1376.3973     -5235.8533     -4962.7563     -1522.1012      74467.529      151.9113     
     22290   1382.282      -5236.4139     -4962.1494     -1449.0382      74460.539      151.94748    
     22300   1375.6123     -5234.3522     -4961.411      -1246.4911      74451.34       151.97138    
     22310   1383.1403     -5234.9696     -4960.5348     -1113.6536      74440.43       151.98427    
     22320   1409.2916     -5239.1609     -4959.5372     -1137.2655      74428.449      151.98893    
     22330   1430.5748     -5242.3257     -4958.4791     -1214.151       74415.899      151.98879    
     22340   1441.6416     -5243.499      -4957.4567     -1223.0983      74403.149      151.98734    
     22350   1439.966      -5242.2253     -4956.5155     -1115.9514      74390.315      151.98684    
     22360   1439.2185     -5241.2164     -4955.6549     -1030.0387      74377.401      151.98857    
     22370   1448.8827     -5242.3477     -4954.8686     -985.42318      74364.488      151.99329    
     22380   1452.2335     -5242.311      -4954.1671     -925.33033      74351.811      152.00275    
     22390   1451.1158     -5241.4882     -4953.566      -885.83839      74339.435      152.01467    
     22400   1454.7521     -5241.7075     -4953.0639     -925.09941      74327.154      152.02238    
     22410   1450.4037     -5240.4393     -4952.6585     -908.53819      74314.756      152.02346    
     22420   1426.6404     -5235.3948     -4952.3289     -738.67473      74302.277      152.02221    
     22430   1407.1224     -5231.202      -4952.0088     -627.31961      74290.038      152.02284    
     22440   1405.3125     -5230.4637     -4951.6296     -696.13478      74278.208      152.0246     
     22450   1404.2023     -5229.7866     -4951.1728     -842.9991       74266.54       152.02296    
     22460   1389.6255     -5226.3417     -4950.6201     -906.68714      74254.608      152.01223    
     22470   1391.5618     -5226.0579     -4949.9521     -1043.2307      74242.069      151.98986    
     22480   1403.7573     -5227.6703     -4949.1447     -1204.6832      74228.587      151.95733    
     22490   1418.1582     -5229.6229     -4948.24       -1252.6482      74213.969      151.91742    
     22500   1430.4876     -5231.1189     -4947.2897     -1278.7061      74198.274      151.87296    
     22510   1439.9553     -5232.056      -4946.3483     -1129.8385      74181.593      151.82604    
     22520   1439.2674     -5231.0259     -4945.4546     -847.71561      74164.32       151.78221    
     22530   1434.5619     -5229.2509     -4944.6132     -529.27318      74147.145      151.748      
     22540   1451.3233     -5231.7902     -4943.8268     -484.07938      74130.596      151.72737    
     22550   1478.4795     -5236.4897     -4943.1382     -605.56056      74114.609      151.72041    
     22560   1491.2117     -5238.5189     -4942.6412     -669.65215      74098.859      151.72445    
     22570   1481.5326     -5236.344      -4942.3867     -537.25844      74083.162      151.73477    
     22580   1453.8196     -5230.797      -4942.3384     -241.65558      74067.774      151.74775    
     22590   1428.078      -5225.7477     -4942.3965      9.6102517      74053.306      151.76132    
     22600   1436.2063     -5227.4542     -4942.4903     -0.74073308     74040.337      151.77433    
     22610   1468.1817     -5233.9647     -4942.6564     -272.29935      74028.89       151.78699    
     22620   1487.1602     -5238.0729     -4942.999      -440.53254      74018.329      151.79948    
     22630   1488.7946     -5239.0089     -4943.6107     -405.26072      74007.96       151.81211    
     22640   1487.9817     -5239.7611     -4944.5242     -427.20789      73997.586      151.82897    
     22650   1492.6993     -5241.9346     -4945.7616     -497.73851      73987.413      151.85552    
     22660   1492.1655     -5243.4174     -4947.3504     -539.20064      73977.639      151.89285    
     22670   1481.2688     -5243.1511     -4949.2462     -532.49654      73968.255      151.93789    
     22680   1468.6321     -5242.7043     -4951.3067     -548.16936      73959.167      151.98742    
     22690   1467.8853     -5244.6163     -4953.3669     -719.18001      73950.272      152.04106    
     22700   1466.266      -5246.2145     -4955.2863     -841.69887      73941.121      152.09814    
     22710   1452.5437     -5245.1451     -4956.9397     -888.47468      73931.22       152.15641    
     22720   1437.3451     -5243.4642     -4958.2744     -950.07098      73920.313      152.212      
     22730   1434.9412     -5244.0315     -4959.3186     -1124.5734      73908.329      152.25952    
     22740   1436.8721     -5245.2609     -4960.1649     -1335.0198      73895.091      152.29282    
     22750   1430.3571     -5244.6925     -4960.8892     -1519.5375      73880.322      152.30702    
     22760   1414.8777     -5242.2528     -4961.5208     -1531.7484      73863.807      152.2993     
     22770   1403.2626     -5240.4803     -4962.0529     -1560.6677      73845.576      152.26919    
     22780   1405.6338     -5241.3918     -4962.494      -1604.3548      73825.676      152.21974    
     22790   1410.1246     -5242.656      -4962.8671     -1572.6983      73804.168      152.15734    
     22800   1407.4825     -5242.459      -4963.1943     -1390.0564      73781.271      152.088      
     22810   1398.8853     -5241.0341     -4963.4752     -1193.4543      73757.431      152.01611    
     22820   1389.2942     -5239.3488     -4963.6929     -1039.3876      73732.998      151.94265    
     22830   1380.46       -5237.7166     -4963.8135     -898.07442      73708.186      151.86779    
     22840   1385.5921     -5238.7397     -4963.8184     -928.7929       73683.157      151.79207    
     22850   1408.0504     -5243.113      -4963.7357     -1072.8967      73657.782      151.71402    
     22860   1422.4709     -5245.8666     -4963.628      -1194.4763      73631.599      151.63034    
     22870   1421.4123     -5245.5688     -4963.5403     -1227.1134      73604.288      151.53855    
     22880   1413.3012     -5243.8934     -4963.4742     -1188.8686      73575.911      151.43936    
     22890   1409.8843     -5243.1478     -4963.4066     -1183.4227      73546.766      151.33798    
     22900   1405.965      -5242.2828     -4963.3192     -1155.4769      73517.174      151.24074    
     22910   1397.7285     -5240.5276     -4963.1982     -1009.476       73487.507      151.15151    
     22920   1394.3067     -5239.6641     -4963.0136     -950.82883      73458.238      151.07044    
     22930   1395.3052     -5239.6121     -4962.7635     -844.80609      73429.543      150.99319    
     22940   1385.5396     -5237.3492     -4962.4383     -624.42443      73401.275      150.9141     
     22950   1371.3271     -5234.0951     -4962.0042     -320.04697      73373.26       150.8279     
     22960   1375.2868     -5234.298      -4961.4214     -223.21154      73345.601      150.73353    
     22970   1390.8578     -5236.6469     -4960.6807     -306.47587      73318.303      150.63416    
     22980   1409.2633     -5239.4502     -4959.8322     -414.13394      73290.929      150.53203    
     22990   1425.5325     -5241.7903     -4958.9442     -518.0734       73262.821      150.42739    
     23000   1430.9394     -5241.9954     -4958.0765     -438.29152      73233.591      150.32084    
     23010   1420.976      -5239.2001     -4957.2581     -260.1965       73203.434      150.21322    
     23020   1407.8828     -5235.8141     -4956.47       -88.820286      73172.65       150.10192    
     23030   1414.6163     -5236.366      -4955.6858     -152.04073      73141.125      149.98035    
     23040   1433.7226     -5239.3876     -4954.9165     -358.52373      73108.438      149.84367    
     23050   1442.9226     -5240.5159     -4954.2194     -517.19285      73074.228      149.69222    
     23060   1438.5875     -5239.0693     -4953.633      -477.38285      73038.406      149.52843    
     23070   1427.0028     -5236.2861     -4953.1483     -398.15115      73001.286      149.35734    
     23080   1421.8055     -5234.8301     -4952.7235     -330.24486      72963.295      149.18534    
     23090   1430.7305     -5236.2195     -4952.3421     -326.25725      72924.83       149.01673    
     23100   1449.9141     -5239.712      -4952.0283     -445.19221      72886.218      148.85342    
     23110   1479.8275     -5245.4802     -4951.8613     -598.90835      72847.545      148.69554    
     23120   1498.6676     -5249.3181     -4951.961      -599.647        72808.608      148.53966    
     23130   1493.1446     -5248.675      -4952.4138     -385.72649      72769.193      148.38248    
     23140   1465.4049     -5243.967      -4953.2097      49.686862      72729.525      148.2248     
     23150   1434.6349     -5238.8881     -4954.2359      453.69735      72690.447      148.07081    
     23160   1446.2663     -5242.4088     -4955.4489      375.52671      72652.983      147.92398    
     23170   1482.7262     -5251.1177     -4956.9236     -10.503051      72617.33       147.78579    
     23180   1488.0136     -5253.9921     -4958.7489     -161.37039      72582.928      147.6553     
     23190   1460.9476     -5250.6786     -4960.8057     -109.06407      72549.323      147.53158    
     23200   1438.9423     -5248.3572     -4962.8504     -112.96129      72516.348      147.41472    
     23210   1438.3116     -5250.0901     -4964.7085     -179.33295      72483.97       147.30352    
     23220   1438.7612     -5251.7736     -4966.3027     -219.03598      72452.262      147.19665    
     23230   1436.0228     -5252.5598     -4967.6323     -172.65349      72421.248      147.09151    
     23240   1436.7833     -5253.8207     -4968.7423     -93.077113      72390.956      146.98594    
     23250   1435.3366     -5254.4927     -4969.7013      78.462187      72361.563      146.88048    
     23260   1417.0059     -5251.7003     -4970.5461      315.55097      72333.469      146.77817    
     23270   1395.1175     -5248.0781     -4971.2668      522.82877      72307.224      146.68486    
     23280   1392.4516     -5248.1415     -4971.8591      514.24712      72283.389      146.607      
     23290   1406.4314     -5251.4209     -4972.3648      285.77688      72262.222      146.54883    
     23300   1417.2259     -5254.0481     -4972.8502      23.940189      72243.415      146.50902    
     23310   1414.9748     -5254.1151     -4973.3639     -154.00649      72226.281      146.48241    
     23320   1408.5528     -5253.382      -4973.9049     -278.98325      72210.096      146.46197    
     23330   1400.9723     -5252.4305     -4974.4576     -348.67782      72194.357      146.44141    
     23340   1394.5804     -5251.7029     -4974.9982     -430.22766      72178.675      146.41557    
     23350   1389.8028     -5251.2766     -4975.5198     -540.75126      72162.606      146.38148    
     23360   1380.4937     -5249.9084     -4975.9987     -636.35694      72145.816      146.33767    
     23370   1373.0876     -5248.8541     -4976.4139     -750.44143      72128.215      146.2827     
     23380   1369.3876     -5248.4487     -4976.7426     -879.10351      72109.887      146.21538    
     23390   1369.6378     -5248.7303     -4976.9746     -1061.3004      72090.928      146.13689    
     23400   1377.8731     -5250.505      -4977.1152     -1163.6594      72071.116      146.04715    
     23410   1393.6953     -5253.7354     -4977.2062     -1210.5161      72050.006      145.94547    
     23420   1401.0863     -5255.2731     -4977.2775     -1136.7043      72027.324      145.83458    
     23430   1414.9443     -5258.1185     -4977.3733     -1077.3209      72003.222      145.71956    
     23440   1421.6786     -5259.6127     -4977.5313     -1009.3477      71978.098      145.6052     
     23450   1420.5607     -5259.6317     -4977.7721     -881.78692      71952.237      145.49425    
     23460   1423.0866     -5260.4784     -4978.1176     -754.48514      71925.898      145.3885     
     23470   1424.3451     -5261.183      -4978.5725     -675.50628      71899.396      145.28975    
     23480   1422.1412     -5261.3335     -4979.1603     -602.16937      71872.854      145.19663    
     23490   1409.048      -5259.4446     -4979.8693     -514.84139      71845.983      145.1027     
     23500   1404.8967     -5259.4098     -4980.6582     -593.29365      71818.364      144.99921    
     23510   1416.3952     -5262.5728     -4981.5397     -778.12755      71789.669      144.88222    
     23520   1414.6189     -5263.2118     -4982.5311     -916.37189      71759.772      144.75457    
     23530   1387.6965     -5258.9293     -4983.5905     -852.82422      71728.691      144.61955    
     23540   1358.3231     -5254.1312     -4984.6205     -801.62378      71696.548      144.47941    
     23550   1344.6321     -5252.3232     -4985.529      -861.92259      71663.323      144.33447    
     23560   1351.3866     -5254.4187     -4986.2842     -1051.2638      71628.808      144.18146    
     23570   1357.8413     -5256.3215     -4986.9064     -1274.2451      71592.808      144.0163     
     23580   1353.5086     -5255.9553     -4987.3998     -1327.114       71555.417      143.83702    
     23590   1350.4871     -5255.714      -4987.758      -1310.5005      71517.041      143.64438    
     23600   1352.4929     -5256.334      -4987.98       -1218.2571      71478.126      143.44048    
     23610   1353.0321     -5256.5222     -4988.0613     -1073.6451      71439.14       143.23013    
     23620   1364.0598     -5258.6569     -4988.0079     -985.41842      71400.513      143.0187     
     23630   1383.3688     -5262.3464     -4987.8663     -932.61958      71362.425      142.80813    
     23640   1391.6565     -5263.8058     -4987.6812     -848.52383      71324.599      142.59453    
     23650   1388.8308     -5263.0507     -4987.4867     -679.84591      71286.563      142.37246    
     23660   1374.2583     -5259.9371     -4987.2646     -421.08094      71248.075      142.14229    
     23670   1355.5358     -5255.9121     -4986.9544     -140.95322      71209.366      141.90992    
     23680   1357.7749     -5255.8879     -4986.4859     -39.140657      71171.093      141.68382    
     23690   1385.6288     -5260.7662     -4985.8376     -215.86488      71133.757      141.46927    
     23700   1406.6561     -5264.1632     -4985.0625     -347.63109      71097.34       141.26757    
     23710   1405.0459     -5263.0049     -4984.2236     -265.26489      71061.66       141.07956    
     23720   1400.7396     -5261.2522     -4983.3254     -115.89362      71026.689      140.90607    
     23730   1407.6796     -5261.6569     -4982.3531     -34.005641      70992.389      140.74514    
     23740   1418.2958     -5262.7218     -4981.3116      29.147316      70958.658      140.59253    
     23750   1421.4623     -5262.2747     -4980.2362      235.29822      70925.574      140.44454    
     23760   1425.1349     -5261.9297     -4979.1625      419.96967      70893.416      140.29901    
     23770   1438.5159     -5263.5341     -4978.1119      527.32416      70862.442      140.15535    
     23780   1463.0103     -5267.4327     -4977.1505      416.12493      70832.775      140.01492    
     23790   1475.573      -5269.1558     -4976.3809      305.74848      70804.315      139.87854    
     23800   1472.5833     -5268.0615     -4975.8799      299.83761      70777.003      139.74537    
     23810   1467.9862     -5266.9438     -4975.6744      318.50748      70750.846      139.61458    
     23820   1449.1888     -5263.2957     -4975.7558      379.9762       70725.842      139.48665    
     23830   1434.0951     -5260.6439     -4976.0989      375.50787      70701.961      139.36159    
     23840   1422.5566     -5258.9315     -4976.6759      372.27867      70679.133      139.24346    
     23850   1401.2622     -5255.4891     -4977.4586      342.48151      70657.334      139.13569    
     23860   1386.5879     -5253.516      -4978.3971      242.70422      70636.491      139.03711    
     23870   1392.7694     -5255.8184     -4979.473      -0.30372923     70616.354      138.94238    
     23880   1403.0724     -5259.1011     -4980.7114     -272.25016      70596.598      138.84643    
     23890   1396.6266     -5259.2369     -4982.1262     -360.47681      70576.88       138.7485     
     23900   1379.9181     -5257.452      -4983.6565     -232.66524      70556.956      138.65048    
     23910   1359.0867     -5254.8472     -4985.1849     -22.435683      70536.703      138.55439    
     23920   1339.8533     -5252.4243     -4986.5782      218.49521      70516.235      138.46226    
     23930   1332.2756     -5252.1035     -4987.761       344.8675       70496.064      138.37711    
     23940   1341.2015     -5254.8193     -4988.7058      274.01558      70476.781      138.30235    
     23950   1362.4436     -5259.7936     -4989.4653      172.75171      70458.683      138.23992    
     23960   1370.2267     -5261.9762     -4990.1036      148.54401      70441.809      138.19102    
     23970   1359.0368     -5260.3019     -4990.6495      292.18405      70426.151      138.15643    
     23980   1341.1364     -5257.1558     -4991.0551      485.58372      70411.764      138.13609    
     23990   1340.4473     -5257.2744     -4991.3105      497.94386      70398.718      138.12886    
     24000   1353.2239     -5259.9225     -4991.4235      389.72436      70386.818      138.13151    
     24010   1370.7138     -5263.4136     -4991.4443      162.9278       70375.841      138.14202    
     24020   1385.1364     -5266.2627     -4991.4318     -47.148379      70365.497      138.15987    
     24030   1394.2907     -5268.0864     -4991.4392     -232.38626      70355.288      138.18386    
     24040   1400.6363     -5269.4088     -4991.5025     -372.05041      70344.614      138.21038    
     24050   1401.3621     -5269.6879     -4991.6376     -430.68621      70333.022      138.23398    
     24060   1396.2986     -5268.8947     -4991.849      -339.55099      70320.344      138.24983    
     24070   1387.7243     -5267.4536     -4992.1092     -200.60864      70306.84       138.25683    
     24080   1372.7134     -5264.7521     -4992.3861      11.015998      70293.163      138.25877    
     24090   1358.0848     -5262.0908     -4992.6274      189.00258      70280.216      138.26247    
     24100   1359.3544     -5262.5186     -4992.8032      224.21376      70268.756      138.27494    
     24110   1363.8541     -5263.5223     -4992.9141      200.89452      70258.979      138.29937    
     24120   1357.2064     -5262.2582     -4992.969       279.85462      70250.652      138.3348     
     24130   1353.2457     -5261.4716     -4992.9682      236.23925      70243.512      138.3796     
     24140   1358.312      -5262.4054     -4992.8968      157.48175      70237.308      138.43436    
     24150   1354.5468     -5261.514      -4992.7525      115.38789      70231.837      138.49995    
     24160   1348.3149     -5260.0554     -4992.5304      57.693615      70226.942      138.57326    
     24170   1355.8906     -5261.2405     -4992.2124     -103.37637      70222.441      138.64798    
     24180   1368.8494     -5263.3993     -4991.8        -325.937        70218.024      138.71808    
     24190   1378.7394     -5264.8905     -4991.3289     -485.74252      70213.208      138.77884    
     24200   1376.8336     -5263.9878     -4990.8043     -518.86571      70207.599      138.82944    
     24210   1369.0646     -5261.848      -4990.206      -464.27223      70200.934      138.87086    
     24220   1368.9403     -5261.1002     -4989.4828     -446.58027      70193.061      138.90477    
     24230   1387.1295     -5263.8032     -4988.5769     -612.90138      70183.924      138.93181    
     24240   1403.9364     -5266.0283     -4987.4672     -768.45547      70173.462      138.95094    
     24250   1398.8409     -5263.7252     -4986.1752     -658.09079      70161.64       138.96038    
     24260   1382.8835     -5259.0641     -4984.6802     -381.70745      70148.566      138.95907    
     24270   1374.6728     -5255.7023     -4982.9475     -188.90104      70134.35       138.94681    
     24280   1388.4212     -5256.475      -4980.9923     -181.75505      70119.073      138.92242    
     24290   1416.5866     -5260.0144     -4978.9433     -300.89518      70102.627      138.88302    
     24300   1447.0344     -5264.1522     -4977.0399     -399.3782       70084.67       138.82689    
     24310   1462.6228     -5265.7024     -4975.4971     -352.59785      70064.953      138.75427    
     24320   1460.2529     -5264.1489     -4974.4138     -146.82373      70043.773      138.66715    
     24330   1449.4118     -5261.3496     -4973.7655      139.8901       70021.807      138.56857    
     24340   1430.7311     -5257.3334     -4973.4558      473.15795      69999.733      138.46084    
     24350   1415.9266     -5254.3282     -4973.3881      764.62238      69978.124      138.3462     
     24360   1411.6619     -5253.5823     -4973.4883      905.57412      69957.289      138.22806    
     24370   1413.4834     -5254.1854     -4973.7301      872.37308      69937.296      138.11197    
     24380   1423.1609     -5256.498      -4974.1225      772.2225       69918.138      138.00136    
     24390   1414.9163     -5255.4034     -4974.6638      736.084        69899.828      137.89671    
     24400   1403.4528     -5253.8057     -4975.3405      613.95344      69882.349      137.79799    
     24410   1401.4148     -5254.1708     -4976.11        408.21736      69865.402      137.70457    
     24420   1400.7915     -5254.8864     -4976.9493      181.61849      69848.566      137.61412    
     24430   1414.2326     -5258.4745     -4977.8705     -118.18002      69831.614      137.52334    
     24440   1424.6623     -5261.5774     -4978.904      -242.93185      69814.549      137.43011    
     24450   1407.7819     -5259.3625     -4980.0385     -46.559891      69797.512      137.33436    
     24460   1379.5779     -5254.9036     -4981.1756      295.56427      69780.792      137.23975    
     24470   1378.557      -5255.7499     -4982.2244      404.23891      69764.796      137.15169    
     24480   1399.886      -5260.9647     -4983.2073      247.81496      69749.675      137.07379    
     24490   1411.686      -5264.2789     -4984.1802      214.41922      69735.313      137.00624    
     24500   1405.1204     -5263.9556     -4985.1596      300.533        69721.694      136.9473     
     24510   1390.6526     -5262.0352     -4986.1098      388.02655      69708.93       136.89372    
     24520   1383.891      -5261.5774     -4986.9936      439.50768      69697.221      136.84217    
     24530   1375.0718     -5260.6333     -4987.7994      452.80128      69686.751      136.79328    
     24540   1360.2768     -5258.4031     -4988.5047      482.10048      69677.531      136.75194    
     24550   1357.6829     -5258.4884     -4989.1047      371.9482       69669.441      136.72259    
     24560   1355.3086     -5258.5206     -4989.608       239.34346      69662.297      136.70401    
     24570   1347.3466     -5257.3564     -4990.0236      184.71327      69655.98       136.69136    
     24580   1350.4392     -5258.2976     -4990.3511      118.76252      69650.337      136.68112    
     24590   1363.8218     -5261.22       -4990.6182      60.883624      69645.004      136.67115    
     24600   1374.9939     -5263.6937     -4990.8752      0.37505987     69639.73       136.66171    
     24610   1379.4082     -5264.8564     -4991.1621      15.956779      69634.657      136.6572     
     24620   1377.3219     -5264.7777     -4991.4973      96.34924       69630.172      136.66434    
     24630   1365.8142     -5262.8646     -4991.8675      222.42973      69626.675      136.68925    
     24640   1345.9176     -5259.2882     -4992.2389      437.75941      69624.527      136.73602    
     24650   1330.4069     -5256.516      -4992.5442      619.66508      69624.087      136.80398    
     24660   1349.4596     -5260.5205     -4992.7684      503.90534      69625.441      136.88609    
     24670   1372.7022     -5265.3201     -4992.9563      294.08395      69628.058      136.97508    
     24680   1381.5894     -5267.3148     -4993.1877      237.11433      69631.321      137.06638    
     24690   1375.7183     -5266.4594     -4993.4971      330.00633      69635.008      137.15862    
     24700   1372.9073     -5266.277      -4993.8725      390.00909      69639.213      137.25124    
     24710   1380.0722     -5268.1465     -4994.3204      301.42239      69644.017      137.34321    
     24720   1390.4293     -5270.751      -4994.8699      102.75139      69649.23       137.43425    
     24730   1386.4212     -5270.6393     -4995.5535      17.86385       69654.388      137.52407    
     24740   1365.7668     -5267.3448     -4996.3572      154.11939      69658.893      137.60965    
     24750   1349.34       -5264.9458     -4997.2174      261.12052      69662.378      137.68652    
     24760   1339.8345     -5263.9248     -4998.0825      310.54316      69664.705      137.75309    
     24770   1327.1179     -5262.2333     -4998.9141      347.26575      69665.921      137.8121     
     24780   1315.9368     -5260.7655     -4999.6648      372.1769       69666.331      137.86888    
     24790   1308.5163     -5259.9309     -5000.3025      363.40524      69666.476      137.92789    
     24800   1299.3329     -5258.6049     -5000.7986      353.93067      69666.989      137.99037    
     24810   1291.8895     -5257.4502     -5001.1208      308.81329      69668.305      138.05626    
     24820   1307.9786     -5260.7794     -5001.2577      57.10193       69670.476      138.125      
     24830   1338.8929     -5266.905      -5001.2495     -255.38892      69673.032      138.19194    
     24840   1358.8004     -5270.7781     -5001.1726     -334.43109      69675.329      138.251      
     24850   1365.4579     -5272.0199     -5001.0935     -235.07369      69677.097      138.29908    
     24860   1374.9404     -5273.8553     -5001.0475     -99.940904      69678.364      138.33599    
     24870   1389.6807     -5276.8114     -5001.0789      39.450001      69679.166      138.36332    
     24880   1394.878      -5278.0104     -5001.2466      169.57908      69679.591      138.38449    
     24890   1395.2312     -5278.4495     -5001.6156      309.77354      69679.949      138.40695    
     24900   1402.2066     -5280.4644     -5002.2465      283.14166      69680.731      138.44001    
     24910   1408.5695     -5282.7103     -5003.23        125.86089      69682.218      138.48806    
     24920   1405.3021     -5283.4728     -5004.6407      40.933751      69684.434      138.55229    
     24930   1387.3911     -5281.7377     -5006.4594      56.084149      69687.428      138.63388    
     24940   1368.5162     -5280.0699     -5008.5367      82.957237      69691.304      138.73216    
     24950   1350.8797     -5278.6842     -5010.6503      125.60071      69696.02       138.84507    
     24960   1339.5985     -5278.389      -5012.5935      195.10676      69701.553      138.97231    
     24970   1325.103      -5277.1582     -5014.2388      332.29264      69707.928      139.11477    
     24980   1298.2399     -5273.1021     -5015.5127      592.93232      69715.171      139.27125    
     24990   1271.7431     -5268.7291     -5016.3971      794.06484      69723.299      139.43841    
     25000   1258.8598     -5266.6809     -5016.9051      825.39358      69732.164      139.61066    
     25010   1261.2264     -5267.3177     -5017.0724      714.11424      69741.397      139.78161    
     25020   1270.5923     -5269.0518     -5016.948       576.84919      69750.489      139.94635    
     25030   1282.5208     -5271.0623     -5016.5918      453.82481      69759.074      140.10149    
     25040   1289.0449     -5271.8057     -5016.0407      420.74569      69767.167      140.24495    
     25050   1293.4771     -5271.9723     -5015.3279      281.49983      69775.083      140.37953    
     25060   1300.1562     -5272.441      -5014.4714      160.78598      69783.094      140.51083    
     25070   1312.6331     -5273.9454     -5013.5002      66.636631      69791.433      140.64361    
     25080   1322.0204     -5274.7617     -5012.4539      16.975844      69800.262      140.77826    
     25090   1326.9176     -5274.6584     -5011.379      -45.492029      69809.685      140.91244    
     25100   1334.9655     -5275.1836     -5010.3073     -60.541363      69819.7        141.04431    
     25110   1343.4515     -5275.8307     -5009.2707     -38.538737      69830.281      141.17477    
     25120   1345.8616     -5275.3286     -5008.2904      41.246333      69841.425      141.30598    
     25130   1351.127      -5275.474      -5007.3911      119.04787      69853.128      141.43955    
     25140   1360.6231     -5276.5408     -5006.5737      177.68952      69865.257      141.57567    
     25150   1365.0326     -5276.703      -5005.861       260.9544       69877.606      141.71489    
     25160   1366.6322     -5276.4177     -5005.2583      297.99008      69889.978      141.85839    
     25170   1374.4144     -5277.4757     -5004.7722      177.14161      69902.188      142.00657    
     25180   1385.4215     -5279.2961     -5004.4087     -19.080532      69914.129      142.1595     
     25190   1387.5816     -5279.5122     -5004.1961     -171.61034      69925.813      142.31744    
     25200   1383.6117     -5278.671      -5004.1426     -266.99947      69937.333      142.47971    
     25210   1371.6005     -5276.3745     -5004.2293     -315.81079      69948.814      142.64394    
     25220   1356.2014     -5273.5005     -5004.4107     -345.14062      69960.411      142.80785    
     25230   1340.0621     -5270.5236     -5004.6361     -416.90746      69972.195      142.97146    
     25240   1330.2458     -5268.7928     -5004.853      -543.95053      69984.136      143.13767    
     25250   1326.9433     -5268.3116     -5005.0271     -646.36883      69996.101      143.31014    
     25260   1318.8715     -5266.8333     -5005.1502     -675.09162      70007.915      143.49159    
     25270   1318.9349     -5266.8937     -5005.1981     -649.56349      70019.35       143.6821     
     25280   1332.4297     -5269.5469     -5005.1737     -678.99072      70030.169      143.87807    
     25290   1345.8215     -5272.1433     -5005.1131     -714.18534      70040.062      144.0733     
     25300   1352.7697     -5273.4712     -5005.0623     -607.09488      70048.825      144.26302    
     25310   1352.5299     -5273.4104     -5005.0491     -412.69275      70056.628      144.44735    
     25320   1351.6888     -5273.2767     -5005.0823     -200.65765      70063.843      144.62712    
     25330   1349.6536     -5272.9515     -5005.1609      6.5297033      70070.793      144.80119    
     25340   1345.1714     -5272.1836     -5005.2823      188.85202      70077.642      144.96737    
     25350   1343.1958     -5271.954      -5005.4447      236.28411      70084.525      145.12574    
     25360   1353.7495     -5274.2582     -5005.6549      135.17289      70091.572      145.27815    
     25370   1373.0806     -5278.3975     -5005.9586     -113.69897      70098.735      145.42547    
     25380   1383.4778     -5280.9489     -5006.447      -332.98261      70105.619      145.56539    
     25390   1382.7293     -5281.5494     -5007.1961     -511.56074      70111.83       145.69556    
     25400   1380.7036     -5282.1987     -5008.2474     -621.9221       70117.033      145.81448    
     25410   1369.2802     -5281.2843     -5009.5995     -676.06978      70120.799      145.91888    
     25420   1352.7276     -5279.5953     -5011.1948     -680.02195      70122.598      146.00519    
     25430   1336.2743     -5278.0433     -5012.9074     -587.27369      70122.096      146.07209    
     25440   1323.1418     -5277.1315     -5014.6012     -511.89678      70119.331      146.11983    
     25450   1316.4779     -5277.3629     -5016.1548     -432.77105      70114.523      146.14845    
     25460   1309.8729     -5277.4054     -5017.5079     -320.10637      70107.913      146.15737    
     25470   1298.4087     -5276.2394     -5018.6165     -92.775282      70099.757      146.14628    
     25480   1273.1738     -5272.0653     -5019.4494      194.28303      70090.587      146.11961    
     25490   1257.41       -5269.463      -5019.9749      260.08154      70081.22       146.08596    
     25500   1272.578      -5272.712      -5020.2143     -38.421741      70072.112      146.05032    
     25510   1295.0285     -5277.1959     -5020.2437     -431.61546      70062.879      146.01061    
     25520   1303.2783     -5278.7278     -5020.1387     -615.26547      70052.856      145.96417    
     25530   1301.0014     -5278.08       -5019.9426     -590.90646      70041.678      145.91226    
     25540   1292.7657     -5276.1541     -5019.6508     -462.13714      70029.337      145.85948    
     25550   1284.7965     -5274.163      -5019.2409     -344.1929       70016.052      145.81015    
     25560   1290.5547     -5274.7617     -5018.6972     -264.32844      70002.132      145.76561    
     25570   1297.4984     -5275.4725     -5018.0303     -185.17229      69987.74       145.72398    
     25580   1297.9738     -5274.8031     -5017.2665     -47.668492      69972.834      145.67886    
     25590   1309.3391     -5276.2189     -5016.4272      7.3839972      69957.235      145.62166    
     25600   1319.8517     -5277.4219     -5015.5444      53.859675      69940.686      145.54649    
     25610   1318.2677     -5276.2244     -5014.6612      170.79239      69923.078      145.45165    
     25620   1323.4097     -5276.3745     -5013.7911      265.09684      69904.613      145.33956    
     25630   1334.7773     -5277.7921     -5012.9532      339.97252      69885.588      145.21714    
     25640   1341.6169     -5278.3726     -5012.1765      340.00828      69866.39       145.09371    
     25650   1343.8383     -5278.1257     -5011.489       315.67377      69847.441      144.97544    
     25660   1346.8315     -5278.1389     -5010.9082      255.76838      69829.166      144.86367    
     25670   1341.2584     -5276.5433     -5010.4185      220.51915      69811.975      144.7582     
     25680   1330.4983     -5273.9956     -5010.0057      188.69959      69796.079      144.65754    
     25690   1323.257      -5272.1917     -5009.6385      105.99713      69781.216      144.55777    
     25700   1312.6906     -5269.738      -5009.2814      42.999229      69766.772      144.45805    
     25710   1301.7888     -5267.1976     -5008.9041      23.717022      69752.087      144.36153    
     25720   1291.0474     -5264.6279     -5008.4656      27.624151      69736.719      144.2713     
     25730   1292.2414     -5264.3445     -5007.9453     -79.690313      69720.427      144.1887     
     25740   1307.8647     -5266.845      -5007.3459     -255.213        69703.109      144.11389    
     25750   1322.2931     -5269.0701     -5006.7082     -411.3554       69684.746      144.04397    
     25760   1335.6877     -5271.1139     -5006.0943     -523.59164      69665.306      143.97323    
     25770   1341.4982     -5271.7218     -5005.5493     -521.89907      69644.853      143.89523    
     25780   1343.139      -5271.5852     -5005.0872     -483.12488      69623.54       143.8043     
     25790   1352.7496     -5273.1262     -5004.7213     -418.65814      69601.503      143.69747    
     25800   1367.1725     -5275.741      -5004.4744     -398.11529      69578.905      143.5772     
     25810   1372.0828     -5276.621      -5004.3801     -335.04315      69555.873      143.44981    
     25820   1367.2207     -5275.7271     -5004.4509     -170.26217      69532.487      143.32232    
     25830   1358.2979     -5274.1641     -5004.6583     -21.880331      69508.838      143.20065    
     25840   1348.478      -5272.5176     -5004.9602      183.9246       69485.071      143.08818    
     25850   1349.9007     -5273.1632     -5005.3236      313.66788      69461.506      142.98672    
     25860   1356.3606     -5274.8752     -5005.7539      406.25339      69438.4        142.89557    
     25870   1349.3464     -5273.9865     -5006.2568      516.08735      69415.84       142.81049    
     25880   1340.599      -5272.797      -5006.803       627.63582      69393.871      142.72652    
     25890   1340.2732     -5273.2976     -5007.3682      661.31253      69372.635      142.63942    
     25900   1335.8624     -5272.9904     -5007.9361      760.05949      69352.136      142.54532    
     25910   1329.2026     -5272.2213     -5008.4885      887.91387      69332.33       142.44349    
     25920   1333.2745     -5273.5477     -5009.007       849.80997      69313.298      142.33703    
     25930   1345.4177     -5276.4606     -5009.5104      772.55027      69295.144      142.23066    
     25940   1363.8465     -5280.6431     -5010.0364      618.1398       69277.928      142.12887    
     25950   1377.7915     -5284.0159     -5010.6423      570.00112      69261.612      142.03233    
     25960   1377.3611     -5284.6348     -5011.3466      608.17283      69246.11       141.93811    
     25970   1373.567      -5284.6597     -5012.1243      744.23953      69231.331      141.84533    
     25980   1373.8319     -5285.536      -5012.9481      817.70346      69217.163      141.75835    
     25990   1366.9241     -5285.0094     -5013.7921      861.31266      69203.246      141.6814     
     26000   1349.4911     -5282.3859     -5014.6275      866.96251      69189.18       141.61615    
     26010   1325.5586     -5278.3876     -5015.3778      849.93818      69174.729      141.5603     
     26020   1320.0941     -5277.9448     -5016.0192      591.62604      69159.86       141.50977    
     26030   1317.1996     -5277.9071     -5016.5558      254.48495      69144.323      141.45627    
     26040   1310.319      -5276.9912     -5017.0052     -35.590768      69127.646      141.38883    
     26050   1307.4439     -5276.7909     -5017.3753     -290.35292      69109.267      141.30003    
     26060   1300.9351     -5275.7999     -5017.6758     -443.60106      69088.682      141.18672    
     26070   1286.1385     -5273.0837     -5017.8954     -409.52634      69065.631      141.04788    
     26080   1265.3144     -5269.0507     -5017.9942     -237.42349      69040.281      140.88694    
     26090   1254.4632     -5266.8241     -5017.9206     -57.3686        69013.052      140.71025    
     26100   1264.6026     -5268.5771     -5017.6619     -52.528581      68984.151      140.52339    
     26110   1282.6981     -5271.7471     -5017.2414     -209.7732       68953.309      140.32938    
     26120   1302.8551     -5275.2217     -5016.7166     -363.62707      68920.228      140.12919    
     26130   1321.3776     -5278.329      -5016.1487     -481.64779      68884.917      139.92377    
     26140   1328.2916     -5279.1467     -5015.5946     -417.54132      68847.617      139.7157     
     26150   1311.6751     -5275.3268     -5015.0717     -162.22282      68808.878      139.51035    
     26160   1287.673      -5270.0281     -5014.5353      279.66034      68769.58       139.31507    
     26170   1284.9621     -5268.8639     -5013.909       609.8621       68730.738      139.13627    
     26180   1304.0164     -5271.9174     -5013.1818      720.16645      68692.937      138.97385    
     26190   1324.9768     -5275.3063     -5012.4119      715.47458      68656.158      138.82207    
     26200   1335.698      -5276.6913     -5011.6697      759.62372      68620.23       138.67612    
     26210   1348.5251     -5278.5758     -5011.0091      742.67917      68585.067      138.53183    
     26220   1370.3267     -5282.373      -5010.4806      635.71715      68550.51       138.38636    
     26230   1382.139      -5284.389      -5010.1529      590.50576      68516.42       138.24009    
     26240   1374.3663     -5282.7546     -5010.0607      638.95512      68482.895      138.09493    
     26250   1362.1041     -5280.4534     -5010.1924      663.28979      68450.145      137.95109    
     26260   1353.4569     -5279.0544     -5010.5092      620.26513      68418.04       137.80494    
     26270   1351.9611     -5279.243      -5010.9946      437.75994      68386.19       137.65098    
     26280   1347.0272     -5278.9113     -5011.6418      217.8373       68354.399      137.48881    
     26290   1331.9313     -5276.7056     -5012.4313      88.689167      68322.694      137.32347    
     26300   1316.8692     -5274.6031     -5013.3174      57.000441      68291.098      137.16084    
     26310   1312.1971     -5274.6167     -5014.258       77.727392      68259.531      137.00381    
     26320   1314.2088     -5275.9904     -5015.2325      137.29725      68228.044      136.85565    
     26330   1314.9166     -5277.1414     -5016.2431      186.26685      68196.782      136.72163    
     26340   1315.5805     -5278.3044     -5017.2744      283.05018      68166.017      136.60507    
     26350   1326.8538     -5281.5967     -5018.3299      331.73296      68136.251      136.50823    
     26360   1338.8658     -5285.09       -5019.4398      293.16714      68107.986      136.43368    
     26370   1341.6156     -5286.8104     -5020.6147      328.84375      68081.501      136.38195    
     26380   1338.2245     -5287.3528     -5021.8299      407.98258      68056.82       136.35006    
     26390   1336.0831     -5288.131      -5023.033       492.34475      68033.746      136.3339     
     26400   1328.9273     -5287.8446     -5024.1664      659.37113      68012.079      136.32951    
     26410   1319.3794     -5286.9609     -5025.1772      871.83474      67991.763      136.33363    
     26420   1316.3967     -5287.2272     -5026.0352      1058.1137      67972.849      136.34246    
     26430   1310.523      -5286.7588     -5026.7322      1267.4719      67955.434      136.35312    
     26440   1296.7454     -5284.5645     -5027.2716      1507.7816      67939.708      136.36638    
     26450   1296.8682     -5284.9823     -5027.6651      1564.1393      67925.921      136.38457    
     26460   1311.4772     -5288.1746     -5027.9587      1466.1161      67914.048      136.40732    
     26470   1329.1133     -5291.9403     -5028.2252      1356.3677      67903.866      136.43372    
     26480   1328.3728     -5292.0901     -5028.5219      1297.8588      67895.14       136.466      
     26490   1319.7865     -5290.7168     -5028.8523      1230.0252      67887.612      136.50679    
     26500   1319.1254     -5290.9285     -5029.1951      977.66015      67880.884      136.55591    
     26510   1325.0899     -5292.4834     -5029.5666      572.25758      67874.314      136.61083    
     26520   1331.6755     -5294.2115     -5029.9881      214.96394      67867.274      136.66626    
     26530   1331.5963     -5294.6895     -5030.4817     -38.695763      67859.233      136.71406    
     26540   1320.9641     -5293.1433     -5031.0451     -105.05644      67849.674      136.74691    
     26550   1305.9631     -5290.7677     -5031.6459     -69.628568      67838.276      136.76088    
     26560   1299.4358     -5290.069      -5032.2423     -37.204451      67825.049      136.75585    
     26570   1289.936      -5288.7473     -5032.8055      93.476637      67810.233      136.73647    
     26580   1270.8704     -5285.4591     -5033.3002      236.07011      67794.184      136.71203    
     26590   1269.3985     -5285.5543     -5033.6875      185.08576      67777.189      136.69108    
     26600   1286.6229     -5289.26       -5033.9756     -59.969675      67759.158      136.67465    
     26610   1292.191      -5290.6062     -5034.217      -186.27847      67739.71       136.65742    
     26620   1282.3126     -5288.851      -5034.4218     -139.31018      67718.545      136.63545    
     26630   1273.5494     -5287.2612     -5034.5708     -98.485792      67695.624      136.60883    
     26640   1274.8417     -5287.5817     -5034.6348     -142.17853      67670.968      136.57677    
     26650   1282.5516     -5289.0948     -5034.6182     -148.65741      67644.428      136.53423    
     26660   1284.7296     -5289.4453     -5034.5366     -31.954661      67615.811      136.47349    
     26670   1282.0346     -5288.7671     -5034.3931      178.38451      67585.207      136.38909    
     26680   1285.039      -5289.145      -5034.1749      353.22336      67553.083      136.28244    
     26690   1290.591      -5289.9426     -5033.8709      506.67906      67520.135      136.16142    
     26700   1300.3971     -5291.5166     -5033.4992      611.57987      67487.19       136.03576    
     26710   1315.8111     -5294.1628     -5033.0871      614.57693      67454.944      135.9123     
     26720   1334.0437     -5297.3881     -5032.6947      568.39817      67423.544      135.79422    
     26730   1341.8136     -5298.6204     -5032.3853      561.75936      67392.796      135.68303    
     26740   1338.651      -5297.8055     -5032.198       596.8969       67362.562      135.57781    
     26750   1333.6585     -5296.7596     -5032.1427      619.21991      67333.002      135.47616    
     26760   1320.9496     -5294.2972     -5032.2019      748.59926      67304.566      135.37643    
     26770   1314.2624     -5293.1257     -5032.3573      827.10568      67277.794      135.28015    
     26780   1312.2044     -5292.962      -5032.6019      893.3087       67253.055      135.19363    
     26790   1308.7173     -5292.6134     -5032.9451      1007.9269      67230.533      135.12261    
     26800   1308.8147     -5293.0833     -5033.3957      1048.008       67210.233      135.0676     
     26810   1307.0551     -5293.3055     -5033.9671      1085.3331      67191.956      135.0258     
     26820   1304.8965     -5293.5817     -5034.6715      1083.5109      67175.381      134.99373    
     26830   1298.0459     -5293.058      -5035.5071      1095.9238      67160.181      134.96707    
     26840   1288.2147     -5292.048      -5036.4477      1127.0045      67146.261      134.94304    
     26850   1278.9439     -5291.2079     -5037.4471      1197.9442      67133.657      134.92432    
     26860   1276.3511     -5291.7111     -5038.4647      1191.874       67122.414      134.9166     
     26870   1284.9271     -5294.4371     -5039.4892      1112.8712      67112.485      134.92401    
     26880   1290.6194     -5296.6036     -5040.5263      1016.5022      67103.768      134.94785    
     26890   1284.0219     -5296.3396     -5041.5713      979.31011      67096.207      134.98569    
     26900   1267.1958     -5293.9977     -5042.5679      992.0537       67089.933      135.03197    
     26910   1262.1027     -5293.8823     -5043.4631      904.77858      67085.103      135.08154    
     26920   1274.8279     -5297.1965     -5044.2524      730.2779       67081.574      135.13002    
     26930   1286.1708     -5300.1672     -5044.9725      498.72232      67078.917      135.17295    
     26940   1284.7834     -5300.569      -5045.6495      412.45931      67076.631      135.20557    
     26950   1274.8853     -5299.2323     -5046.2768      439.7463       67074.389      135.22603    
     26960   1273.3218     -5299.4824     -5046.8371      429.12401      67071.984      135.2336     
     26970   1281.7691     -5301.6497     -5047.3283      320.10177      67069.236      135.22726    
     26980   1288.9754     -5303.5349     -5047.7837      222.20289      67065.845      135.20689    
     26990   1282.9752     -5302.7834     -5048.2228      277.0545       67061.471      135.17454    
     27000   1276.2441     -5301.8507     -5048.6256      339.45219      67056.008      135.13408    
     27010   1280.7642     -5303.1116     -5048.9896      336.26588      67049.548      135.09028    
     27020   1285.9386     -5304.4691     -5049.3205      318.52354      67042.139      135.04763    
     27030   1291.9093     -5305.9805     -5049.6472      266.2593       67033.794      135.00777    
     27040   1297.3715     -5307.4098     -5049.9927      194.28257      67024.413      134.96803    
     27050   1296.0545     -5307.5314     -5050.3756      163.03186      67013.833      134.92327    
     27060   1292.8572     -5307.3212     -5050.7998      182.32881      67002.006      134.86912    
     27070   1291.6778     -5307.55       -5051.2627      216.81693      66989.074      134.80448    
     27080   1290.4139     -5307.8013     -5051.7647      250.3752       66975.25       134.73066    
     27090   1288.2094     -5307.9082     -5052.309       347.43844      66960.71       134.64975    
     27100   1283.8113     -5307.6339     -5052.9074      472.27929      66945.627      134.56544    
     27110   1277.6733     -5307.0524     -5053.5437      542.42838      66930.073      134.4819     
     27120   1278.3901     -5307.8815     -5054.2306      536.2181       66914.042      134.40079    
     27130   1275.9175     -5308.1389     -5054.9786      515.45034      66897.482      134.31781    
     27140   1267.1792     -5307.2249     -5055.7983      564.18381      66880.305      134.22654    
     27150   1252.0934     -5305.1089     -5056.6756      614.61672      66862.379      134.12416    
     27160   1226.6708     -5300.9502     -5057.5611      741.90984      66843.55       134.01249    
     27170   1197.975      -5296.0671     -5058.3717      894.82365      66823.857      133.8965     
     27180   1181.8578     -5293.5135     -5059.016       877.70099      66803.481      133.78208    
     27190   1187.3776     -5295.0264     -5059.4336      683.77618      66782.492      133.67389    
     27200   1208.0016     -5299.2938     -5059.609       358.58776      66760.754      133.57185    
     27210   1227.0552     -5303.0178     -5059.5525      127.57681      66737.957      133.47016    
     27220   1245.2622     -5306.3503     -5059.2725      43.731826      66713.798      133.3625     
     27230   1271.0218     -5310.9734     -5058.7844     -40.768466      66688.112      133.24814    
     27240   1293.626      -5314.8047     -5058.1308     -82.830487      66660.878      133.13046    
     27250   1300.4946     -5315.4104     -5057.3736      32.334026      66632.184      133.01271    
     27260   1303.4409     -5315.187      -5056.5657      119.32255      66602.259      132.89713    
     27270   1306.9734     -5315.0497     -5055.7274      148.88594      66571.282      132.78379    
     27280   1305.0299     -5313.8317     -5054.895       248.01423      66539.348      132.66966    
     27290   1289.0078     -5309.8275     -5054.0699      507.52784      66506.67       132.55036    
     27300   1270.7778     -5305.3718     -5053.2313      765.37077      66473.626      132.42243    
     27310   1272.4962     -5304.8163     -5052.3348      871.55109      66440.415      132.28441    
     27320   1286.2176     -5306.5796     -5051.3756      808.33757      66406.918      132.13588    
     27330   1300.2849     -5308.4117     -5050.4166      801.48652      66372.874      131.97709    
     27340   1300.8971     -5307.6266     -5049.51        916.96573      66338.259      131.81214    
     27350   1288.9332     -5304.4204     -5048.6776      1144.4436      66303.351      131.64691    
     27360   1271.5849     -5300.1932     -5047.8926      1360.8316      66268.592      131.48572    
     27370   1260.9403     -5297.2903     -5047.1017      1505.4985      66234.486      131.33097    
     27380   1258.2676     -5295.9287     -5046.2704      1488.1863      66201.376      131.18423    
     27390   1262.4186     -5295.8818     -5045.3999      1306.3857      66169.287      131.04655    
     27400   1273.6917     -5297.2277     -5044.509       1049.9609      66138.048      130.91888    
     27410   1284.8549     -5298.5643     -5043.6307      781.76141      66107.461      130.80159    
     27420   1298.666      -5300.4998     -5042.8258      618.71211      66077.198      130.6923     
     27430   1301.7072     -5300.406      -5042.1287      663.22523      66046.841      130.58666    
     27440   1300.003      -5299.4897     -5041.5505      824.99454      66016.171      130.47932    
     27450   1311.3636     -5301.2893     -5041.096       872.47202      65985.111      130.36506    
     27460   1325.6608     -5303.8154     -5040.7853      927.1386       65953.542      130.24222    
     27470   1328.6088     -5304.2662     -5040.6512      1084.1459      65921.483      130.11691    
     27480   1323.3313     -5303.2672     -5040.6993      1298.7744      65889.136      129.99869    
     27490   1331.6444     -5305.1404     -5040.9231      1331.3602      65856.696      129.8926     
     27500   1354.383      -5310.0923     -5041.3633      1220.6941      65824.143      129.79595    
     27510   1365.2345     -5312.9707     -5042.0886      1138.0217      65791.364      129.70445    
     27520   1353.0973     -5311.5967     -5043.1228      1222.6393      65758.381      129.61616    
     27530   1335.2394     -5309.3225     -5044.3919      1269.0922      65725.448      129.53087    
     27540   1315.5529     -5306.814      -5045.7894      1251.2969      65692.786      129.44798    
     27550   1298.6159     -5304.8489     -5047.1849      1208.386       65660.513      129.36633    
     27560   1292.1682     -5304.8701     -5048.4854      1049.9765      65628.606      129.28428    
     27570   1286.0908     -5304.8174     -5049.6386      968.66614      65596.836      129.1999     
     27580   1279.6214     -5304.5193     -5050.6241      933.41839      65564.934      129.11071    
     27590   1278.9609     -5305.2067     -5051.4425      905.33073      65532.802      129.01416    
     27600   1277.075      -5305.507      -5052.117       860.41428      65500.537      128.90987    
     27610   1274.7328     -5305.608      -5052.6828      896.15497      65468.302      128.79906    
     27620   1273.5679     -5305.8479     -5053.1538      986.61678      65436.349      128.68381    
     27630   1275.7243     -5306.6854     -5053.5635      1084.2334      65404.958      128.56825    
     27640   1270.3226     -5305.9845     -5053.9343      1210.2931      65374.195      128.4549     
     27650   1273.2928     -5306.9092     -5054.2697      1232.6266      65343.907      128.34197    
     27660   1281.6237     -5308.8761     -5054.5836      1238.6396      65313.982      128.22836    
     27670   1285.6776     -5310.0117     -5054.9149      1296.0825      65284.454      128.11697    
[...]
     48200   1237.5332     -5238.1761     -4992.6318     -478.53617      74822.945      350.8702     
     48210   1237.2144     -5237.1174     -4991.6364     -541.43408      74845.158      351.15574    
     48220   1238.7499     -5236.593      -4990.8073     -618.77387      74864.138      351.40253    
     48230   1240.0245     -5236.1935     -4990.1549     -621.98079      74879.367      351.60854    
     48240   1239.8257     -5235.6797     -4989.6805     -623.66021      74890.694      351.77643    
     48250   1236.1629     -5234.6506     -4989.3782     -580.98748      74898.074      351.91123    
     48260   1234.4411     -5234.1669     -4989.2361     -518.50793      74901.74       352.02304    
     48270   1232.4528     -5233.7754     -4989.2391     -456.82941      74902.04       352.12516    
     48280   1227.2692     -5232.8815     -4989.3737     -364.55923      74899.344      352.22865    
     48290   1225.6738     -5232.8181     -4989.6269     -307.37194      74894.172      352.33978    
     48300   1231.6652     -5234.3763     -4989.9963     -323.62086      74886.8        352.45963    
     48310   1238.3399     -5236.2166     -4990.5122     -297.93442      74877.151      352.58527    
     48320   1237.3623     -5236.7183     -4991.2079     -229.90678      74865.348      352.71309    
     48330   1230.1002     -5236.1635     -4992.094      -98.626871      74851.828      352.84094    
     48340   1222.6679     -5235.7478     -4993.153       13.696611      74837.374      352.97136    
     48350   1220.2355     -5236.4886     -4994.3764      52.505348      74822.7        353.11082    
     48360   1222.2315     -5238.2728     -4995.7646      0.31417198     74808.053      353.26653    
     48370   1226.2542     -5240.6283     -4997.3219     -119.64685      74793.133      353.44062    
     48380   1231.2602     -5243.3287     -4999.0291     -319.71214      74777.105      353.6282     
     48390   1231.5805     -5245.1887     -5000.8255     -509.94049      74758.678      353.81967    
     48400   1220.516      -5244.7474     -5002.5796     -584.37057      74736.608      354.00584    
     48410   1200.7211     -5242.3484     -5004.1081     -584.01741      74710.298      354.18333    
     48420   1183.5437     -5240.113      -5005.281      -594.92401      74679.601      354.35216    
     48430   1176.4649     -5239.5015     -5006.074      -652.49411      74644.365      354.51065    
     48440   1178.0859     -5240.3108     -5006.5617     -735.29894      74604.208      354.65445    
     48450   1184.5558     -5241.8866     -5006.8538     -805.43489      74558.523      354.77986    
     48460   1192.9076     -5243.725      -5007.035      -775.55187      74506.822      354.88459    
     48470   1197.2707     -5244.7174     -5007.1618     -703.52115      74449.192      354.96684    
     48480   1198.3601     -5245.0334     -5007.2616     -576.17016      74386.093      355.02418    
     48490   1200.5687     -5245.5549     -5007.3449     -441.07473      74318.283      355.05503    
     48500   1202.3367     -5245.9794     -5007.4185     -283.86749      74246.667      355.05929    
     48510   1205.1083     -5246.6023     -5007.4916     -196.61421      74172.2        355.03686    
     48520   1212.0341     -5248.0631     -5007.5782     -179.0625       74095.516      354.98688    
     48530   1219.5347     -5249.6777     -5007.7046     -140.49092      74016.848      354.91008    
     48540   1220.7657     -5250.1183     -5007.9009     -56.656143      73936.505      354.81153    
     48550   1215.9184     -5249.4258     -5008.1701      45.320023      73855.083      354.69668    
     48560   1210.7316     -5248.7274     -5008.5009      144.02157      73773.322      354.5685     
     48570   1205.5918     -5248.0803     -5008.8736      220.89344      73691.922      354.42982    
     48580   1200.4481     -5247.4625     -5009.2764      238.28975      73611.421      354.28542    
     48590   1197.2642     -5247.2432     -5009.6888      257.24812      73532.058      354.1398     
     48600   1192.9357     -5246.7902     -5010.0946      324.23897      73454.07       353.99634    
     48610   1185.7172     -5245.7366     -5010.4733      390.21103      73377.941      353.85792    
     48620   1180.6118     -5245.0565     -5010.8062      395.64186      73304.123      353.72503    
     48630   1184.1078     -5246.0222     -5011.0783      344.0531       73232.695      353.59393    
     48640   1190.9832     -5247.6105     -5011.3024      259.91999      73163.363      353.45949    
     48650   1197.4549     -5249.094      -5011.5018      261.70458      73095.735      353.31947    
     48660   1202.582      -5250.3124     -5011.7029      340.61119      73029.848      353.17702    
     48670   1204.5166     -5250.9104     -5011.9171      488.09716      72966.222      353.03892    
     48680   1202.7183     -5250.7888     -5012.1523      722.28326      72905.821      352.91242    
     48690   1200.782      -5250.6592     -5012.4068      959.35737      72850.087      352.80413    
     48700   1202.5611     -5251.2869     -5012.6815      1156.3302      72800.475      352.71892    
     48710   1208.0711     -5252.6884     -5012.9897      1297.3187      72758.183      352.66123    
     48720   1212.3359     -5253.9071     -5013.3623      1396.1801      72724.066      352.63472    
     48730   1209.757      -5253.8485     -5013.8154      1456.7353      72698.72       352.64226    
     48740   1204.2535     -5253.2842     -5014.343       1462.7868      72682.447      352.68412    
     48750   1201.6925     -5253.3658     -5014.9328      1439.4706      72675.265      352.75841    
     48760   1198.9992     -5253.4702     -5015.5716      1346.7309      72677.005      352.86632    
     48770   1193.7296     -5253.0992     -5016.2462      1222.1125      72687.12       353.01073    
     48780   1187.387      -5252.5309     -5016.9363      1109.3387      72704.855      353.19218    
     48790   1177.9324     -5251.3286     -5017.61        1004.0774      72729.474      353.40728    
     48800   1168.5201     -5250.0762     -5018.225       850.56288      72760.282      353.6503     
     48810   1166.9005     -5250.2754     -5018.7456      605.19439      72796.345      353.91443    
     48820   1173.4075     -5251.9834     -5019.1626      284.20056      72836.091      354.19301    
     48830   1182.2087     -5254.0565     -5019.4894     -21.623036      72877.532      354.48097    
     48840   1191.3911     -5256.1512     -5019.7622     -229.68776      72918.81       354.77371    
     48850   1196.2938     -5257.3817     -5020.0199     -341.15654      72958.62       355.06627    
     48860   1194.2811     -5257.2429     -5020.2804     -355.82221      72996.27       355.35466    
     48870   1185.4513     -5255.7517     -5020.5412     -271.72545      73031.67       355.63625    
     48880   1173.5432     -5253.62       -5020.7722     -118.1786       73065.349      355.9113     
     48890   1163.4706     -5251.7725     -5020.9232     -41.780647      73098.193      356.18174    
     48900   1160.6477     -5251.2418     -5020.9527     -80.817322      73130.664      356.44865    
     48910   1163.4636     -5251.6699     -5020.8221     -229.41307      73162.493      356.71236    
     48920   1166.9857     -5252.0621     -5020.5155     -373.1881       73192.802      356.97206    
     48930   1170.593      -5252.2855     -5020.0231     -467.00935      73220.706      357.22567    
     48940   1172.3517     -5251.942      -5019.3306     -479.22373      73245.646      357.46965    
     48950   1171.014      -5250.7661     -5018.4202     -435.82808      73267.54       357.70184    
     48960   1172.3049     -5249.8806     -5017.2785     -381.21676      73286.65       357.92402    
     48970   1178.9422     -5249.8231     -5015.9041     -295.20541      73303.338      358.13979    
     48980   1185.4796     -5249.5616     -5014.3455     -195.94162      73318.103      358.35416    
     48990   1187.7615     -5248.3539     -5012.685      -15.994557      73331.671      358.57204    
     49000   1188.2436     -5246.7784     -5011.0139      182.18553      73345.143      358.79852    
     49010   1192.7069     -5246.0599     -5009.4098      329.01172      73359.748      359.03664    
     49020   1203.8931     -5246.8088     -5007.9392      398.56086      73376.379      359.28698    
     49030   1213.0405     -5247.3497     -5006.6651      518.18473      73395.544      359.54887    
     49040   1213.4148     -5246.3767     -5005.6178      665.10629      73417.961      359.82098    
     49050   1206.7085     -5244.2076     -5004.7794      859.70186      73444.598      360.10179    
     49060   1201.1048     -5242.4154     -5004.099       950.00631      73476.575      360.38989    
     49070   1205.7473     -5242.7633     -5003.5258      916.29451      73514.507      360.68346    
     49080   1220.4111     -5245.1968     -5003.0497      705.5505       73558.141      360.98099    
     49090   1229.1014     -5246.5649     -5002.6936      525.72619      73606.285      361.28039    
     49100   1225.0727     -5245.5447     -5002.4727      409.382        73657.784      361.58121    
     49110   1217.8436     -5244          -5002.3624      350.74756      73711.872      361.88337    
     49120   1210.7728     -5242.5623     -5002.3276      334.10763      73768.215      362.187      
     49130   1201.5217     -5240.7323     -5002.3332      302.23211      73826.65       362.49343    
     49140   1192.2366     -5238.9016     -5002.3448      323.40756      73887.033      362.80779    
     49150   1188.2069     -5238.0879     -5002.3306      292.37238      73949.385      363.13972    
     49160   1189.3302     -5238.2538     -5002.2736      231.34302      74013.517      363.49755    
     49170   1192.2541     -5238.7339     -5002.1736      187.8473       74079.088      363.88497    
     49180   1196.3294     -5239.4084     -5002.0396      81.649146      74145.706      364.30258    
     49190   1206.3539     -5241.245      -5001.8871     -63.201701      74212.695      364.74869    
     49200   1217.4852     -5243.3159     -5001.7494     -159.50915      74279.172      365.21867    
     49210   1215.6144     -5242.8607     -5001.6654     -178.00495      74344.528      365.70698    
     49220   1202.184      -5240.1672     -5001.6367     -86.48574       74408.653      366.21001    
     49230   1191.5792     -5238.0498     -5001.6234      31.409488      74472.081      366.72697    
     49240   1190.6553     -5237.8235     -5001.5804      64.503361      74535.486      367.25826    
     49250   1196.0903     -5238.8221     -5001.5007      22.845269      74599.103      367.80132    
     49260   1205.5367     -5240.5902     -5001.3945     -45.847345      74662.684      368.35067    
     49270   1217.9735     -5242.9611     -5001.2977     -192.63431      74725.732      368.89886    
     49280   1228.5559     -5245.0243     -5001.2612     -325.03661      74787.361      369.43579    
     49290   1231.8371     -5245.7545     -5001.3404     -387.93649      74846.712      369.95042    
     49300   1227.7148     -5245.1627     -5001.5665     -419.298        74903.34       370.4316     
     49310   1221.5588     -5244.327      -5001.9523     -483.37963      74956.978      370.86858    
     49320   1216.2806     -5243.8217     -5002.4942     -529.35603      75007.26       371.25546    
     49330   1207.2563     -5242.7281     -5003.1912     -560.32899      75053.895      371.59518    
     49340   1196.9983     -5241.5259     -5004.0243     -596.3378       75096.692      371.89724    
     49350   1191.7054     -5241.4178     -5004.9664     -661.70054      75135.383      372.171      
     49360   1186.6127     -5241.4343     -5005.9934     -733.6929       75169.537      372.42114    
     49370   1174.1562     -5240.0336     -5007.0642     -726.2337       75198.743      372.64714    
     49380   1158.7891     -5238.0319     -5008.1115     -632.85815      75223.064      372.84849    
     49390   1149.9728     -5237.2328     -5009.CHGNet v0.3.0 initialized with 412,525 parameters
CHGNet will run on cuda:0
CHGNet will run on cuda:0
0617     -539.9718       75243.085      373.027      
     49400   1149.756      -5237.9963     -5009.8683     -488.05411      75259.405      373.18388    
     49410   1152.9226     -5239.2766     -5010.5203     -419.02712      75272.422      373.3174     
     49420   1153.9594     -5239.9761     -5011.014      -302.945        75282.642      373.42593    
     49430   1156.8592     -5240.8938     -5011.3564     -178.01003      75290.848      373.50922    
     49440   1164.7527     -5242.6501     -5011.5465     -105.16607      75297.818      373.56658    
     49450   1171.3446     -5244.0146     -5011.6031     -15.416743      75304.108      373.59673    
     49460   1175.1193     -5244.7123     -5011.5518      65.69468       75310.31       373.60177    
     49470   1180.4996     -5245.6252     -5011.3972      123.6391       75316.928      373.58805    
     49480   1183.7378     -5246.0149     -5011.1444      214.16417      75324.369      373.56352    
     49490   1179.164      -5244.7628     -5010.7998      342.9297       75333.246      373.53699    
     49500   1169.9623     -5242.4703     -5010.3331      515.47281      75344.432      373.51757    
     49510   1159.6158     -5239.7805     -5009.6961      675.31075      75359.041      373.51545    
     49520   1155.4496     -5238.0868     -5008.829       769.19807      75378.124      373.53979    
     49530   1162.7107     -5238.3896     -5007.6912      725.52345      75402.257      373.59646    
     49540   1178.0305     -5240.0295     -5006.2914      520.22289      75431.13       373.68576    
     49550   1189.4596     -5240.7085     -5004.7027      298.29741      75463.491      373.80204    
     49560   1194.4076     -5240.0233     -5003.0357      96.459052      75497.868      373.93907    
     49570   1197.3268     -5238.9624     -5001.3956     -91.699231      75532.88       374.09109    
     49580   1198.9225     -5237.7524     -4999.869      -226.83009      75567.307      374.25261    
     49590   1197.8884     -5236.1862     -4998.5079     -317.90204      75600.218      374.41859    
     49600   1196.1216     -5234.6572     -4997.3296     -393.75695      75630.979      374.58498    
     49610   1192.9919     -5233.0254     -4996.3187     -440.82622      75659.132      374.74913    
     49620   1191.6354     -5231.885      -4995.4475     -530.66779      75684.295      374.90953    
     49630   1195.5345     -5231.9        -4994.6889     -632.84592      75705.882      375.06243    
     49640   1200.4785     -5232.2238     -4994.0316     -743.69947      75723.192      375.20143    
     49650   1203.4173     -5232.2435     -4993.4683     -846.54619      75735.502      375.32066    
     49660   1205.8512     -5232.2523     -4992.9942     -957.01193      75742.088      375.41759    
     49670   1211.3286     -5232.943      -4992.5981     -1046.1299      75742.256      375.49115    
     49680   1221.5781     -5234.6686     -4992.29       -1191.1824      75735.312      375.5387     
     49690   1230.9611     -5236.3381     -4992.0978     -1287.894       75720.331      375.55489    
     49700   1233.8278     -5236.8512     -4992.0421     -1313.7717      75696.66       375.53609    
     49710   1231.4502     -5236.4692     -4992.1319     -1242.139       75664.126      375.48161    
     49720   1222.9837     -5235.0018     -4992.3444     -1087.408       75623.207      375.39553    
     49730   1210.2037     -5232.7628     -4992.6411     -828.72044      75574.977      375.28443    
     49740   1199.4996     -5230.9647     -4992.9668     -605.71319      75521.052      375.15606    
     49750   1196.6247     -5230.7109     -4993.2835     -421.3656       75462.954      375.0164     
     49760   1201.0321     -5231.8898     -4993.5878     -341.61104      75401.882      374.86894    
     49770   1205.0029     -5232.9847     -4993.8949     -268.30355      75338.436      374.71477    
     49780   1204.5919     -5233.2338     -4994.2255     -160.52606      75273.129      374.55599    
     49790   1201.3329     -5232.9353     -4994.5736     -39.932277      75206.691      374.39583    
     49800   1198.8605     -5232.8049     -4994.9338      26.821255      75139.864      374.23671    
     49810   1201.5965     -5233.719      -4995.305       36.976264      75073.119      374.07863    
     49820   1207.9782     -5235.3831     -4995.7029      28.196718      75006.564      373.91808    
     49830   1208.4575     -5235.9287     -4996.1534      46.074934      74940.169      373.74801    
     49840   1200.3999     -5234.8337     -4996.6572      169.77827      74874.128      373.56044    
     49850   1192.3194     -5233.7637     -4997.1904      296.55718      74809.192      373.35036    
     49860   1188.2527     -5233.4982     -4997.7318      308.55135      74746.105      373.11735    
     49870   1187.8913     -5233.9647     -4998.2701      265.67928      74685.002      372.86434    
     49880   1192.5632     -5235.4376     -4998.816       219.08495      74625.639      372.5962     
     49890   1196.4401     -5236.7776     -4999.3867      127.25527      74567.634      372.32075    
     49900   1194.2013     -5236.9534     -5000.0067      34.31437       74510.443      372.0463     
     49910   1191.2959     -5237.0435     -5000.6733     -58.67844       74453.458      371.77733    
     49920   1192.9985     -5238.1        -5001.392      -163.14549      74396.063      371.51418    
     49930   1194.1627     -5239.1122     -5002.1732     -253.59559      74337.583      371.25369    
     49940   1193.7292     -5239.8853     -5003.0323     -297.02948      74277.456      370.99257    
     49950   1193.1564     -5240.7133     -5003.9739     -338.00152      74215.374      370.72902    
     49960   1188.9753     -5240.9077     -5004.998      -340.35192      74151.09       370.46066    
     49970   1179.9245     -5240.1885     -5006.0746     -246.72128      74084.644      370.18586    
     49980   1172.4761     -5239.7959     -5007.1598     -126.95806      74016.621      369.90765    
     49990   1170.3887     -5240.4408     -5008.2189     -36.002713      73947.783      369.63176    
     50000   1168.7042     -5241.1205     -5009.2328      102.41741      73878.775      369.36177    
Loop time of 4580.18 on 1 procs for 20000 steps with 1536 atoms

Performance: 0.377 ns/day, 63.614 hours/ns, 4.367 timesteps/s, 6.707 katom-step/s
142.4% CPU use with 1 MPI tasks x 1 OpenMP threads

MPI task timing breakdown:
Section |  min time  |  avg time  |  max time  |%varavg| %total
---------------------------------------------------------------
Pair    | 4558.1     | 4558.1     | 4558.1     |   0.0 | 99.52
Bond    | 0.0065532  | 0.0065532  | 0.0065532  |   0.0 |  0.00
Neigh   | 4.6235     | 4.6235     | 4.6235     |   0.0 |  0.10
Comm    | 0.61364    | 0.61364    | 0.61364    |   0.0 |  0.01
Output  | 15.162     | 15.162     | 15.162     |   0.0 |  0.33
Modify  | 1.5191     | 1.5191     | 1.5191     |   0.0 |  0.03
Other   |            | 0.1497     |            |       |  0.00

Nlocal:           1536 ave        1536 max        1536 min
Histogram: 1 0 0 0 0 0 0 0 0 0
Nghost:           2207 ave        2207 max        2207 min
Histogram: 1 0 0 0 0 0 0 0 0 0
Neighs:              0 ave           0 max           0 min
Histogram: 1 0 0 0 0 0 0 0 0 0
FullNghs:        32070 ave       32070 max       32070 min
Histogram: 1 0 0 0 0 0 0 0 0 0

Total # of neighbors = 32070
Ave neighs/atom = 20.878906
Ave special neighs/atom = 0
Neighbor list builds = 2000
Dangerous builds = 2000
System init for write_data ...
System init for write_restart ...
Total wall time: 1:57:40
