LAMMPS data file via write_data, version 2 Aug 2023, timestep = 20000, units = metal

1536 atoms
2 atom types

-0.3362315720180913 25.471201972035885 xlo xhi
-0.3414270037499101 25.47639740376753 ylo yhi
-13.879934473663482 89.28484567371703 zlo zhi

Masses

1 35.45
2 39.0983

Atoms # full

8 0 1 -1 0.04655912956052077 2.5193472332815183 -13.726025759112586 0 0 0
392 0 1 -1 6.085966193475113 2.8336439642222215 -13.551497863177675 0 0 0
4 0 2 1 3.182955553046117 2.652056448122579 -13.77916091950782 0 0 0
769 0 2 1 12.673006080335101 -0.16566981343937018 -13.594535420078442 0 0 0
773 0 1 -1 15.750133745493171 -0.16767891493373793 -13.829517631595651 0 0 0
1160 0 1 -1 19.022082612481434 2.7035514706327346 -13.596250573049709 0 0 0
97 0 2 1 -0.18612835175002368 5.834982407210624 -13.685260145950899 0 0 0
101 0 1 -1 3.0061456369747472 6.0363298806922625 -13.672321111912709 0 0 0
388 0 2 1 9.207622030141223 3.0144940754142127 -13.629631543547378 0 0 0
481 0 2 1 6.504417142231837 6.03233011838522 -13.796467265355679 0 0 0
485 0 1 -1 9.489210913994121 5.999289446085445 -13.824723156419754 0 0 0
868 0 2 1 16.250394355642882 9.324109794072307 -13.715363347165628 0 0 0
1252 0 2 1 22.518396187895874 9.023793241503295 -13.72520687392768 0 0 0
193 0 2 1 -0.163062815100744 12.558300372894646 -13.791187839968254 0 0 0
197 0 1 -1 3.0017551446993873 12.516071809078968 -13.749821015354337 0 0 0
488 0 1 -1 6.27373943340897 9.423138651483233 -13.842284904573708 0 0 0
1256 0 1 -1 19.49827488543675 9.653127104255015 -13.816375013910932 0 0 0
1349 0 1 -1 22.460706355745884 12.244522569505069 -13.847585979765604 0 0 0
200 0 1 -1 -0.19075231277752905 15.663133304345465 -13.76707330516939 0 0 0
196 0 2 1 2.983437264149588 15.623449210828307 -13.858041226928897 0 0 0
584 0 1 -1 6.43646169104202 15.567316274810452 -13.823275870866322 0 0 0
965 0 1 -1 16.289762742747506 12.66333621350046 -13.86416675897091 0 0 0
289 0 2 1 0.025514188428967743 18.79456943561139 -13.613627094881709 0 0 0
580 0 2 1 9.402252458722323 16.077583679723205 -13.400902492679245 0 0 0
1057 0 2 1 12.598199228559517 18.843635757066675 -13.854321847942376 0 0 0
968 0 1 -1 12.591489012602496 15.81243003475294 -13.763061752518473 0 0 0
1061 0 1 -1 15.5738799274978 18.962834630950656 -13.621368226951306 0 0 0
964 0 2 1 15.874876194915592 15.83416986407778 -13.562430224805757 0 0 0
292 0 2 1 3.0651258893038618 21.846441069198466 -13.800835030013527 0 0 0
680 0 1 -1 6.0687846457918555 22.010284715853974 -13.719046284087229 0 0 0
677 0 1 -1 9.121758974440445 19.220788860467643 -13.86486473862059 0 0 0
1441 0 2 1 19.197914507088555 19.42855926680331 -13.65266324192078 0 0 0
1444 0 2 1 22.2461951513193 22.008003843581427 -13.765482843422784 0 0 0
1 0 2 1 -0.294001018264008 25.32960942518132 -13.784173708260736 0 -1 0
385 0 2 1 6.189255014167319 25.15152740707112 -13.77963889372086 0 -1 0
1064 0 1 -1 12.577399318097683 22.492261339850856 -13.84680695944665 0 0 0
1060 0 2 1 15.83493817292455 22.547455324957216 -13.822274970429138 0 0 0
1157 0 1 -1 22.488375382389933 25.163056165369742 -13.818610638362813 0 -1 0
2 0 2 1 -0.12282285314112126 2.8612290655342476 -9.577064161588966 0 0 0
6 0 1 -1 3.2452836130985485 2.5309547216887256 -9.530685871451622 0 0 0
386 0 2 1 6.487754736785419 2.691474776792436 -9.319584494508003 0 0 0
771 0 2 1 16.009952691592375 -0.2446525624670539 -9.301776520569774 0 0 0
1154 0 2 1 19.127477077905937 2.7388332155678374 -9.569664610708093 0 0 0
1158 0 1 -1 22.371575581002396 2.7013581339377013 -9.703727597615186 0 0 0
103 0 1 -1 -0.2417812033032523 5.990197067471886 -9.517210677061207 0 0 0
99 0 2 1 3.0891693278467494 5.848824571385199 -9.61199183816466 0 0 0
487 0 1 -1 6.584420028403932 5.91986999070717 -9.577875721604636 0 0 0
390 0 1 -1 9.802582062517434 2.9685803378138336 -9.427724455367049 0 0 0
770 0 2 1 12.728406150344064 2.9627137798858136 -9.379247969154983 0 0 0
774 0 1 -1 16.095737557036443 2.971044193742852 -9.793508300987344 0 0 0
1255 0 1 -1 19.18933531333242 6.101062108581852 -10.085837186144504 0 0 0
1251 0 2 1 22.426208547852056 5.915852610173561 -9.813952290626489 0 0 0
98 0 2 1 -0.13614887492777264 9.083816941289376 -10.107339171235212 0 0 0
102 0 1 -1 3.0373333532112428 9.082231423475106 -9.879909824437759 0 0 0
482 0 2 1 6.107356858881208 9.076157490683647 -9.52444083436907 0 0 0
483 0 2 1 9.560103731661933 6.22024198857114 -9.784760735860125 0 0 0
486 0 1 -1 9.499061205811143 9.176520253138747 -9.781896745023577 0 0 0
871 0 1 -1 12.66439260334685 6.328422086552099 -9.783142915383099 0 0 0
867 0 2 1 16.010484043146697 6.248489601872026 -9.96966421916299 0 0 0
1254 0 1 -1 22.31346249309884 9.26718685281046 -9.5855789541165 0 0 0
199 0 1 -1 -0.08109364680005698 12.151260566562142 -9.903893690871573 0 0 0
195 0 2 1 3.1618506678460614 12.392194573324746 -9.576808256921666 0 0 0
583 0 1 -1 6.254714722979816 12.40232179729818 -9.73143139532809 0 0 0
579 0 2 1 9.327992575285034 12.419081429055936 -9.621874148704268 0 0 0
866 0 2 1 12.796518544519834 9.470548680481611 -9.103436573567887 0 0 0
870 0 1 -1 16.227650002447547 9.395670497258427 -9.518191699517804 0 0 0
1250 0 2 1 19.430683695551807 9.654319717337822 -9.596370594416069 0 0 0
1347 0 2 1 22.547710932184586 12.51810818717131 -9.707500799251859 0 0 0
194 0 2 1 -0.20959261769263982 15.747080765977188 -9.604945372193987 0 0 0
198 0 1 -1 2.999552547888348 15.536767579703888 -9.518764360172122 0 0 0
578 0 2 1 6.382678530441504 15.63077393187655 -9.333758443753474 0 0 0
967 0 1 -1 12.969281654449507 12.793342538706614 -9.187665916885965 0 0 0
962 0 2 1 12.597444823357492 15.64558350280377 -9.309352246844256 0 0 0
963 0 2 1 15.972587480562007 12.850293065349641 -9.54335492216946 0 0 0
1351 0 1 -1 19.57009981659509 12.628841868983981 -9.911003283537996 0 0 0
1346 0 2 1 19.294220108094045 15.673588827585522 -9.825502439367934 0 0 0
295 0 1 -1 0.06499903355071357 18.82319456771495 -9.281614304337463 0 0 0
291 0 2 1 3.245709119832171 18.73752367218788 -9.73652643431494 0 0 0
675 0 2 1 9.319757852798928 18.884735821025515 -9.78799839335086 0 0 0
679 0 1 -1 6.253999572167897 18.81462124060902 -9.702225890370656 0 0 0
582 0 1 -1 9.378343682936439 15.936562186530924 -9.158615227928577 0 0 0
966 0 1 -1 16.250724196298208 16.067310898989227 -9.616439531427957 0 0 0
1447 0 1 -1 19.17576729049567 18.875569247260312 -9.42260505883536 0 0 0
1350 0 1 -1 22.464440769985757 15.817446483535559 -9.849201963202557 0 0 0
294 0 1 -1 2.9087973236765308 22.049494626955465 -9.65152417255949 0 0 0
674 0 2 1 6.2708582564106035 22.211848814088146 -9.270207231027442 0 0 0
678 0 1 -1 9.506688101730509 22.21926505825082 -9.972747400571462 0 0 0
1063 0 1 -1 12.353025416547723 19.29777167388825 -9.421499515363603 0 0 0
1058 0 2 1 12.633470611739307 22.176659246105604 -9.785453843534064 0 0 0
1059 0 2 1 15.687613943647486 19.098871305851258 -9.541379164750474 0 0 0
1062 0 1 -1 16.03095361049276 22.102244389308403 -9.326201243057346 0 0 0
290 0 2 1 25.46228679698003 22.142104694307015 -10.028269269772695 -1 0 0
1443 0 2 1 22.318060873843542 19.197713933536164 -9.363930240164704 0 0 0
7 0 1 -1 -0.14112726150527855 25.19725040338573 -9.845637362777175 0 -1 0
3 0 2 1 2.9569965598715306 25.158890580943154 -9.853853712300985 0 -1 0
391 0 1 -1 6.263127905711598 25.435314955938956 -9.45241709900595 0 -1 0
387 0 2 1 9.86228653708824 25.227236186107014 -9.96078647565119 0 -1 0
775 0 1 -1 12.909384848099217 25.420827789743186 -9.538860701031211 0 -1 0
1442 0 2 1 19.19339239004821 22.37345527707284 -8.829241516734447 0 0 0
1159 0 1 -1 19.100067091420087 25.248203286803047 -9.265618090887521 0 -1 0
1446 0 1 -1 22.07956847398168 22.253005338136088 -9.54603256223884 0 0 0
1155 0 2 1 22.523993100304374 25.474148787819434 -9.187221881440685 0 -1 0
9 0 2 1 -0.2624513729094081 -0.30281545040839764 -4.728296996272697 0 0 0
12 0 2 1 3.193179772821588 2.7162138910293883 -5.332736861106344 0 0 0
396 0 2 1 9.497425490254459 2.8507099717660123 -5.418995031989404 0 0 0
397 0 1 -1 9.535885563568078 -0.32766878190261345 -5.483354378852411 0 0 0
777 0 2 1 12.330794208755254 0.00830533636197478 -4.898236445029312 0 0 0
781 0 1 -1 15.675729301803335 -0.010466536115536162 -5.023109893844495 0 0 0
1161 0 2 1 19.349866582410257 -0.17617332163613775 -4.705872821385583 0 0 0
1165 0 1 -1 22.31790354559419 -0.28227357173179174 -4.8869576642438375 0 0 0
16 0 1 -1 -0.28361389199441633 2.9005182157876273 -5.242167547802659 0 0 0
109 0 1 -1 3.0614703145115403 5.750633760927514 -5.32844666479531 0 0 0
489 0 2 1 6.215533094536998 5.890250256679404 -5.319903066353575 0 0 0
400 0 1 -1 6.4851187351295785 2.9529882956865436 -4.995074351592434 0 0 0
493 0 1 -1 9.347903388737395 5.995408439031029 -5.572001266254778 0 0 0
784 0 1 -1 12.846306099873097 3.1828551403608536 -5.436594342250137 0 0 0
780 0 2 1 15.949940499055602 2.949120215839009 -5.293078412300815 0 0 0
1168 0 1 -1 19.18513460166441 3.1370761726880425 -5.288953441277309 0 0 0
1261 0 1 -1 22.641096765167127 5.992608729219235 -5.813780569189536 0 0 0
1164 0 2 1 22.571096474736045 2.915534095241401 -5.461159645059322 0 0 0
112 0 1 -1 -0.24696614802557487 9.124603271230729 -5.541214604421233 0 0 0
105 0 2 1 -0.051278932964869905 6.194230551604478 -5.186344440017679 0 0 0
108 0 2 1 2.89955798800576 9.113526874120518 -5.458543905245049 0 0 0
496 0 1 -1 6.219519260104933 9.047190397152223 -5.539144861308699 0 0 0
492 0 2 1 9.615294812349815 9.210853863421933 -5.43041349418929 0 0 0
873 0 2 1 12.729993502231757 6.218309804977107 -5.530367335731393 0 0 0
877 0 1 -1 15.834361122083065 6.171552117148741 -5.344233830366569 0 0 0
1257 0 2 1 18.885432097413435 6.236322026754836 -5.360092727765277 0 0 0
876 0 2 1 15.917066882393145 9.30655641215019 -5.434992414141414 0 0 0
1264 0 1 -1 19.017394575287156 9.242793334023764 -5.476530033824179 0 0 0
1260 0 2 1 22.323590688784336 8.917697145035365 -5.4790097872858485 0 0 0
201 0 2 1 -0.2155005396717214 12.217302872769215 -5.4505722186071655 0 0 0
205 0 1 -1 3.0195790752624414 11.980928569448695 -5.546312058476618 0 0 0
589 0 1 -1 9.159238451214923 12.235721194109257 -5.184967305798187 0 0 0
585 0 2 1 6.1773570417218915 12.31942357190993 -5.073921227959191 0 0 0
969 0 2 1 12.66930454240246 12.51916136801692 -5.1763142806524165 0 0 0
880 0 1 -1 12.73786783720324 9.427839419323018 -5.19947825788217 0 0 0
1353 0 2 1 19.377076868800494 12.439232183006244 -5.616977083055136 0 0 0
1357 0 1 -1 22.644295462711142 12.460037477005287 -5.497777246606249 0 0 0
204 0 2 1 3.011120931081213 15.49085761966297 -5.497050626091449 0 0 0
592 0 1 -1 6.556561604781557 15.558460673802582 -5.245562109190059 0 0 0
588 0 2 1 9.474501291341333 15.789781722703214 -4.912223903289679 0 0 0
976 0 1 -1 12.611374583835659 15.598169165630846 -5.1208107411678725 0 0 0
972 0 2 1 15.932399262791952 15.692319757137692 -5.4501423530690705 0 0 0
973 0 1 -1 16.239482044297112 12.624303392108347 -5.108762121048693 0 0 0
208 0 1 -1 25.46428660683108 15.348355096154712 -5.574515950220881 -1 0 0
301 0 1 -1 3.0913125114963864 18.782094930011983 -5.039664761265001 0 0 0
1065 0 2 1 12.45809250046216 18.787664493641376 -4.991886979003709 0 0 0
1069 0 1 -1 15.615556632600581 18.85014672792901 -5.40604635595191 0 0 0
1360 0 1 -1 19.32448034506521 15.819357447883885 -5.693216514560879 0 0 0
1356 0 2 1 22.593709583572817 15.80161948674142 -5.866034484014188 0 0 0
297 0 2 1 0.0438121731012413 19.388447102474892 -5.059684760102446 0 0 0
300 0 2 1 2.9990108654209426 22.221865048890077 -5.227325428370833 0 0 0
685 0 1 -1 9.147090504529029 19.175946206406532 -5.4813958574927195 0 0 0
681 0 2 1 6.200348634439124 19.10518419328208 -5.1623720776564905 0 0 0
684 0 2 1 9.439633731714173 22.208320968197665 -5.43078768498251 0 0 0
1449 0 2 1 18.87371400355616 19.126948719891917 -5.367671041270487 0 0 0
1453 0 1 -1 22.35881358854722 19.274526649874886 -5.105736367445864 0 0 0
304 0 1 -1 -0.19667327216162142 22.33707468237657 -5.164077298353181 0 0 0
13 0 1 -1 2.9632999866220042 25.326473680257568 -4.940529235870054 0 -1 0
688 0 1 -1 6.320211822604466 22.287336391604978 -5.124271039901803 0 0 0
393 0 2 1 6.260554962923295 25.331855965827664 -4.824380056902255 0 -1 0
1072 0 1 -1 12.514653430425632 22.3924106898118 -5.222857748342021 0 0 0
1068 0 2 1 15.577868364577247 22.580645098033337 -4.954731160646471 0 0 0
1456 0 1 -1 19.260149644627404 22.264633654178027 -4.74477405082704 0 0 0
1452 0 2 1 22.45202665129227 22.454915841990612 -5.577479199779571 0 0 0
11 0 2 1 2.9373299797262526 -0.22309662425342902 -0.7764455223181805 0 0 0
394 0 2 1 5.797034465289639 2.3432629793096518 -0.8685845301778112 0 0 0
783 0 1 -1 12.535850303223175 -0.2445930816858497 -0.49581366462488496 0 0 0
779 0 2 1 15.722113038806837 -0.021617930501655114 -0.42130811425831816 0 0 0
1166 0 1 -1 22.214674571296705 2.7696055344826243 -0.7547459423861529 0 0 0
14 0 1 -1 2.7626596866716824 2.9163171359829145 -0.9393979499656595 0 0 0
495 0 1 -1 6.059888618749931 5.789646461629551 -0.8156719611549459 0 0 0
491 0 2 1 9.101868909187614 5.922081129755304 -1.0245427696043077 0 0 0
398 0 1 -1 9.576420668889378 2.9144519416895696 -0.9068450864486604 0 0 0
879 0 1 -1 12.7802680232869 6.012457487374431 -1.3582754398854746 0 0 0
778 0 2 1 12.727725205142109 2.8948802869727905 -0.9901557545066275 0 0 0
782 0 1 -1 16.245386257494488 2.9999273177135546 -0.9146281843128587 0 0 0
1162 0 2 1 19.06852742169498 3.1044795501632008 -1.1926409589478464 0 0 0
1259 0 2 1 22.490808765416773 6.093644654740638 -1.5162758745818223 0 0 0
10 0 2 1 25.45710859874042 2.940860929115233 -0.8473236568319837 -1 0 0
111 0 1 -1 -0.08824225020493698 6.140644849190451 -0.8569205557433346 0 0 0
110 0 1 -1 3.101762357390066 9.160556672441896 -1.0611457161843472 0 0 0
107 0 2 1 2.9788017717758066 6.1930400426684775 -0.9223728422561148 0 0 0
490 0 2 1 6.272802728222277 8.961819964671106 -1.0699853252514675 0 0 0
494 0 1 -1 9.4360073209203 9.042042303444761 -0.857488927489209 0 0 0
874 0 2 1 12.71116663235589 9.196232312639093 -1.1706884419930006 0 0 0
875 0 2 1 16.083871066838277 6.335255701286874 -0.9590157358996123 0 0 0
1263 0 1 -1 19.119271272300928 6.427279580528485 -0.908699808428711 0 0 0
106 0 2 1 -0.03360140465003203 9.35334744236419 -1.1354451290138226 0 0 0
207 0 1 -1 -0.13101440323811733 12.503167682230888 -1.4151565231977141 0 0 0
203 0 2 1 2.9715933359628415 12.20860373481739 -0.781893317201872 0 0 0
587 0 2 1 9.306060924863282 12.360361271912828 -1.1228304001461815 0 0 0
591 0 1 -1 6.189154011820302 12.381350650843748 -0.7192269265322508 0 0 0
878 0 1 -1 15.71753787359584 9.490872653926992 -0.7809903558957778 0 0 0
1258 0 2 1 19.05829132232123 9.49325126965939 -1.2569555143990954 0 0 0
1355 0 2 1 22.803256601897623 12.496351470929 -1.1156945162243783 0 0 0
1262 0 1 -1 22.61993074183612 9.359842888873663 -0.9871726468694213 0 0 0
206 0 1 -1 2.8507940810220993 15.280313245821693 -1.0435087942141639 0 0 0
586 0 2 1 6.316035250012919 15.66983455910027 -1.2173743085531044 0 0 0
590 0 1 -1 9.59122323480897 15.682861295711568 -1.417337556116097 0 0 0
975 0 1 -1 12.749907606982253 12.642946246976635 -0.6592559902144064 0 0 0
970 0 2 1 12.749368155851231 15.629076350777039 -0.9758500960686582 0 0 0
1359 0 1 -1 18.927133070198884 12.763393967727188 -1.0329881612648624 0 0 0
971 0 2 1 15.863098747904525 12.797711741255494 -0.9508340847131045 0 0 0
1358 0 1 -1 22.109979388712773 15.600357593030283 -1.5855156268179105 0 0 0
202 0 2 1 25.42815073374163 15.58225760891854 -1.1041279452671091 -1 0 0
303 0 1 -1 -0.3112129311765484 18.72759102017563 -0.9308430233049201 0 0 0
299 0 2 1 2.9970881173137274 18.791018473223144 -0.5770745970222428 0 0 0
687 0 1 -1 6.224836226675575 18.944401500748064 -0.7891782145602928 0 0 0
1354 0 2 1 18.819792580323913 15.85879129838808 -1.4758222653914945 0 0 0
974 0 1 -1 15.92228849019311 15.944206289163379 -1.2021076784644773 0 0 0
1455 0 1 -1 18.85888017910885 18.88966270437739 -0.9015532015973644 0 0 0
1451 0 2 1 21.834637782220256 18.729430084051423 -1.4072532283792754 0 0 0
302 0 1 -1 2.9305160039043403 22.003101436903155 -1.1371633224139277 0 0 0
686 0 1 -1 9.221949483216294 22.15923045698358 -0.9856320075112528 0 0 0
682 0 2 1 6.290920514431868 22.090084703937556 -0.9185978860840684 0 0 0
683 0 2 1 9.473948313020522 19.37102088295704 -1.4058956230172015 0 0 0
1071 0 1 -1 12.647698155907936 19.161273029601332 -1.1652496149817217 0 0 0
1067 0 2 1 15.776078252753285 19.20173773500604 -1.3983356433811327 0 0 0
395 0 2 1 9.263923156444397 25.3307882978706 -1.094366963224049 0 -1 0
399 0 1 -1 6.14411479919399 25.258628109335454 -0.7811703191008732 0 -1 0
1066 0 2 1 12.592696598027956 22.417749768001688 -0.9456046921609982 0 0 0
1070 0 1 -1 15.717378835537234 22.441656472223812 -0.8694205563107147 0 0 0
1450 0 2 1 18.996076459051196 22.316206400213545 -0.12012718508632858 0 0 0
1167 0 1 -1 19.18046351597291 25.308689547174918 -0.7058941944859392 0 -1 0
1454 0 1 -1 22.187565004912678 22.278889400846598 -0.7416220311163233 0 0 0
298 0 2 1 25.309453212873834 22.363016688807445 -0.7266616446101608 -1 0 0
15 0 1 -1 25.385625730047245 25.23124425888643 -0.6695285701848803 -1 -1 0
1163 0 2 1 22.30433926368073 25.416541917777508 -0.7143271503839763 0 -1 0
401 0 2 1 6.106614036352766 -0.20287297960237563 3.685638315685587 0 0 0
405 0 1 -1 9.358806366135413 -0.31561099209040133 3.340234351533212 0 0 0
1169 0 2 1 19.16011750366976 -0.15804231107115466 3.510986522255653 0 0 0
1173 0 1 -1 22.186002247687895 -0.0594257476934989 3.3218195998304054 0 0 0
24 0 1 -1 25.217421178098732 2.817412693038663 3.5242615665991117 -1 0 0
17 0 2 1 25.254339903128056 -0.20116922972475457 3.734303519403248 -1 0 0
20 0 2 1 2.662934226845656 2.9596590443076662 3.3896056698307007 0 0 0
408 0 1 -1 6.098038735468857 3.027820780881516 3.588065974246831 0 0 0
501 0 1 -1 9.292262056074543 6.027398209686163 3.081368195944048 0 0 0
404 0 2 1 9.25494769938869 3.004950698553449 3.3210480302135146 0 0 0
788 0 2 1 15.61334907886087 2.9542544985961086 3.2919885788696455 0 0 0
792 0 1 -1 12.658441101077246 3.240588515646289 3.4787360696098304 0 0 0
1176 0 1 -1 18.862534721982385 3.266012359950054 3.433155077494874 0 0 0
1269 0 1 -1 22.190199696168953 6.111794920645871 2.931763320741954 0 0 0
1172 0 2 1 22.053944331507566 3.069829815336693 3.3143575746143057 0 0 0
117 0 1 -1 2.94911371647682 6.255653576159311 3.0993117857023194 0 0 0
116 0 2 1 3.241601768690782 9.234816277271298 3.475104756826859 0 0 0
497 0 2 1 6.265276311700093 6.133954171263027 3.447623917447558 0 0 0
884 0 2 1 15.618556425982666 9.295051674721348 3.2833908012526116 0 0 0
881 0 2 1 12.61468232784961 6.2759874173417005 3.256768544713779 0 0 0
885 0 1 -1 15.778051325918353 6.200995611726372 3.2583722059085325 0 0 0
1265 0 2 1 18.978048249856087 6.352947310242984 3.3986342585121285 0 0 0
120 0 1 -1 25.382891529567694 9.293316301274976 3.124245543391652 -1 0 0
113 0 2 1 25.358975720317325 6.174585334025073 3.101894529220189 -1 0 0
504 0 1 -1 6.261948062760911 9.362921920581744 3.2132309682668456 0 0 0
888 0 1 -1 12.334155994414413 9.399905618999872 2.9870421213605454 0 0 0
500 0 2 1 9.3560887376726 9.58381972150722 3.128704560314766 0 0 0
1272 0 1 -1 19.222424130633527 9.599632677300558 3.173381213298949 0 0 0
1268 0 2 1 22.349929564355115 9.50312807295958 3.7137746984805204 0 0 0
209 0 2 1 -0.20941854750567027 12.682940308255873 3.0128588936958316 0 0 0
213 0 1 -1 3.0028228865122584 12.701757993557063 3.814786263330742 0 0 0
600 0 1 -1 5.813276521980607 15.743499236136124 3.380553048417447 0 0 0
593 0 2 1 6.117571541349598 12.736126801737448 3.4497488542731602 0 0 0
597 0 1 -1 9.215036074960544 12.666447685015177 3.3924206758480473 0 0 0
977 0 2 1 12.545395737513404 12.623198453909016 3.289433985064637 0 0 0
984 0 1 -1 12.850588503974203 15.776432581954452 3.045129789905115 0 0 0
1361 0 2 1 19.014535362791783 12.892088299109911 3.0046633523794455 0 0 0
981 0 1 -1 15.990853881970475 12.763114527451943 3.39111410611363 0 0 0
1365 0 1 -1 22.247061619561784 12.75219477094513 2.945039192006117 0 0 0
212 0 2 1 2.6990587404516937 15.998898424524931 3.1746462782031095 0 0 0
689 0 2 1 6.120329992655652 18.943685120346718 3.537356937247228 0 0 0
596 0 2 1 9.479568283324387 15.821216939313935 3.5115244594427395 0 0 0
1073 0 2 1 12.747853317377288 19.000071134766237 3.2467550690348297 0 0 0
1077 0 1 -1 15.777071452758166 18.972457034181975 3.227679234889397 0 0 0
980 0 2 1 16.010253194116515 15.834654762034138 3.467901022991292 0 0 0
1368 0 1 -1 18.860355849169636 15.94886807603715 3.5793932104832216 0 0 0
1364 0 2 1 22.11261391155461 15.889435549906064 3.2815451592117455 0 0 0
1461 0 1 -1 22.03103226993948 18.940188376908864 3.5583670518302988 0 0 0
216 0 1 -1 25.23875227353222 15.876698187260281 3.635512573438504 -1 0 0
305 0 2 1 -0.29461480870729395 19.128745304922113 3.1260735125659664 0 0 0
309 0 1 -1 2.8115316795060536 19.162162716973867 3.3466318536602877 0 0 0
696 0 1 -1 6.044754222752151 22.071781585258933 3.007540542952423 0 0 0
308 0 2 1 2.8991639032149927 22.236008220449364 3.6052564953434043 0 0 0
693 0 1 -1 9.31953891981405 19.065404373977355 3.20467276856062 0 0 0
692 0 2 1 9.110170542306271 22.151323267360137 3.44942580955324 0 0 0
1080 0 1 -1 12.189751636393625 22.17810772832116 3.2027797225996615 0 0 0
1457 0 2 1 18.902165642783196 19.033060677942505 3.455466536075999 0 0 0
21 0 1 -1 2.674127186189395 25.315740996111103 3.336354666302803 0 -1 0
1076 0 2 1 15.848375004548265 22.314368714271634 3.33267829148917 0 0 0
789 0 1 -1 16.009439700401735 25.476289610391287 3.466311983410108 0 -1 0
1460 0 2 1 22.332186261214297 22.283445290318735 3.3048994317828075 0 0 0
312 0 1 -1 25.3327443272482 22.29878797688298 3.4117051430428376 -1 0 0
402 0 2 1 6.0863164041195805 2.6475765525837387 7.437295997936303 0 0 0
785 0 2 1 12.533627337864786 -0.2660186087225733 3.9390476990447176 0 0 0
790 0 1 -1 15.655842667070857 2.8148629020843825 7.431578079708011 0 0 0
883 0 2 1 15.831359911852209 5.984219709136469 7.301276984069805 0 0 0
1267 0 2 1 22.117779652313445 5.819553048817471 7.323575347487992 0 0 0
115 0 2 1 3.02719249765202 6.284686063345124 7.224357702969041 0 0 0
887 0 1 -1 12.513271466210549 6.260485165400641 7.427671992595837 0 0 0
599 0 1 -1 5.892648027528144 12.458000479822212 7.336379192886188 0 0 0
498 0 2 1 6.3302287786537645 9.362232529227079 7.225237215263569 0 0 0
882 0 2 1 12.563073408165529 9.404091853733606 7.249935289114177 0 0 0
978 0 2 1 12.47222747401842 15.94968701206967 7.441051976240271 0 0 0
691 0 2 1 9.145010479012527 19.029500645508957 7.351366852741833 0 0 0
1464 0 1 -1 18.9073349954341 22.073534907108414 3.9984553149402764 0 0 0
22 0 1 -1 2.5987577903300823 2.814718142021906 7.534102149721566 0 0 0
403 0 2 1 9.228294958041884 -0.24821388027335406 7.582446465213092 0 0 0
791 0 1 -1 12.388706566884759 -0.12020331991193264 8.037362029954028 0 0 0
787 0 2 1 15.463593271719775 -0.0030548849770306585 8.466972129076243 0 0 0
1175 0 1 -1 18.696905136920996 -0.23099356632007606 7.877899993076522 0 0 0
1170 0 2 1 18.92017065236098 2.7349103801181887 7.79781178541052 0 0 0
1171 0 2 1 22.02764985891909 -0.1848837628565976 7.6908938613353754 0 0 0
1174 0 1 -1 22.110011505662307 2.7104854276862858 7.682332574313726 0 0 0
18 0 2 1 25.26186352947915 2.6559481155992013 7.837642306867306 -1 0 0
119 0 1 -1 -0.2873954720559667 5.930364899897921 7.536463626668308 0 0 0
406 0 1 -1 9.029008418074307 3.1550862136050144 7.686087610933409 0 0 0
786 0 2 1 12.458513599373125 2.9540476873811463 7.864877210771038 0 0 0
499 0 2 1 9.131177779364867 6.442607018504725 7.508623837072015 0 0 0
503 0 1 -1 6.173673644983851 6.161222428681605 7.6572582724322835 0 0 0
886 0 1 -1 15.877951199395577 9.337205731313373 7.4679004388802035 0 0 0
1271 0 1 -1 19.01908398352206 6.1445296734850565 7.69533637788394 0 0 0
1266 0 2 1 19.539211099900527 9.132797719406813 7.659113234921939 0 0 0
1270 0 1 -1 22.408117604068295 9.315793194334928 7.850777825568013 0 0 0
118 0 1 -1 2.5883973842803143 9.466457671876304 7.472095291195835 0 0 0
502 0 1 -1 9.440872281741083 9.698613329775803 7.66884677588865 0 0 0
979 0 2 1 15.647731344240714 12.435898446309286 7.818910402947193 0 0 0
1367 0 1 -1 19.087882161100886 12.276447069445286 7.64965022098546 0 0 0
114 0 2 1 25.358468252057662 9.378957026399652 7.737212933455481 -1 0 0
211 0 2 1 2.39890914111377 12.723691199013095 7.931916552575892 0 0 0
594 0 2 1 5.702995930454882 15.489287742829955 7.548298484472781 0 0 0
598 0 1 -1 9.245996737049419 15.700544605762097 7.515703363656083 0 0 0
595 0 2 1 9.077267071169173 12.579570543325246 7.691648479585584 0 0 0
983 0 1 -1 12.21257374267446 12.79848982410247 7.680850934824498 0 0 0
982 0 1 -1 15.47055183087736 15.661320530229364 7.764948677149647 0 0 0
1363 0 2 1 22.02331916885693 12.6371621796907 7.487004287203344 0 0 0
210 0 2 1 25.387065639978978 15.726638396227216 7.587777211607637 -1 0 0
215 0 1 -1 25.193252408570977 12.611744149003236 7.633638607884219 -1 0 0
214 0 1 -1 2.690889980345729 15.858818094871467 7.555018159934022 0 0 0
307 0 2 1 2.4043034397675096 18.93595535858455 7.635246822414974 0 0 0
695 0 1 -1 5.780480059112685 18.809596898231018 7.532518749874363 0 0 0
1075 0 2 1 15.623152502528749 18.855668624451326 8.249305481224404 0 0 0
1362 0 2 1 18.960193252254285 15.832544494594401 7.515694303238618 0 0 0
1463 0 1 -1 18.832710504604016 18.938187178776086 7.927276757282986 0 0 0
1366 0 1 -1 21.858831203511443 15.872491788850205 7.4849682684742795 0 0 0
310 0 1 -1 2.600962174927992 22.09181528242936 7.649035472867606 0 0 0
690 0 2 1 5.965653562801497 22.107560942063532 7.513069861427265 0 0 0
1079 0 1 -1 12.177114382754462 19.17678164781657 7.902061616741719 0 0 0
1459 0 2 1 22.136494042950737 19.115477458483184 7.4735353951040295 0 0 0
311 0 1 -1 25.158837956800298 19.07464699170126 7.600701955151457 -1 0 0
19 0 2 1 2.395237493336082 25.40562750707336 7.503512749555728 0 -1 0
407 0 1 -1 6.101011874979205 25.381854532972966 7.4706119494787515 0 -1 0
694 0 1 -1 9.248387551402837 22.421409318476535 7.472297515244126 0 0 0
1074 0 2 1 12.4923568137796 22.368293927880384 7.899638652205713 0 0 0
1078 0 1 -1 15.666783560426955 22.540444383009 7.88460306920765 0 0 0
1458 0 2 1 18.821708651111678 22.49495741161447 8.080871833007091 0 0 0
1462 0 1 -1 22.122859108219416 22.507444117971396 7.891363655510293 0 0 0
306 0 2 1 25.117080508531956 22.29804170366725 8.017787193600537 -1 0 0
23 0 1 -1 25.248115725493413 25.40771332547115 7.8335828259988105 -1 -1 0
29 0 1 -1 2.8405459647197087 -0.2728804063843138 11.847633632695793 0 0 0
409 0 2 1 6.0705051491075075 -0.1628421131064191 11.854288781629876 0 0 0
413 0 1 -1 9.205130937062906 -0.19697231969059462 12.057736687882173 0 0 0
793 0 2 1 12.518448872896093 -0.16478449941110596 12.430507497196277 0 0 0
1184 0 1 -1 18.9146190292781 2.6580208254838498 11.83225940765362 0 0 0
797 0 1 -1 15.906076498959345 -0.13539551801524047 12.369316807467186 0 0 0
32 0 1 -1 25.064711556456146 2.792035974227999 11.852484395466654 -1 0 0
28 0 2 1 2.749712939848501 2.913355480361018 11.65435764753241 0 0 0
121 0 2 1 -0.26607200894685246 6.0968547049430235 11.741849420481632 0 0 0
505 0 2 1 6.077213432767116 5.886682415927715 11.535942168262245 0 0 0
416 0 1 -1 6.090036141863414 2.9376268383323634 11.774625731458691 0 0 0
412 0 2 1 9.50267724942314 3.1468679807015367 12.036022458729175 0 0 0
800 0 1 -1 12.8188871978696 2.972664149199178 11.909731342308824 0 0 0
893 0 1 -1 15.756913907913406 6.105546091970272 11.85753085180409 0 0 0
1273 0 2 1 18.870749648977487 6.104470657189329 11.661973757365924 0 0 0
796 0 2 1 16.05411793537189 2.9403916074956293 12.08035003938032 0 0 0
1180 0 2 1 22.061014700476143 2.907389127853324 11.793978577189279 0 0 0
125 0 1 -1 2.7538864257844997 6.214671847406856 11.452687588772001 0 0 0
124 0 2 1 2.8062067180713335 9.332731114715534 11.743331530610561 0 0 0
512 0 1 -1 6.099231095948985 9.204825353737792 11.7779059080483 0 0 0
509 0 1 -1 9.363811752446948 6.245123170854395 11.618709417371445 0 0 0
889 0 2 1 12.627216507283116 6.362448032793328 11.909234266856895 0 0 0
1277 0 1 -1 21.825404096670837 6.180413976723867 11.782598269326797 0 0 0
128 0 1 -1 25.448995455692696 9.181553944516947 11.96526620325286 -1 0 0
1276 0 2 1 22.580732229849936 9.27328345680913 11.942344716512167 0 0 0
221 0 1 -1 2.621755642160045 12.562930262496264 11.959133139787966 0 0 0
508 0 2 1 9.253790131518851 9.475475074075582 11.839594147633875 0 0 0
896 0 1 -1 12.428899044467238 9.474595128659493 11.767328379473994 0 0 0
892 0 2 1 15.603602588893166 9.513176258346578 11.596591397093622 0 0 0
989 0 1 -1 15.634641991872073 12.54810410696183 11.883349649794678 0 0 0
1280 0 1 -1 19.076279732033996 9.40512626368084 11.648437645860092 0 0 0
1373 0 1 -1 22.187533227497028 12.41456028297241 12.017312134480989 0 0 0
217 0 2 1 25.33565932233323 12.417267171976285 12.20194175313874 -1 0 0
601 0 2 1 6.061208123965453 12.776546457151708 11.539471052789143 0 0 0
608 0 1 -1 6.090951901462419 15.758946698809805 11.95193206709953 0 0 0
605 0 1 -1 9.021986685569743 12.839404515706159 11.788060563072353 0 0 0
985 0 2 1 12.43007517044609 12.682977881192874 11.564258480880323 0 0 0
988 0 2 1 15.843826239134545 15.668866212902092 11.982921659898377 0 0 0
1369 0 2 1 19.038445954567806 12.713437108302177 11.552733290501752 0 0 0
1376 0 1 -1 19.08851575020455 15.748219563560308 12.16276152793995 0 0 0
224 0 1 -1 25.200221515296903 15.567978476136346 11.747775269106867 -1 0 0
317 0 1 -1 2.640072466844788 19.017320282337337 11.536724226775743 0 0 0
220 0 2 1 2.4788850889204177 15.874252069919084 11.963315225201626 0 0 0
701 0 1 -1 9.062544432873512 18.684031535978946 11.683075894160833 0 0 0
604 0 2 1 9.319064553158809 15.904390723726625 11.628623702927538 0 0 0
992 0 1 -1 12.367553613921297 15.900105392776407 11.622381616324862 0 0 0
1085 0 1 -1 15.571085521437121 18.946208801194864 12.33732346428586 0 0 0
1465 0 2 1 18.80004677438268 18.843826032198454 12.16809050246625 0 0 0