LAMMPS (29 Sep 2021 - Update 3)
OMP_NUM_THREADS environment is not set. Defaulting to 1 thread. (src/comm.cpp:98)
  using 1 OpenMP thread(s) per MPI task
Reading data file ...
  orthogonal box = (0.0000000 0.0000000 0.0000000) to (15.866041 15.852264 77.123517)
  2 by 1 by 8 MPI processor grid
  reading atoms ...
  864 atoms
Finding 1-2 1-3 1-4 neighbors ...
  special bond factors lj:    0        0        0       
  special bond factors coul:  0        0        0       
     0 = max # of 1-2 neighbors
     0 = max # of 1-3 neighbors
     0 = max # of 1-4 neighbors
     1 = max # of special neighbors
  special bonds CPU = 0.001 seconds
  read_data CPU = 0.029 seconds
Neighbor list info ...
  update every 1 steps, delay 10 steps, check yes
  max neighbors/atom: 2000, page size: 100000
  master list distance cutoff = 6.22
  ghost atom cutoff = 6.22
  binsize = 3.11, bins = 6 6 25
  1 neighbor lists, perpetual/occasional/extra = 1 0 0
  (1) pair quip, perpetual
      attributes: full, newton on
      pair build: full/bin
      stencil: full/bin/3d
      bin: standard
Setting up Verlet run ...
  Unit style    : metal
  Current step  : 0
  Time step     : 0.001
Per MPI rank memory allocation (min/avg/max) = 8.889 | 8.906 | 8.916 Mbytes
Step Temp PotEng TotEng Press Volume c_msd[4] 
       0            0   -8878.9247   -8878.9247   -11708.833    19397.542            0 
      10    108.80145    -8891.078    -8878.941   -13519.947    19397.542 0.00037756483 
      20    255.99871   -8907.5101   -8878.9531   -15433.074    19397.542  0.004636157 
      30    288.56988   -8911.1358   -8878.9454   -14361.122    19397.542  0.015943357 
      40    289.10053   -8911.1934   -8878.9438   -12512.136    19397.542  0.032214776 
      50    304.26419   -8912.8839   -8878.9428   -12190.839    19397.542  0.050010352 
      60    330.67215   -8915.8353   -8878.9484    -12512.07    19397.542  0.067008738 
      70    319.75479    -8914.613   -8878.9439   -12021.554    19397.542  0.084636553 
      80     311.7171   -8913.7131   -8878.9406   -11242.174    19397.542   0.10335882 
      90    344.97025   -8917.4272   -8878.9452   -11377.847    19397.542   0.12285636 
     100    369.47631   -8920.1625   -8878.9469   -11460.202    19397.542   0.14373353 
     110    369.44402   -8920.1551   -8878.9431   -10737.559    19397.542   0.16547428 
     120    381.04496   -8921.4513   -8878.9452   -10101.733    19397.542   0.18697263 
     130    387.01967   -8922.1174   -8878.9447    -9853.945    19397.542   0.20927079 
     140    390.46305   -8922.5002   -8878.9434   -10154.629    19397.542   0.23274757 
     150    401.17379   -8923.6966   -8878.9451   -10935.233    19397.542   0.25686229 
     160    405.60936   -8924.1923    -8878.946   -11533.497    19397.542   0.28181117 
     170    403.00983   -8923.9035   -8878.9472   -11313.905    19397.542   0.30705714 
     180    385.93942   -8921.9971   -8878.9449   -10395.352    19397.542   0.33328028 
     190    384.55592   -8921.8429   -8878.9451   -9702.4152    19397.542    0.3615061 
     200    397.89654   -8923.3338   -8878.9478   -9508.3306    19397.542   0.39138176 
     210    403.74057   -8923.9838    -8878.946   -9854.3562    19397.542   0.41959204 
     220    419.25516   -8925.7147   -8878.9462   -11120.155    19397.542   0.44190424 
     230    437.64496   -8927.7678   -8878.9478   -12741.979    19397.542   0.46059951 
     240    436.22365   -8927.6096   -8878.9482   -13773.271    19397.542   0.48016288 
     250     417.4692   -8925.5154   -8878.9461   -14188.084    19397.542   0.50051511 
     260    403.07006   -8923.9093   -8878.9463   -14452.366    19397.542   0.51954432 
     270    390.78955   -8922.5388   -8878.9456   -14869.677    19397.542   0.53842732 
     280    390.91941   -8922.5534   -8878.9458   -15753.944    19397.542   0.55789535 
     290    394.53071   -8922.9579   -8878.9474   -16866.473    19397.542   0.57907365 
     300    385.46639   -8921.9447   -8878.9454   -17556.881    19397.542   0.60332818 
     310    388.07639   -8922.2367   -8878.9462   -18102.563    19397.542   0.62988844 
     320    395.22438   -8923.0346   -8878.9467   -18476.923    19397.542   0.65693198 
     330     392.7193   -8922.7554    -8878.947   -18634.964    19397.542   0.68294096 
     340    387.36548    -8922.158   -8878.9468   -18928.114    19397.542    0.7064488 
     350    383.70376     -8921.75   -8878.9472   -19255.038    19397.542   0.72809194 
     360    380.16279   -8921.3526   -8878.9449   -19764.905    19397.542   0.74756432 
     370    391.53302   -8922.6238   -8878.9477   -20433.416    19397.542   0.76345228 
     380    397.18733   -8923.2529   -8878.9461   -20848.612    19397.542   0.77799013 
     390    399.66038   -8923.5327     -8878.95   -20962.623    19397.542    0.7926845 
     400    376.74168   -8920.9703   -8878.9442   -20594.318    19397.542   0.80792627 
     410    384.01385   -8921.7861   -8878.9488   -20827.442    19397.542   0.82090067 
     420    385.42711   -8921.9432   -8878.9482    -21282.02    19397.542   0.83289421 
     430    375.82197   -8920.8694   -8878.9459   -21749.833    19397.542   0.84474346 
     440    377.40301   -8921.0478   -8878.9479   -22280.425    19397.542   0.85654263 
     450    373.39276   -8920.5987   -8878.9462   -22358.315    19397.542   0.87121917 
     460    380.55104   -8921.3982   -8878.9472   -22127.174    19397.542   0.88923864 
     470    389.08947   -8922.3531   -8878.9496   -21563.629    19397.542   0.90990069 
     480    377.88025   -8921.0989   -8878.9458   -20903.426    19397.542   0.93174236 
     490    381.74982   -8921.5319   -8878.9472   -20620.986    19397.542   0.94962563 
     500    394.14575   -8922.9156   -8878.9481   -20486.731    19397.542   0.96309083 
     510    397.04898   -8923.2389   -8878.9475   -19997.235    19397.542   0.97658553 
     520    399.82595   -8923.5491    -8878.948   -19535.484    19397.542   0.99241283 
     530    404.27704   -8924.0446   -8878.9469    -19115.46    19397.542    1.0084992 
     540     411.3451   -8924.8362     -8878.95   -18661.849    19397.542    1.0226069 
     550    394.09812   -8922.9082    -8878.946   -17821.103    19397.542    1.0374953 
     560    386.81962   -8922.0987   -8878.9484   -17144.624    19397.542    1.0531551 
     570    383.04436   -8921.6747   -8878.9456   -16711.306    19397.542    1.0690946 
     580    397.22268   -8923.2587   -8878.9479   -16702.646    19397.542    1.0866029 
     590    408.28446   -8924.4929   -8878.9481   -16623.668    19397.542    1.1074158 
     600    405.74477   -8924.2095   -8878.9481   -16314.107    19397.542    1.1302748 
     610    396.02325   -8923.1251   -8878.9481    -15628.66    19397.542    1.1519665 
     620     395.3341   -8923.0495   -8878.9494   -15051.831    19397.542    1.1694303 
     630    394.27036   -8922.9318   -8878.9503   -14512.907    19397.542    1.1828305 
     640    383.62649   -8921.7417   -8878.9476   -14067.198    19397.542    1.1945401 
     650    385.14193   -8921.9112    -8878.948   -13839.463    19397.542    1.2068311 
     660     395.4713   -8923.0651   -8878.9497   -13755.797    19397.542    1.2218962 
     670     396.9724   -8923.2312   -8878.9483   -13681.042    19397.542    1.2411479 
     680    400.76426   -8923.6562   -8878.9504   -13529.754    19397.542    1.2649597 
     690    395.59922   -8923.0782   -8878.9485   -13202.541    19397.542    1.2892968 
     700    393.08673   -8922.7984    -8878.949    -12863.36    19397.542    1.3108518 
     710    392.46287   -8922.7295   -8878.9497   -12776.215    19397.542    1.3306314 
     720    392.69983   -8922.7538   -8878.9476   -12960.731    19397.542    1.3493343 
     730    407.70626    -8924.431   -8878.9507   -13617.908    19397.542    1.3652761 
     740    418.60831   -8925.6458   -8878.9494   -14182.857    19397.542    1.3758719 
     750    427.35697   -8926.6222   -8878.9499   -14411.802    19397.542    1.3817369 
     760    426.23067   -8926.4956    -8878.949   -14240.457    19397.542    1.3874968 
     770    425.68986   -8926.4355   -8878.9492   -14121.142    19397.542    1.3956033 
     780    424.34662   -8926.2861   -8878.9496   -14199.692    19397.542    1.4059418 
     790    416.51178   -8925.4118   -8878.9493   -14348.579    19397.542    1.4172819 
     800    406.85203   -8924.3329   -8878.9479   -14603.708    19397.542    1.4293586 
     810     409.3926   -8924.6176   -8878.9492   -14954.594    19397.542    1.4437899 
     820    411.52943   -8924.8561   -8878.9494   -15227.004    19397.542     1.461671 
     830    414.76526   -8925.2161   -8878.9484   -15348.177    19397.542    1.4822988 
     840    425.47297   -8926.4126   -8878.9505   -15497.059    19397.542    1.5061095 
     850    424.10961   -8926.2589   -8878.9489    -15461.05    19397.542    1.5339208 
     860    425.84903   -8926.4531    -8878.949   -15668.017    19397.542    1.5638872 
     870    428.28778   -8926.7265   -8878.9503   -15975.954    19397.542    1.5941429 
     880    422.32484   -8926.0597   -8878.9487   -16050.391    19397.542    1.6254163 
     890    420.59441   -8925.8681   -8878.9502   -16210.368    19397.542    1.6579317 
     900    412.78354   -8924.9958   -8878.9492   -16186.118    19397.542    1.6917804 
     910    408.88335   -8924.5603   -8878.9488   -16398.021    19397.542    1.7253326 
     920    415.25495   -8925.2723     -8878.95   -16866.947    19397.542    1.7566903 
     930    417.79568   -8925.5555   -8878.9498    -17314.63    19397.542    1.7866576 
     940    414.15774   -8925.1502   -8878.9503   -17816.895    19397.542    1.8175362 
     950    410.14766   -8924.7024   -8878.9498   -18397.528    19397.542     1.850555 
     960    412.13206   -8924.9218   -8878.9478   -18864.984    19397.542    1.8837942 
     970    427.90234   -8926.6835   -8878.9503   -19165.223    19397.542    1.9147148 
     980    431.11936    -8927.043    -8878.951    -19021.79    19397.542    1.9457246 
     990    415.64991   -8925.3145   -8878.9482   -18606.767    19397.542    1.9812421 
    1000    413.92707   -8925.1233   -8878.9491   -18513.829    19397.542    2.0201072 
    1010    417.45395   -8925.5177     -8878.95   -18558.895    19397.542    2.0574524 
    1020    414.66605   -8925.2045   -8878.9479    -18540.13    19397.542    2.0909232 
    1030    425.32279   -8926.3944    -8878.949   -18804.281    19397.542    2.1200334 
    1040    437.39791    -8927.743   -8878.9506    -19174.44    19397.542    2.1461906 
    1050    432.04437    -8927.144   -8878.9488   -19430.964    19397.542    2.1724444 
    1060    423.10855   -8926.1471   -8878.9487    -19670.97    19397.542     2.200914 
    1070    416.30819    -8925.389   -8878.9492   -19752.208    19397.542     2.232564 
    1080    410.19009   -8924.7058   -8878.9485   -19471.789    19397.542    2.2656179 
    1090    411.43188   -8924.8454   -8878.9496   -18927.842    19397.542    2.2963807 
    1100    413.58688   -8925.0849   -8878.9486   -18540.027    19397.542    2.3238349 
    1110    425.71996   -8926.4384   -8878.9486   -18620.545    19397.542    2.3474636 
    1120    443.01807   -8928.3709   -8878.9516   -18883.908    19397.542    2.3679172 
    1130    437.42575   -8927.7454   -8878.9499   -18767.479    19397.542    2.3882255 
    1140    422.48256   -8926.0773   -8878.9487   -18476.767    19397.542    2.4089666 
    1150    414.07643   -8925.1393   -8878.9485   -18282.798    19397.542    2.4284943 
    1160    416.01416   -8925.3558   -8878.9488   -18291.885    19397.542     2.446853 
    1170    419.66714   -8925.7642   -8878.9497   -18446.717    19397.542    2.4644412 
    1180    424.21945   -8926.2706   -8878.9483    -18449.36    19397.542    2.4806419 
    1190    440.19598   -8928.0557   -8878.9512   -18343.062    19397.542    2.4945267 
    1200    440.38662   -8928.0752   -8878.9494   -17908.359    19397.542     2.507228 
    1210    440.40752   -8928.0774   -8878.9493   -17509.071    19397.542    2.5196997 
    1220    445.29341   -8928.6232   -8878.9501   -17433.008    19397.542    2.5321836 
    1230    444.31811   -8928.5138   -8878.9494   -17404.254    19397.542    2.5456285 
    1240    444.21916   -8928.5028   -8878.9495   -17567.287    19397.542    2.5617678 
    1250    447.95301   -8928.9197   -8878.9499   -17998.888    19397.542    2.5810013 
    1260    447.05056     -8928.82   -8878.9509   -18113.089    19397.542    2.6027835 
    1270    433.76409   -8927.3363   -8878.9493   -17647.746    19397.542    2.6267411 
    1280    426.49744   -8926.5249   -8878.9485   -17215.404    19397.542    2.6522665 
    1290    438.76938   -8927.8949   -8878.9495   -17215.004    19397.542     2.679609 
    1300     454.8554   -8929.6913   -8878.9515   -17412.029    19397.542    2.7096074 
    1310    451.74789   -8929.3435   -8878.9504   -17515.094    19397.542    2.7419599 
    1320    440.03726   -8928.0361   -8878.9493    -17582.78    19397.542    2.7732724 
    1330    433.51813    -8927.309   -8878.9494   -17627.787    19397.542    2.7991894 
    1340    430.66307   -8926.9918   -8878.9507   -17406.648    19397.542    2.8192899 
    1350    422.06307   -8926.0311   -8878.9493    -17030.68    19397.542    2.8369839 
    1360    423.68793   -8926.2128   -8878.9498   -16872.793    19397.542    2.8564726 
    1370    432.23825   -8927.1671   -8878.9502   -16941.721    19397.542    2.8798412 
    1380    440.61409   -8928.1014   -8878.9502   -17160.411    19397.542     2.904214 
    1390    442.38617   -8928.3005   -8878.9516   -17288.698    19397.542    2.9262872 
    1400    432.82497   -8927.2303    -8878.948   -17111.965    19397.542    2.9462931 
    1410    443.20721   -8928.3906   -8878.9502   -17379.272    19397.542    2.9656964 
    1420     452.8574   -8929.4692   -8878.9523   -17581.285    19397.542    2.9866189 
    1430    440.33742   -8928.0699   -8878.9496    -17078.18    19397.542    3.0107644 
    1440    434.09539   -8927.3728   -8878.9488   -16559.852    19397.542    3.0372306 
    1450    446.59797     -8928.77   -8878.9513   -16458.202    19397.542    3.0634597 
    1460    455.16552   -8929.7248   -8878.9504   -16509.198    19397.542    3.0883146 
    1470     460.5176    -8930.323   -8878.9516   -16639.411    19397.542    3.1117695 
    1480    455.78137    -8929.792   -8878.9489   -16643.605    19397.542    3.1332037 
    1490    461.66937   -8930.4506   -8878.9507   -16632.215    19397.542     3.152331 
    1500    464.06114   -8930.7172   -8878.9504   -16316.323    19397.542    3.1724877 
    1510    464.69685   -8930.7871   -8878.9495    -16148.36    19397.542    3.1960897 
    1520    471.22077   -8931.5167   -8878.9514   -16208.841    19397.542    3.2225013 
    1530    471.47122   -8931.5429   -8878.9496   -16597.639    19397.542    3.2496574 
    1540    479.04999   -8932.3903   -8878.9516   -17340.131    19397.542    3.2743864 
    1550    475.60674   -8932.0055   -8878.9508   -17872.304    19397.542    3.2971604 
    1560    465.76065   -8930.9064   -8878.9501   -17822.552    19397.542    3.3221892 
    1570    460.06152    -8930.271   -8878.9505    -17442.47    19397.542    3.3512444 
    1580    459.40082   -8930.1971   -8878.9502   -16941.542    19397.542    3.3813068 
    1590    460.93829   -8930.3707   -8878.9523   -16350.345    19397.542    3.4083736 
    1600     448.2201   -8928.9504   -8878.9508   -15603.607    19397.542    3.4316634 
    1610     443.9941   -8928.4772    -8878.949    -15275.86    19397.542    3.4534934 
    1620    463.51034   -8930.6582    -8878.953   -15593.563    19397.542    3.4766509 
    1630    474.66564   -8931.9011   -8878.9514   -16126.405    19397.542    3.5034224 
    1640    481.75389   -8932.6918   -8878.9514   -16542.721    19397.542    3.5333548 
    1650    479.37897   -8932.4264    -8878.951   -16541.998    19397.542    3.5648125 
    1660    474.97776   -8931.9337   -8878.9492   -16284.173    19397.542    3.5952514 
    1670    481.99089    -8932.719   -8878.9522   -15990.017    19397.542    3.6221631 
    1680      474.213   -8931.8498   -8878.9506   -15457.654    19397.542    3.6454728 
    1690    462.13083    -8930.502   -8878.9506   -14731.806    19397.542     3.665115 
    1700    458.63731   -8930.1109   -8878.9492   -14389.905    19397.542    3.6801149 
    1710    473.55465   -8931.7771   -8878.9513   -14547.389    19397.542    3.6915037 
    1720    483.59001    -8932.897   -8878.9518   -15013.331    19397.542    3.7021408 
    1730    481.36556   -8932.6472   -8878.9501   -15645.926    19397.542    3.7142289 
    1740    484.05437   -8932.9483   -8878.9513   -16474.749    19397.542    3.7288904 
    1750    482.16869   -8932.7383   -8878.9516   -16722.219    19397.542     3.747119 
    1760    470.26243   -8931.4082   -8878.9497   -16475.495    19397.542    3.7689551 
    1770    472.75321   -8931.6852   -8878.9489   -16480.419    19397.542    3.7930019 
    1780    495.80424   -8934.2609   -8878.9532   -16801.632    19397.542     3.817904 
    1790    498.29189   -8934.5359   -8878.9506   -17030.699    19397.542    3.8432118 
    1800    497.22115   -8934.4163   -8878.9505   -17233.599    19397.542    3.8677962 
    1810    498.13201   -8934.5195   -8878.9521   -17294.852    19397.542    3.8916583 
    1820    485.17576   -8933.0725   -8878.9504   -16971.976    19397.542    3.9157232 
    1830    479.44537   -8932.4337   -8878.9509   -16627.564    19397.542    3.9391486 
    1840    478.88134   -8932.3712   -8878.9513   -16398.764    19397.542    3.9621449 
    1850     478.6415   -8932.3435   -8878.9503   -16406.049    19397.542    3.9857213 
    1860     486.1211   -8933.1789   -8878.9514   -16705.544    19397.542    4.0086822 
    1870    492.79459   -8933.9238   -8878.9519   -17221.514    19397.542    4.0297149 
    1880    491.36379   -8933.7648   -8878.9525   -18037.772    19397.542    4.0499732 
    1890    475.70955   -8932.0166   -8878.9505   -18910.363    19397.542    4.0709101 
    1900    464.92588   -8930.8141   -8878.9509   -19819.272    19397.542    4.0929306 
    1910    455.59431   -8929.7727   -8878.9505   -20229.987    19397.542    4.1160109 
    1920    452.87672   -8929.4684   -8878.9493   -20242.611    19397.542    4.1384657 
    1930    467.97161   -8931.1539   -8878.9509   -20369.825    19397.542    4.1581839 
    1940    485.34862   -8933.0926   -8878.9512   -20514.477    19397.542    4.1756159 
    1950    495.78252   -8934.2578   -8878.9525   -20428.878    19397.542    4.1936772 
    1960    500.11778   -8934.7389     -8878.95   -20591.437    19397.542    4.2145461 
    1970    511.99695   -8936.0681    -8878.954   -21344.221    19397.542    4.2363696 
    1980    499.23942   -8934.6421   -8878.9512   -21654.428    19397.542    4.2540635 
    1990    487.56603   -8933.3391   -8878.9504    -21588.86    19397.542    4.2657075 
    2000    485.14508   -8933.0707    -8878.952   -21134.343    19397.542    4.2770463 
Loop time of 1345 on 16 procs for 2000 steps with 864 atoms

Performance: 0.128 ns/day, 186.806 hours/ns, 1.487 timesteps/s
97.3% CPU use with 16 MPI tasks x 1 OpenMP threads

MPI task timing breakdown:
Section |  min time  |  avg time  |  max time  |%varavg| %total
---------------------------------------------------------------
Pair    | 279.27     | 688.18     | 1341.5     |1133.4 | 51.17
Bond    | 0.00024414 | 0.00057828 | 0.0010383  |   0.0 |  0.00
Neigh   | 0.014885   | 0.030615   | 0.063989   |   7.8 |  0.00
Comm    | 2.0788     | 572.37     | 944.99     |1191.8 | 42.56
Output  | 0.37898    | 26.32      | 56.799     | 412.1 |  1.96
Modify  | 0.0085413  | 0.0099808  | 0.012182   |   1.2 |  0.00
Other   |            | 58.08      |            |       |  4.32

Nlocal:        54.0000 ave          90 max          29 min
Histogram: 3 3 0 2 3 1 0 2 0 2
Nghost:        493.750 ave         643 max         369 min
Histogram: 3 1 0 3 2 2 1 2 0 2
Neighs:         0.00000 ave           0 max           0 min
Histogram: 16 0 0 0 0 0 0 0 0 0
FullNghs:      2706.00 ave        5944 max         890 min
Histogram: 6 0 2 1 3 0 2 0 0 2

Total # of neighbors = 43296
Ave neighs/atom = 50.111111
Ave special neighs/atom = 0.0000000
Neighbor list builds = 200
Dangerous builds = 200
Setting up Verlet run ...
  Unit style    : metal
  Current step  : 2000
  Time step     : 0.001
Per MPI rank memory allocation (min/avg/max) = 8.894 | 8.909 | 8.920 Mbytes
Step Temp PotEng TotEng Press Volume c_msd[4] 
    2000          450   -8933.0707   -8882.8725   -21350.223    19397.542    4.2770463 
    2010    443.57863   -8932.7372   -8883.2553    -19996.55    19375.294    4.2960598 
    2020    428.47918   -8931.9932   -8884.1957   -16285.259    19311.734    4.3172039 
    2030    458.71181    -8936.496    -8885.326   -12238.117    19215.075    4.3335438 
    2040    485.68262   -8940.5581   -8886.3794   -7672.2826    19095.516    4.3420087 
    2050     498.5823   -8942.7484   -8887.1308   -2272.5887    18965.057    4.3425492 
    2060    507.05303   -8943.9935    -8887.431    3031.1396    18837.117    4.3358031 
    2070    506.92383    -8943.933   -8887.3849    7509.8566    18723.845     4.325148 
    2080    494.83205   -8942.4521   -8887.2528     10828.41    18633.935    4.3128093 
    2090    481.03601   -8940.9104   -8887.2501    12693.773    18572.043    4.2959908 
    2100    479.92778    -8941.004   -8887.4674    13024.167    18539.009    4.2713404 
    2110    497.14131   -8943.3762   -8887.9194    12089.625    18532.676    4.2396924 
    2120     512.0595    -8945.696    -8888.575    10331.197    18548.922     4.205875 
    2130    497.13815   -8944.7873   -8889.3308     8347.066    18582.792    4.1762984 
    2140    490.01468   -8944.7317   -8890.0698    5365.2425    18629.231    4.1554839 
    2150    498.93524   -8946.3746   -8890.7177    1669.8637    18681.977    4.1454748 
    2160    488.01145   -8945.6823   -8891.2439   -1414.7148    18734.082     4.147043 
    2170    473.30277   -8944.4596    -8891.662   -3753.9505    18779.923    4.1592475 
    2180    462.45571   -8943.5911   -8892.0034   -5350.5647    18815.639    4.1800899 
    2190    466.99821   -8944.4179   -8892.3236   -6425.8396    18838.894    4.2083517 
    2200    477.07587   -8945.9016    -8892.683   -6847.0838    18848.474     4.244543 
    2210    471.99167   -8945.7534   -8893.1021   -6216.3216    18844.501    4.2888779 
    2220    469.36917   -8945.9173   -8893.5585   -4912.4573    18828.892    4.3397379 
    2230    467.04362   -8946.1154    -8894.016   -3290.8443    18804.718    4.3947816 
    2240    464.25365   -8946.2258   -8894.4376   -1398.8267    18775.533     4.450414 
    2250    468.23907   -8947.0635   -8894.8307    215.91477     18745.04     4.503117 
    2260    465.83329   -8947.1824    -8895.218    1494.6453    18716.308    4.5493568 
    2270    467.90443   -8947.8065   -8895.6111     2392.819    18691.606    4.5864274 
    2280    475.86881   -8949.1169    -8896.033    3239.2823    18672.491    4.6125651 
    2290    470.75321   -8949.0099   -8896.4966    3803.3369    18660.275     4.624145 
    2300    474.72683   -8949.9685    -8897.012    3497.4885    18655.642    4.6172581 
    2310    471.84772   -8950.2002   -8897.5648    2846.3402    18657.796    4.5942914 
    2320    460.57075   -8949.4748   -8898.0975    2117.0387    18665.306    4.5615011 
    2330     462.6326   -8950.1807   -8898.5733    1153.3927    18676.609    4.5247855 
    2340     464.9624   -8950.8621   -8898.9948    282.92086    18689.815    4.4889862 
    2350    454.41166   -8950.0699   -8899.3796   -155.91039    18703.261    4.4568373 
    2360    441.40589   -8948.9627   -8899.7232   -607.12882    18716.017    4.4290315 
    2370    444.52383   -8949.6138   -8900.0265   -1469.4221    18727.166    4.4068599 
    2380    456.07823   -8951.1893   -8900.3131   -2678.7804    18735.082    4.3919688 
    2390    459.12377   -8951.8249    -8900.609   -3296.9897     18737.71    4.3851999 
    2400    457.41625    -8951.958   -8900.9325   -2942.5787    18734.044    4.3876356 
    2410    442.05553   -8950.5658   -8901.2538   -1802.7803    18724.941    4.4011007 
    2420    441.42313   -8950.7779   -8901.5365   -949.69415    18712.548    4.4244138 
    2430    447.72091   -8951.7192   -8901.7752   -162.85773     18698.66     4.452875 
    2440    457.23186   -8953.0007   -8901.9958    909.18813    18684.878    4.4806677 
    2450    455.64886   -8953.0462   -8902.2179    2421.7643    18673.298    4.5050492 
    2460    440.14417   -8951.5294   -8902.4306    3881.4016     18666.69    4.5242776 
    2470     440.6201   -8951.7896   -8902.6378    4202.0616     18667.52    4.5367649 
    2480    439.53022   -8951.8735   -8902.8433    3605.6115    18676.283    4.5419951 
    2490     441.1128   -8952.2494   -8903.0426    2308.1034    18691.662    4.5407963 
    2500    444.54301   -8952.8088   -8903.2194    900.07989    18711.127    4.5348716 
    2510    453.08067   -8953.9179    -8903.376   -468.94976     18731.89    4.5243438 
    2520    451.20675   -8953.8556   -8903.5228   -1513.0906    18751.336    4.5099938 
    2530    442.11121   -8952.9812    -8903.663   -2079.8899    18767.502    4.4934098 
    2540    437.52139   -8952.5922    -8903.786   -2503.2296    18779.279    4.4777565 
    2550     433.7421   -8952.2694   -8903.8848   -2808.5512     18785.93    4.4651364 
    2560    433.60373   -8952.3191     -8903.95   -3044.5885    18786.965    4.4547802 
    2570     444.9163   -8953.6117   -8903.9806   -2961.5782    18782.127    4.4463886 
    2580    455.14814   -8954.7727   -8904.0003   -2190.4654    18771.764    4.4442437 
    2590    441.15673   -8953.2329   -8904.0212   -682.79239    18757.521    4.4525349 
    2600    429.92471   -8951.9776   -8904.0189    568.20912    18742.273    4.4673583 
    2610    448.99224   -8954.0755   -8903.9898    1239.4644    18728.402    4.4824664 
    2620    455.86576   -8954.8105    -8903.958    1797.5685    18717.248     4.496122 
    2630     452.4024   -8954.4132    -8903.947    2224.9877    18709.817     4.507616 
    2640    454.95443   -8954.7032   -8903.9524    2174.5649    18706.772    4.5156184 
    2650    450.98406   -8954.2738   -8903.9659    2013.5629    18708.002    4.5184388 
    2660    434.37846   -8952.4206    -8903.965    1891.6572    18713.129    4.5142705 
    2670    435.14434    -8952.464    -8903.923    1300.1796    18721.724    4.5012889 
    2680    451.14281   -8954.1735   -8903.8478    726.02866     18732.66    4.4802894 
    2690    438.58788   -8952.6891   -8903.7639    798.25668    18744.912    4.4548471 
    2700    425.00518   -8951.0733   -8903.6633    854.66706    18758.472    4.4285375 
    2710    433.21848    -8951.838   -8903.5118    52.008424    18773.273    4.4025719 
    2720    438.29069   -8952.1907   -8903.2987    -1291.335    18787.753    4.3758599 
    2730    434.33624   -8951.4892   -8903.0384   -2083.6178    18799.519    4.3489449 
    2740    429.19694    -8950.608   -8902.7304   -2241.3942    18807.092    4.3240562 
    2750    441.38495   -8951.6149   -8902.3778   -1854.5724    18810.212    4.3018644 
    2760    451.40023   -8952.3552   -8902.0008   -779.91904    18809.798    4.2832469 
    2770    445.11772   -8951.2843   -8901.6307     338.9924    18807.901     4.269282 
    2780    453.34073   -8951.8494   -8901.2786    728.13367    18806.574    4.2590164 
    2790    462.68954   -8952.5657    -8900.952    539.14867    18806.605    4.2498861 
    2800    469.35203   -8953.0349   -8900.6779     258.7622    18807.678    4.2391382 
    2810    465.78276   -8952.4267   -8900.4679    79.845199    18809.252    4.2263132 
    2820     461.9855   -8951.8422    -8900.307     72.70628    18810.997    4.2136416 
    2830    468.18626   -8952.4054   -8900.1786    163.00107    18812.859    4.2028018 
    2840    468.70449   -8952.3754   -8900.0907    693.25434    18815.089    4.1943005 
    2850    467.40538   -8952.2014   -8900.0616    1257.1457    18818.634    4.1873684 
    2860    457.35191   -8951.1024   -8900.0841    1757.5724    18824.569    4.1801005 
    2870    451.75159   -8950.5255   -8900.1319    1680.1759    18833.761    4.1709905 
    2880    464.23095    -8951.976   -8900.1903    532.66191    18845.899    4.1588906 
    2890    458.85529   -8951.4448   -8900.2588   -626.24166      18858.9    4.1437384 
    2900    458.32639   -8951.4621   -8900.3351   -1925.0052    18870.411     4.126527 
    2910    475.92689   -8953.5198   -8900.4295   -3033.1001    18877.944    4.1107678 
    2920    478.05649   -8953.9063   -8900.5784   -3096.8328    18879.554    4.1002061 
    2930    475.12664   -8953.8037   -8900.8026   -2642.2301    18875.112    4.0959771 
    2940    470.35572   -8953.5605   -8901.0916   -1790.3992    18865.631     4.098821 
    2950    478.26521   -8954.7915   -8901.4403   -1063.2306    18852.775    4.1066641 
    2960    477.85046    -8955.153   -8901.8481   -185.67353    18838.111    4.1172949 
    2970    459.20427   -8953.4989    -8902.274    806.67079    18823.394    4.1311175 
    2980    446.84787   -8952.5158   -8902.6693    1106.1647     18810.41    4.1495061 
    2990    441.14997   -8952.2166   -8903.0056    516.09125    18799.679    4.1722991 
    3000    445.86721   -8953.0217   -8903.2845   -566.67626    18790.068    4.1985864 
    3010    447.56878   -8953.4514   -8903.5245    -1291.468    18779.583    4.2272065 
    3020    438.04519   -8952.5904   -8903.7258   -1074.8348    18766.956    4.2574838 
    3030    445.45983   -8953.5731   -8903.8814    -737.8278      18752.5    4.2882693 
    3040    461.54458   -8955.4901   -8904.0042   -522.20262    18736.856    4.3193066 
    3050    464.59938   -8955.9406   -8904.1139    106.33885    18720.581    4.3518622 
    3060    469.41757   -8956.5814   -8904.2172    681.22614    18704.818    4.3864043 
    3070    470.30917   -8956.7964   -8904.3327    973.07019    18690.654    4.4218023 
    3080    460.25321   -8955.8133   -8904.4714    1079.2556    18678.638     4.455336 
    3090    448.96307   -8954.6982   -8904.6157    1230.6331    18668.989    4.4845999 
    3100    454.15659   -8955.4196   -8904.7577     999.6157    18661.846    4.5086161 
    3110    460.52526   -8956.2777   -8904.9054    312.11767    18656.684    4.5277482 
    3120    456.21333   -8955.9537   -8905.0624   -257.18093    18652.262    4.5435517 
    3130    452.41996   -8955.6893   -8905.2212   -703.53655    18647.458    4.5587259 
    3140    454.68791   -8956.1025   -8905.3814   -1189.2162    18641.392    4.5762405 
    3150     458.0837   -8956.6552   -8905.5552   -1534.4676    18633.175    4.5988397 
    3160    462.00189   -8957.2865   -8905.7495   -1351.8999     18622.26     4.626432 
    3170    462.69826   -8957.5705   -8905.9558    -542.7173    18609.084     4.656074 
    3180    459.85185    -8957.462   -8906.1649    430.79447    18595.168    4.6845339 
    3190    466.98972   -8958.4801   -8906.3867    945.32832    18582.273    4.7076353 
    3200    471.25942   -8959.2153   -8906.6456    636.66445    18571.297     4.722002 
    3210    461.58948   -8958.4325   -8906.9415   -300.14296     18561.65    4.7274974 
    3220    461.43281    -8958.728   -8907.2545   -1246.7898    18551.629    4.7277143 
    3230    469.31317   -8959.9395   -8907.5869   -1886.0705    18539.462    4.7288506 
    3240     466.0968   -8959.9315   -8907.9377   -1689.8628    18524.074    4.7347339 
    3250    462.55384   -8959.8811   -8908.2825   -710.47136    18505.908    4.7441038 
    3260     470.6956    -8961.121   -8908.6142    610.92924    18486.815    4.7543318 
    3270    471.15266   -8961.4921   -8908.9343    1856.2617    18469.242    4.7634293 
    3280    477.32822    -8962.499   -8909.2524    2484.5109    18455.401    4.7689773 
    3290     489.8244   -8964.2388   -8909.5982    2489.6143    18446.407    4.7725704 
    3300    480.40237   -8963.5669   -8909.9773    2086.9163    18442.211     4.777593 
    3310    470.51478   -8962.8442   -8910.3575    1357.6613     18441.98    4.7844689 
    3320    475.75925   -8963.7931   -8910.7214    526.00291    18444.299    4.7947075 
    3330    475.64654   -8964.1353   -8911.0762    70.042011     18447.63      4.80934 
    3340    466.87697   -8963.4967   -8911.4159   -217.23993    18451.061     4.826045 
    3350    479.96237   -8965.2881   -8911.7476   -947.01045    18453.941     4.844737 
    3360    497.55223    -8967.618   -8912.1153    -1650.511    18454.995    4.8695258 
    3370     486.2026   -8966.7738   -8912.5372   -1809.3393    18453.021    4.9033842 
    3380    467.35895   -8965.1018   -8912.9672   -1633.6625    18447.716    4.9439347 
    3390    462.49117   -8964.9587   -8913.3671   -1294.2894    18439.457    4.9842824 
    3400    470.15441   -8966.1909   -8913.7445   -1160.7059    18428.858     5.020214 
    3410    486.83509   -8968.4364   -8914.1292   -976.48834     18416.28    5.0519826 
    3420    506.64521   -8971.0943   -8914.5773    -927.4709    18402.044    5.0802613 
    3430    504.06801   -8971.3382   -8915.1086   -704.02128    18386.319    5.1068925 
    3440    492.13435   -8970.5841   -8915.6858   -203.88433    18369.571    5.1343849 
    3450    483.75942   -8970.2268   -8916.2627    685.98947     18352.79    5.1609123 
    3460    483.83112   -8970.7887   -8916.8166    1854.5909    18337.599    5.1809399 
    3470    491.10168   -8972.1481    -8917.365    3430.2382    18326.179    5.1906977 
    3480    488.94941   -8972.4666   -8917.9236    4846.1562    18321.319    5.1888935 
    3490    491.38702   -8973.3343   -8918.5194    5013.4426    18325.348    5.1738471 
    3500    485.17704   -8973.2651   -8919.1428    4176.9347    18338.522    5.1460705 
    3510    484.92932    -8973.851   -8919.7564    2616.7953    18359.189    5.1106757 
    3520    487.83643   -8974.7589     -8920.34    847.05542    18384.413    5.0757527 
    3530     475.8028    -8973.949   -8920.8724   -457.26035    18410.932    5.0468137 
    3540    472.86539   -8974.1051   -8921.3563   -1629.0225    18436.159    5.0245075 
    3550    471.35964    -8974.393   -8921.8121   -2420.2094    18457.959    5.0077372 
    3560    464.35306   -8974.0505   -8922.2512    -2751.827    18474.894    4.9942837 
    3570    462.63365   -8974.2815    -8922.674   -2710.6552    18486.409    4.9849182 
    3580    470.94549   -8975.6365   -8923.1018   -2626.3619    18492.605    4.9838768 
    3590    471.19653   -8976.1128   -8923.5501   -2304.5427    18493.773    4.9938518 
    3600    464.07218   -8975.7764   -8924.0084   -1861.9694    18490.595    5.0121179 
    3610    460.28452   -8975.8065   -8924.4611   -1792.0436    18483.894    5.0332102 
    3620     460.6099   -8976.2923   -8924.9105   -1717.4223    18473.926    5.0531592 
    3630    451.61807   -8975.7165   -8925.3379    -1097.695    18461.006     5.069987 
    3640     457.7835   -8976.8048   -8925.7384   -201.83159    18446.314    5.0826199 
    3650     462.6674   -8977.7394   -8926.1282    722.06827    18431.523    5.0947464 
    3660    459.87909   -8977.8094   -8926.5092    1322.0027    18418.312    5.1085405 
    3670    469.71635   -8979.2902   -8926.8926    1021.1242    18407.672     5.121643 
    3680    485.81402   -8981.5056   -8927.3123    512.78849    18399.116    5.1325923 
    3690    469.85906   -8980.1827   -8927.7692    895.15972    18391.824    5.1450595 
    3700    442.86516   -8977.6047   -8928.2024    1860.8213    18386.459    5.1619995 
    3710    442.63135   -8977.9708   -8928.5946    2140.6156    18384.556    5.1832243 
    3720    451.85264    -8979.372   -8928.9671    1507.1959    18386.545    5.2102728 
    3730    460.06442   -8980.6551   -8929.3342    418.41083    18391.242    5.2447362 
    3740    467.42664   -8981.8425   -8929.7004    -553.7204    18396.657    5.2856946 
    3750    463.22012   -8981.7371   -8930.0642   -1139.6516    18401.012    5.3304523 
    3760    451.78098   -8980.8119    -8930.415   -1143.2157    18403.271    5.3751763 
    3770    448.91489   -8980.8195   -8930.7424   -975.08698    18403.392    5.4164853 
    3780    459.80963   -8982.3537   -8931.0613   -1024.0451    18401.662    5.4509663 
    3790    462.32303   -8982.9643   -8931.3915   -928.05012    18398.101    5.4772186 
    3800    462.00138   -8983.2744   -8931.7375    -708.4418    18392.902    5.4961608 
    3810    462.93176   -8983.7414   -8932.1007   -770.90491    18386.419    5.5101905 
    3820    463.89236   -8984.2294   -8932.4815   -823.70709    18378.633    5.5239512 
    3830    467.77889   -8985.0607   -8932.8793   -1021.8896     18369.42    5.5423613 
    3840    479.37044   -8986.7843   -8933.3099   -1120.0042    18358.499    5.5655739 
    3850    488.80855   -8988.3205   -8933.7932    -707.4147    18345.795    5.5893131 
    3860    484.01098   -8988.3098   -8934.3177    317.93539    18332.128    5.6089001 
    3870     469.8195   -8987.2483   -8934.8392    1242.5304    18319.304    5.6209255 
    3880    470.82397   -8987.8485   -8935.3273    1247.6129    18308.915     5.625155 
    3890    492.71061   -8990.7934   -8935.8308    354.23136    18300.887    5.6234644 
    3900    487.06766   -8990.6981   -8936.3649   -302.88334    18293.738    5.6189978 
    3910    473.99314   -8989.7695   -8936.8949   -1044.4162    18286.155     5.617527 
    3920    473.72444   -8990.2532   -8937.4085   -1724.8309    18276.807    5.6263949 
    3930    473.00279   -8990.6738   -8937.9096   -2132.7986    18264.516    5.6486033 
    3940    468.55111   -8990.6666    -8938.399   -2180.9464    18248.598    5.6806234 
    3950    460.93973   -8990.2826   -8938.8641   -1134.0115    18229.169     5.717694 
    3960    458.00219   -8990.3728    -8939.282    695.13863    18208.201    5.7559796 
    3970    467.20076   -8991.7786   -8939.6617    2012.0858    18188.855      5.79148 
    3980    485.08971   -8994.1748   -8940.0624    2696.8711    18173.479    5.8218243 
    3990    479.08803   -8993.9611   -8940.5181    3749.2351     18163.45    5.8485305 
    4000    465.84678   -8992.9706   -8941.0046    4532.8973    18160.434    5.8735535 
    4010    483.75502   -8995.4858   -8941.5222    4110.4555    18165.565    5.8965422 
    4020    513.31709   -8999.3789   -8942.1176    2896.0493    18177.985     5.916408 
    4030    519.49313   -9000.7625   -8942.8123    1438.5814     18195.43    5.9334011 
    4040    515.80664    -9001.094    -8943.555   -434.38319    18215.117    5.9489126 
    4050    518.53334   -9002.1449   -8944.3017   -2463.5362    18233.567    5.9652153 
    4060    519.01148   -9002.9375    -8945.041   -3770.9355     18247.22    5.9846862 
    4070    528.51864   -9004.7587   -8945.8017   -4270.4449    18253.772    6.0108919 
    4080    539.33488   -9006.7948   -8946.6312   -4185.3086    18252.401    6.0474081 
    4090    537.75641   -9007.5232   -8947.5356   -3562.8648     18243.46    6.0942873 
    4100    523.93784   -9006.9069   -8948.4608   -2723.2991    18228.222    6.1489145 
    4110    519.71283   -9007.3318   -8949.3571   -1492.7064    18208.414    6.2095025 
    4120    532.39652   -9009.6307    -8950.241   -241.83567    18186.322    6.2739855 
    4130    534.94377   -9010.8334   -8951.1596    1116.2587    18164.317    6.3392702 
    4140    508.71138    -9008.814   -8952.0665    2434.0542    18144.871    6.4007266 
    4150    502.97288   -9009.0339   -8952.9265    2398.0797    18130.052    6.4526525 
    4160    517.62341   -9011.5382   -8953.7965    1530.4014    18119.783    6.4929486 
    4170    516.22157   -9012.2921   -8954.7068    1123.0284    18112.569    6.5257505 
    4180    496.05275   -9010.9314    -8955.596    1644.6429    18107.713     6.557143 
    4190    508.49075   -9013.1673   -8956.4444    1178.5875    18105.765    6.5910396 
    4200    533.59093   -9016.8479    -8957.325   -21.673225    18105.867    6.6291272 
    4210    528.25683   -9017.1799   -8958.2521   -490.33385    18106.075    6.6709724 
    4220    527.75164   -9018.0825    -8959.211   -1001.4157    18105.376     6.714193 
    4230     518.9459   -9018.0927   -8960.2035   -1242.3654    18102.931    6.7563025 
    4240    498.24196   -9016.7532   -8961.1736   -959.35893    18098.391    6.7963567 
    4250    507.03077   -9018.6749   -8962.1148   -788.32308    18092.203    6.8337504 
    4260     508.9902   -9019.8281   -8963.0495    -255.7166    18084.789    6.8710064 
    4270    511.02263   -9020.9759   -8963.9706    231.15112    18077.077    6.9116152 
    4280    514.56696   -9022.2898    -8964.889    374.20816    18069.917     6.955338 
    4290    513.25355   -9023.0625   -8965.8083    408.83751    18063.584     6.999245 
    4300    519.82414   -9024.7478   -8966.7606   -178.00889     18058.01    7.0435269 
    4310    519.95094   -9025.7617   -8967.7604    -730.8991    18052.233    7.0913483 
    4320    513.90003   -9026.0985   -8968.7722   -710.48001    18045.351    7.1433451 
    4330    509.76402   -9026.6287   -8969.7638   -708.34644    18037.301    7.1962226 
    4340    516.69233   -9028.3951   -8970.7573   -1142.0491    18028.048    7.2471125 
    4350    515.61884   -9029.2803   -8971.7622   -1885.8838    18016.891    7.2979084 
    4360    527.12141   -9031.6046   -8972.8034   -2890.3319    18002.508    7.3533534 
    4370    529.17039   -9032.9384   -8973.9086    -3006.671    17983.368    7.4177943 
    4380    513.11549     -9032.25   -8975.0112   -1681.0347     17959.47    7.4906366 
    4390    508.61889   -9032.7961   -8976.0589   -13.510331    17933.098    7.5669327 
    4400      504.776   -9033.3577   -8977.0492    1650.1534     17907.29     7.639941 
    4410    507.45998    -9034.623   -8978.0151    2477.1368    17884.822    7.7032084 
    4420    500.96475   -9034.8588   -8978.9754    2418.7387    17867.096    7.7547762 
    4430    507.95032   -9036.6068   -8979.9442    1311.8328    17853.824     7.793478 
    4440    517.65448   -9038.7026   -8980.9575    333.43341    17843.159    7.8237449 
    4450    500.62799    -9037.815   -8981.9692    251.15043    17833.448    7.8524697 
    4460    501.31131   -9038.8619   -8982.9399    37.456028    17824.337    7.8834568 
    4470     509.2481   -9040.7181   -8983.9107   -410.10256    17815.432    7.9177686 
    4480    502.57511   -9040.9405   -8984.8775    -694.3343     17806.02    7.9544787 
    4490    507.85581   -9042.5009   -8985.8488   -1276.6024     17795.53    7.9935886 
    4500    522.70215   -9045.1732    -8986.865   -2453.7914    17782.933    8.0369375 
    4510    534.33527   -9047.5889    -8987.983    -3618.061    17766.292    8.0890469 
    4520    526.37158   -9047.8797   -8989.1621   -3634.9247    17743.852    8.1521013 
    4530    530.04125   -9049.4909    -8990.364   -2884.7462    17715.707    8.2255577 
    4540    535.86367   -9051.3685   -8991.5921    -1753.428    17683.218    8.3064219 
    4550    531.78847   -9052.1419   -8992.8201    303.08572    17648.585    8.3904106 
    4560    515.31475   -9051.4671    -8993.983     2070.642    17615.253    8.4759383 
    4570    506.21567   -9051.5309   -8995.0617    2525.2124     17586.08    8.5639781 
    4580    517.10572   -9053.7926   -8996.1086      2122.74    17561.838    8.6508108 
    4590    529.47531   -9056.2603   -8997.1965    1241.5172    17541.741    8.7306835 
    4600    526.42328   -9057.0615   -8998.3382    342.22203    17524.241    8.8044287 
    4610    514.88705   -9056.9226   -8999.4862   -792.10048    17507.708    8.8761795 
    4620    521.65767   -9058.8348   -9000.6431   -1928.3629    17490.252    8.9487862 
    4630    518.76496   -9059.6959   -9001.8269   -2720.4791    17470.012    9.0226253 
    4640    517.91259   -9060.7835   -9003.0095   -3055.6815    17445.791    9.0972637 
    4650    536.28728   -9064.0731   -9004.2494   -3262.0013    17417.072    9.1734122 
    4660    540.58752   -9065.8489   -9005.5455   -2846.7589    17383.768    9.2527188 
    4670    560.75272   -9069.4661   -9006.9133   -2479.9951    17346.626    9.3369121 
    4680    571.82981   -9072.1811   -9008.3926   -1645.3194    17306.501    9.4281252 
    4690    546.36996   -9070.8242   -9009.8758   -690.49124    17264.893    9.5265921 
    4700    542.25541   -9071.7737   -9011.2843   -75.450599    17223.431    9.6305134 
    4710    557.18026   -9074.8391   -9012.6848    519.05112    17183.197    9.7371477 
    4720    565.20202   -9077.1755   -9014.1264    1343.1257    17145.226    9.8465343 
    4730    559.47361    -9077.999   -9015.5889    2712.8714    17110.863    9.9578036 
    4740    546.08063   -9077.9124   -9016.9962    3975.8583    17082.101    10.066359 
    4750    572.06495   -9082.2408   -9018.4261     3639.832    17060.486    10.166788 
    4760     572.5125   -9083.8188   -9019.9542    3288.0476    17045.473    10.255676 
    4770    557.21487   -9083.6294   -9021.4713    3057.3525    17036.295    10.330817 
    4780    579.43133   -9087.6601   -9023.0237    1880.6426    17032.158    10.391698 
    4790    566.75589   -9087.8649   -9024.6424    1434.9032    17031.297    10.442982 
    4800    538.20071   -9086.2104   -9026.1733     496.2039    17032.678    10.488284 
    4810    549.14184   -9088.8955   -9027.6379   -1395.5625    17034.683     10.52692 
    4820    564.40499   -9092.0959   -9029.1357   -2760.0939    17034.475    10.557114 
    4830    566.22016   -9093.8638   -9030.7011   -2896.3066    17030.074    10.581144 
    4840     569.4934   -9095.8486   -9032.3207   -3000.7772    17021.193    10.601232 
    4850    560.88306   -9096.5367   -9033.9694   -2930.1557    17007.882    10.615293 
    4860    570.94217   -9099.3204   -9035.6309   -3451.3634    16990.231    10.624417 
    4870    580.43483   -9102.1106   -9037.3623   -2979.7386    16967.871    10.636582 
    4880     564.3026   -9102.0394   -9039.0906   -1454.2564    16941.685    10.658667 
    4890    554.37047    -9102.566   -9040.7252    777.50833    16914.197    10.686778 
    4900    561.16619   -9104.9038   -9042.3048    2413.2484    16888.799    10.710358 
    4910    561.43111   -9106.5189   -9043.8904    3379.4238    16867.955    10.724164 
    4920    572.37109   -9109.3493   -9045.5004    4451.6916     16853.15    10.727553 
    4930     591.5841   -9113.2115   -9047.2194    4838.4153    16845.699    10.721889 
    4940    580.65615   -9113.8024   -9049.0294    4475.9946    16845.948    10.709286 
    4950    575.75395   -9115.0724   -9050.8462    2832.7328    16853.002    10.692512 
    4960     550.8518   -9114.0638   -9052.6155    1244.7372    16864.299    10.674914 
    4970    543.72246   -9114.9186   -9054.2655   -108.68476    16877.241    10.658219 
    4980    565.05533   -9118.9261   -9055.8934   -1372.4005    16889.673    10.648898 
    4990    578.62498   -9122.1442   -9057.5977   -2474.3026    16899.586    10.655704 
    5000    546.00308   -9120.2128   -9059.3053   -2186.2844    16905.557    10.681217 
Loop time of 1956.9 on 16 procs for 3000 steps with 864 atoms

Performance: 0.132 ns/day, 181.194 hours/ns, 1.533 timesteps/s
96.9% CPU use with 16 MPI tasks x 1 OpenMP threads

MPI task timing breakdown:
Section |  min time  |  avg time  |  max time  |%varavg| %total
---------------------------------------------------------------
Pair    | 424.68     | 1130.3     | 1927       |1473.7 | 57.76
Bond    | 0.00053906 | 0.0011387  | 0.0019767  |   1.6 |  0.00
Neigh   | 0.023024   | 0.053959   | 0.1001     |  10.4 |  0.00
Comm    | 12.451     | 560.57     | 1391.5     |1826.9 | 28.65
Output  | 0.26894    | 0.2821     | 0.47559    |   9.4 |  0.01
Modify  | 17.067     | 265.66     | 609.67     |1298.2 | 13.58
Other   |            | 0.01631    |            |       |  0.00

Nlocal:        54.0000 ave          81 max          28 min
Histogram: 5 0 1 0 0 2 2 2 2 2
Nghost:        552.188 ave         760 max         356 min
Histogram: 4 0 1 1 0 4 2 2 0 2
Neighs:         0.00000 ave           0 max           0 min
Histogram: 16 0 0 0 0 0 0 0 0 0
FullNghs:      3058.50 ave        5765 max         732 min
Histogram: 5 1 0 0 2 2 2 0 2 2

Total # of neighbors = 48936
Ave neighs/atom = 56.638889
Ave special neighs/atom = 0.0000000
Neighbor list builds = 300
Dangerous builds = 300
Setting up Verlet run ...
  Unit style    : metal
  Current step  : 5000
  Time step     : 0.001
Per MPI rank memory allocation (min/avg/max) = 8.895 | 8.911 | 8.921 Mbytes
Step Temp PotEng TotEng Press Volume c_msd[4] 
    5000    546.00308   -9120.2128   -9059.3053   -2186.2844    16905.557    10.681217 
    5010    541.93162   -9119.8876   -9059.4343   -1339.9018    16904.081    10.708813 
    5020    539.30565   -9119.9711   -9059.8107   -793.57294    16900.444    10.743753 
    5030    532.95018   -9119.8578   -9060.4064   -536.48536    16895.531    10.783409 
    5040    542.69919   -9121.7208   -9061.1819   -899.82203    16889.677    10.826326 
    5050    557.66453   -9124.2967   -9062.0883   -488.72296    16882.505    10.873965 
    5060    550.93737   -9124.4739    -9063.016     1145.092    16874.698    10.921722 
    5070    545.44823   -9124.6968   -9063.8513    2740.9955     16868.71    10.957716 
    5080    560.14664   -9127.1342    -9064.649    2651.2594    16866.849    10.974989 
    5090    551.23482   -9126.9569   -9065.4658     2105.372    16869.185    10.975013 
    5100    544.25403   -9127.0166   -9066.3042     1708.035    16874.901    10.964048 
    5110    555.51529   -9129.1728   -9067.2043    1479.2803    16883.381    10.946778 
    5120    544.47915   -9128.9094    -9068.172     1995.161    16894.411    10.925991 
    5130     538.1508   -9129.1894   -9069.1579     1614.943    16908.536    10.904391 
    5140    556.06877   -9132.2186   -9070.1883    115.61651    16925.095    10.886467 
    5150    529.39016   -9130.2951   -9071.2408    79.378164    16942.139    10.869503 
    5160    512.19936   -9129.3614   -9072.2248    307.28805    16959.382    10.844831 
    5170    532.19326   -9132.5586   -9073.1917   -22.643694    16977.036    10.811551 
    5180    511.57541   -9131.2359   -9074.1689    412.92372    16994.802    10.774245 
    5190    490.94997    -9129.853   -9075.0868    198.97913    17013.153    10.731908 
    5200    508.20477   -9132.6579   -9075.9669   -1114.8483     17031.66    10.684188 
    5210    507.51822    -9133.467   -9076.8526   -1966.6297     17048.41    10.633223 
    5220    501.91979   -9133.7018   -9077.7119    -2649.499    17061.941    10.577944 
    5230    511.83359   -9135.6638    -9078.568   -3117.7858    17071.147    10.518248 
    5240    494.49679   -9134.5721   -9079.4103   -2656.7685     17075.43    10.463194 
    5250    510.59081   -9137.2059   -9080.2488   -3032.6929    17075.239    10.423719 
    5260    533.16893   -9140.6508    -9081.175   -2659.3316     17070.23    10.401053 
    5270    505.49016    -9138.534   -9082.1458     266.4734    17061.329    10.391516 
    5280    483.68538   -9136.9943   -9083.0385    3518.9161    17052.957    10.387428 
    5290    501.96364   -9139.8961   -9083.9013    4719.3999     17050.01    10.382453 
    5300    512.67522   -9142.0074   -9084.8177    4485.2889    17054.537    10.376324 
    5310    501.23465   -9141.6821   -9085.7687    3253.3805    17066.149    10.368549 
    5320    503.88316   -9142.9077   -9086.6988    1210.2793    17082.886     10.35705 
    5330    508.88064   -9144.3896   -9087.6232   -632.33702    17101.572    10.344893 
    5340    486.97643   -9142.8347   -9088.5118   -1601.5557    17119.287    10.337319 
    5350    475.72726   -9142.3919   -9089.3238   -2592.0997    17134.304    10.334229 
    5360    482.38941   -9143.9064   -9090.0951   -3601.2817    17144.999    10.332021 
    5370    481.12861   -9144.5373   -9090.8667   -3665.5177    17149.914    10.329705 
    5380    475.37693   -9144.6573   -9091.6283   -3379.2711    17148.878    10.330697 
    5390    486.45361   -9146.6622   -9092.3976   -3212.9037    17142.287     10.34047 
    5400    486.85198    -9147.495   -9093.1859   -2727.4268    17130.544     10.35931 
    5410    478.95773   -9147.4025    -9093.974   -1520.0129    17114.534    10.380671 
    5420    477.12423   -9147.9509    -9094.727    36.824782     17096.18    10.399899 
    5430    484.96084   -9149.5581     -9095.46     1280.077    17077.929    10.419909 
    5440    489.87573   -9150.8526   -9096.2062    2727.5583    17061.873    10.443952 
    5450    494.99154   -9152.1936   -9096.9765    4278.2197    17050.345    10.471647 
    5460    497.73437   -9153.3223   -9097.7993    5333.5482    17045.723    10.495838 
    5470     469.7851   -9151.0504   -9098.6452    5984.5823    17049.716    10.507686 
    5480    445.02515   -9149.0716   -9099.4284    5113.9922    17063.191    10.502176 
    5490    461.86911   -9151.6731   -9100.1509    2547.0939    17084.677     10.48477 
    5500    459.01536   -9152.0116   -9100.8077   -113.83683    17110.254    10.468529 
    5510    452.40838   -9151.8372   -9101.3704    -2638.214    17135.571     10.45705 
    5520    478.23272   -9155.2434   -9101.8958   -5390.4595    17156.402    10.447695 
    5530    463.94109   -9154.1775   -9102.4242   -7145.6719    17168.444    10.441893 
    5540    461.08827   -9154.4189   -9102.9838   -7882.8891    17168.821    10.438591 
    5550    463.27924   -9155.2822   -9103.6027   -7233.5772     17156.47    10.441945 
    5560    461.78624   -9155.7764   -9104.2634   -5242.7184    17132.574    10.458692 
    5570    452.08373   -9155.3411   -9104.9105   -2653.0888    17100.415    10.492274 
    5580     443.0525   -9154.8961   -9105.4729    155.67882    17064.287    10.538729 
    5590    429.91858   -9153.8674   -9105.9093     3021.504    17028.827    10.589504 
    5600    433.51808   -9154.6067   -9106.2471    4922.5077    16998.489    10.637423 
    5610    429.81058   -9154.4848   -9106.5388    5839.3377    16976.263    10.676965 
    5620     431.9864   -9155.0181   -9106.8294    5780.9647    16963.477    10.703378 
    5630    444.52539   -9156.7198   -9107.1323    5247.6715    16960.016    10.715474 
    5640    456.77834   -9158.3932   -9107.4389    4125.6498    16964.882    10.714904 
    5650    454.89439   -9158.4712    -9107.727    2713.5963    16976.271    10.704575 
    5660    459.07505   -9159.1884   -9107.9779    242.51859    16991.672    10.691017 
    5670    478.29285   -9161.5704   -9108.2162      -2311.6    17007.239    10.680308 
    5680    479.44935    -9161.993   -9108.5098   -4164.9017    17018.924     10.67396 
    5690    462.24607   -9160.4455   -9108.8813   -4387.8516    17023.987    10.669634 
    5700    463.35034   -9161.0155   -9109.3281    -4190.705    17021.943     10.66845 
    5710    439.95552   -9158.9013   -9109.8236   -3172.7354    17013.332    10.679123 
    5720    429.65363   -9158.2246    -9110.296   -2328.6218    16999.757    10.704954 
    5730    462.53475   -9162.3435   -9110.7471   -2003.2954     16982.61     10.74258 
    5740    464.10875   -9162.9541    -9111.182   -459.00049    16962.756    10.784417 
    5750    446.66514   -9161.3887   -9111.5625    2077.7309    16942.694    10.821127 
    5760    447.04911   -9161.7445   -9111.8755    3626.1807     16926.18    10.848078 
    5770    465.11874   -9164.0618   -9112.1771    3958.2198    16915.595    10.867206 
    5780    465.35172   -9164.4202   -9112.5095    4105.2534    16911.501    10.881653 
    5790    453.72396   -9163.4816    -9112.868    3292.1748    16913.846    10.891523 
    5800    460.11318   -9164.5791   -9113.2528    1105.4251    16921.159    10.894084 
    5810    448.50766   -9163.6852   -9113.6535   -1346.0454    16930.037    10.892258 
    5820    427.81493   -9161.7449   -9114.0215   -3435.8342    16936.629    10.893923 
    5830    444.76849   -9163.9759   -9114.3613   -4510.7134    16937.769    10.906619 
    5840    449.46256   -9164.8339   -9114.6956   -3856.7365    16931.998    10.934438 
    5850    458.04265   -9166.1284    -9115.033    -2437.712    16920.367    10.975124 
    5860    467.56634   -9167.5412   -9115.3835   -1209.5381    16905.134    11.022618 
    5870    463.16501   -9167.4134   -9115.7466    66.671904    16888.388    11.070189 
    5880    459.82385   -9167.4088   -9116.1148    654.14931    16872.012    11.111846 
    5890    450.09581   -9166.6842   -9116.4753    1388.1476    16857.074    11.144441 
    5900    439.10548     -9165.79   -9116.8071    2291.6314    16844.718    11.168043 
    5910    448.26961   -9167.1268   -9117.1217    2023.7761    16836.057    11.185313 
    5920    453.54532   -9168.0366   -9117.4429    1313.1468    16830.681    11.201629 
    5930    447.66077    -9167.696   -9117.7588    855.18077    16827.553    11.220474 
    5940    474.10532   -9170.9799   -9118.0928   -451.45802    16825.694    11.241674 
    5950    470.67117   -9170.9816   -9118.4776   -1314.1335    16823.231    11.267677 
    5960    437.98455   -9167.7273   -9118.8695   -1241.9399    16818.892    11.300982 
    5970    434.15018   -9167.6486   -9119.2185   -1653.1334    16812.604    11.338256 
    5980    444.29768   -9169.0963   -9119.5342   -1992.0679    16803.885    11.374902 
    5990     441.2769   -9169.0536   -9119.8285    -808.6829    16792.485    11.408671 
    6000    441.48836   -9169.3358   -9120.0871    1052.3774    16780.168    11.439875 
    6010    465.15586   -9172.2256   -9120.3367    1992.7168    16769.601    11.466762 
    6020    468.42792   -9172.8749   -9120.6211    2901.9727    16762.389    11.483101 
    6030    448.02514   -9170.9064   -9120.9285    3545.2999    16759.829     11.48179 
    6040    443.99161   -9170.7555   -9121.2276    2253.6857    16762.537    11.462065 
    6050    450.65703   -9171.7684    -9121.497   -102.63891    16768.565     11.43528 
    6060    463.16717   -9173.4372   -9121.7703   -2549.7693    16774.307    11.418249 
    6070    457.17618   -9173.0809   -9122.0823   -4106.4242     16776.13    11.421892 
    6080    449.91588   -9172.6223   -9122.4335   -5072.2589     16771.56    11.447435 
    6090    453.19997   -9173.3591   -9122.8039   -4564.6059    16759.369    11.494243 
    6100    464.59951   -9175.0127   -9123.1859   -2703.6783     16740.51    11.558145 
    6110    450.00629   -9173.7429   -9123.5441   -226.06781    16717.923    11.629002 
    6120    438.37373   -9172.7383   -9123.8371    1970.3986    16695.429    11.697558 
    6130    462.81608   -9175.7284   -9124.1006    2295.1943    16676.176    11.759359 
    6140    466.49788   -9176.4328   -9124.3942    2409.8851    16660.844    11.811685 
    6150     444.9423    -9174.333    -9124.699    2833.9282    16649.572    11.854399 
    6160    452.17309   -9175.4485   -9125.0079    2465.4098    16642.753    11.890368 
    6170    453.06517   -9175.8634   -9125.3233    2189.6633    16639.867    11.924367 
    6180    449.40766   -9175.7725   -9125.6404    2022.4112    16640.402    11.956824 
    6190    458.61368   -9177.1221    -9125.963     1336.996    16643.961       11.984 
    6200    464.04499   -9178.0649      -9126.3    678.38425    16649.521    12.004759 
    6210    452.18189   -9177.0906    -9126.649    816.84467    16656.154    12.021997 
    6220    445.91583   -9176.7386   -9126.9961    771.53599    16663.906    12.037406 
    6230    430.55282   -9175.3396   -9127.3107    665.07535     16672.73    12.050432 
    6240    420.63462   -9174.4782   -9127.5557    499.18306    16682.432    12.061473 
    6250    428.69886   -9175.5509   -9127.7289   -55.452614    16692.707    12.071201 
    6260    440.64943   -9177.0024   -9127.8473   -889.41971    16702.708    12.077768 
    6270    448.83921    -9178.017   -9127.9484   -1301.9462    16711.264    12.078596 
    6280    435.86551   -9176.6692   -9128.0478   -1145.5385    16717.769    12.072895 
    6290       437.81   -9176.9752   -9128.1368   -1101.4019    16722.433    12.056902 
    6300    466.83251   -9180.3048    -9128.229   -1553.7575    16725.278    12.026917 
    6310    472.58622   -9181.0835   -9128.3658   -1246.3542    16725.778    11.987451 
    6320    449.46109   -9178.6885   -9128.5505    199.58659    16724.508    11.947903 
    6330    439.86175   -9177.8061   -9128.7388     1302.517    16723.513    11.908182 
    6340    443.87949   -9178.4217   -9128.9063    1727.1882    16724.445    11.862749 
    6350    443.32194   -9178.4906   -9129.0374    2010.4673    16728.044     11.80898 
    6360     452.2107   -9179.5834   -9129.1386    980.23334    16734.539     11.74885 
    6370    460.20758   -9180.5804   -9129.2436   -651.39608    16742.379    11.686101 
    6380    433.78156    -9177.731    -9129.342    -915.0094    16749.314    11.624901 
    6390    437.11336   -9178.1757   -9129.4151   -1062.0817    16754.729    11.569898 
    6400    459.05409   -9180.6874   -9129.4792   -1095.9388    16758.405    11.523749 
    6410    429.02565   -9177.4047   -9129.5463    224.72684    16760.531    11.485792 
    6420    411.51277   -9175.4789    -9129.574    1381.6554    16762.958    11.452994 
    6430    437.10892   -9178.3061   -9129.5459    1262.7112    16767.308    11.424555 
    6440     426.4434   -9177.0408   -9129.4704     1135.623    16773.598    11.404982 
    6450    435.08078   -9177.8935   -9129.3596    81.255912    16781.434    11.393754 
    6460    461.00546   -9180.6404   -9129.2146   -646.54258    16789.347     11.38953 
    6470     443.4937   -9178.5472   -9129.0748    241.18225    16796.395    11.389311 
    6480    438.18441   -9177.8205   -9128.9404    1083.2505    16803.735    11.385142 
    6490    459.65147   -9180.0681   -9128.7933    1144.0563    16812.562    11.378997 
    6500    463.77885   -9180.3765   -9128.6412    1091.8244    16823.096    11.379607 
    6510    481.59264    -9182.243   -9128.5206    770.82534    16835.155     11.38999 
    6520    463.08477   -9180.1057   -9128.4479    1324.4949     16848.42    11.405732 
    6530    455.72297   -9179.2525   -9128.4159    1561.3064    16863.571     11.41707 
    6540    463.10434   -9180.0504   -9128.3904    1050.9332    16880.923    11.422823 
    6550    471.45386    -9180.975   -9128.3836   -143.44889    16899.645    11.424341 
    6560    469.93202   -9180.8284   -9128.4067   -1974.7078    16917.803    11.419443 
    6570     444.0695   -9178.0004   -9128.4638   -3023.1038    16932.736      11.4073 
    6580    439.40202   -9177.5653   -9128.5493   -3766.4459    16942.726    11.391662 
    6590     460.0693   -9179.9831   -9128.6617   -4002.0523    16946.685    11.376645 
    6600    463.71235    -9180.543   -9128.8152    -2944.174    16944.409    11.363132 
    6610    440.89906    -9178.161    -9128.978    -1545.619    16937.503    11.347316 
    6620    444.34192   -9178.6873   -9129.1203   -1176.7598    16928.079    11.324564 
    6630     455.3177   -9180.0316   -9129.2402   -1094.6468    16916.894    11.292282 
    6640    470.25539   -9181.8276   -9129.3699    95.587452    16904.275    11.252828 
    6650    458.23418   -9180.6407    -9129.524     2497.662    16892.177    11.212946 
    6660    451.10434   -9180.0071   -9129.6857     4416.159    16884.168    11.176488 
    6670    469.92138   -9182.2997   -9129.8793    4703.1637    16883.032    11.138877 
    6680    484.02234   -9184.1417   -9130.1483    3785.4536    16889.193    11.095067 
    6690    487.08376   -9184.8502   -9130.5153     2016.374    16901.124    11.048948 
    6700    459.83576   -9182.2331   -9130.9377    462.35171    16916.127    11.008378 
    6710    456.44131   -9182.2821   -9131.3654   -634.73964    16931.755    10.977692 
    6720     470.0953   -9184.2353   -9131.7954   -1300.0467    16946.224    10.958092 
    6730    454.91983   -9182.9618   -9132.2148   -742.96364    16958.657    10.950412 
    6740    453.09062   -9183.1388   -9132.5959   -854.64573     16969.66    10.953238 
    6750    444.60923   -9182.5174   -9132.9206   -1517.0355    16979.091    10.963571 
    6760    437.82148   -9182.0174   -9133.1777    -1781.511    16986.068     10.97852 
    6770    457.98826    -9184.485   -9133.3957   -1924.5797    16990.111    10.995091 
    6780    454.25807   -9184.2755   -9133.6024   -792.18168    16991.233    11.011884 
    6790    442.91848   -9183.1973   -9133.7891    369.93808    16991.086    11.024836 
    6800    445.17831   -9183.6059   -9133.9456    395.37872    16991.377    11.030022 
    6810    444.44873   -9183.6541   -9134.0752    268.18082    16992.318    11.030212 
    6820     436.6926   -9182.8975   -9134.1838    726.38001    16993.773    11.029131 
    6830    430.09851   -9182.2356   -9134.2574     872.4247    16996.343    11.023475 
    6840    446.61102   -9184.1227   -9134.3025   -312.56136    17000.094    11.010825 
    6850    444.34945   -9183.9023   -9134.3345   -1083.3954    17003.375    10.993315 
    6860    434.50388   -9182.8255    -9134.356    -599.8938    17005.076     10.97132 
    6870    446.86577    -9184.195   -9134.3464   -160.03744    17005.818    10.945985 
    6880    456.26627   -9185.2087   -9134.3115   -6.3572487    17006.309    10.920968 
    6890    443.59789   -9183.7504   -9134.2664   -402.83593    17006.667    10.898136 
    6900    451.97678   -9184.6408   -9134.2221   -421.27812     17006.43    10.879191 
    6910    462.29047    -9185.751   -9134.1818   -228.34265    17005.552    10.870164 
    6920    471.72075   -9186.8002    -9134.179   -40.587387    17004.309    10.872801 
    6930    437.15681   -9182.9645    -9134.199    899.69294    17003.167    10.880905 
    6940    426.29769   -9181.7631    -9134.209    1090.0948     17003.37     10.88894 
    6950    455.79537   -9185.0319   -9134.1873    143.77562    17005.163     10.89919 
    6960    465.95124   -9186.1456   -9134.1681   -565.84175    17007.217    10.917804 
    6970    454.47637   -9184.8776     -9134.18    220.98935    17008.603    10.946706 
    6980    445.81339   -9183.9437   -9134.2125    1469.3691    17010.389     10.97789 
    6990    433.56459    -9182.601   -9134.2362    2324.0772    17014.503    11.006998 
    7000    465.84972   -9186.2249   -9134.2587    1707.7102    17022.146    11.034847 
    7010    463.10759    -9185.953   -9134.2927    845.46759    17032.486    11.064754 
    7020    428.57594   -9182.1229   -9134.3146    216.58142    17044.226    11.096106 
    7030    448.17751   -9184.2774   -9134.2825   -1697.0498    17056.037    11.122653 
    7040    449.57979   -9184.3693    -9134.218   -2879.7222     17065.17    11.141335 
    7050    437.47532   -9182.9626   -9134.1616   -3413.1186    17069.685    11.151204 
    7060    452.72919   -9184.6325   -9134.1299   -3953.0727    17068.592    11.155471 
    7070    445.63416   -9183.8279   -9134.1168   -3490.6176    17061.228    11.159918 
    7080    454.52611   -9184.8125   -9134.1094   -2397.2089    17048.328    11.165283 
    7090    460.61979   -9185.4709   -9134.0881   -806.76364    17031.688    11.167425 
    7100    458.51029   -9185.2022   -9134.0547    1406.5247    17013.942     11.16274 
    7110    456.02022   -9184.8733   -9134.0036    3659.1879    16998.626    11.146791 
    7120    446.43105   -9183.7387   -9133.9386    4457.3579    16989.107    11.119734 
    7130    445.63978   -9183.5836   -9133.8718    4117.8564    16986.654    11.086575 
    7140    439.01829   -9182.7735   -9133.8004     3202.282     16990.72      11.0512 
    7150    449.19767   -9183.8249   -9133.7162    1753.3615     16999.85    11.016663 
    7160    456.28448   -9184.5024   -9133.6032    135.15255    17011.715     10.98469 
    7170     462.7722   -9185.1054   -9133.4825   -1344.0555    17023.747    10.957588 
    7180    467.40076   -9185.5256   -9133.3864   -2602.2055    17033.571    10.942144 
    7190    452.17645   -9183.7673   -9133.3264    -3174.589    17039.236    10.944134 
    7200    447.88366   -9183.2478   -9133.2857   -2884.4111    17039.871    10.965665 
    7210    453.34694   -9183.8281   -9133.2566   -2411.4005    17035.855    11.006556 
    7220    447.84191   -9183.1982   -9133.2408   -1910.6422    17027.974    11.062823 
    7230    445.37288   -9182.9029   -9133.2209   -1129.9616    17017.116    11.126449 
    7240     463.9296   -9184.9412   -9133.1891   -163.27237    17004.514    11.188542 
    7250    473.06914   -9185.9253   -9133.1537    1520.4959    16991.849     11.24537 
    7260    474.61838   -9186.0753   -9133.1309    3221.4743    16981.728     11.29184 
    7270    468.97706   -9185.4639   -9133.1488    4126.3192    16976.737    11.319752 
    7280    461.18913    -9184.672   -9133.2257    4485.0814    16978.362    11.327508 
    7290    463.22692   -9185.0457    -9133.372    3943.6997    16987.046     11.31812 
    7300    456.34849   -9184.4788   -9133.5724    2421.8574    17001.841    11.295554 
    7310    455.14023   -9184.5684   -9133.7969    301.27272    17020.366    11.266458 
    7320    460.96742   -9185.4552   -9134.0336   -1936.5847    17039.221    11.238594 
    7330    462.53418   -9185.8891   -9134.2927   -3234.1741    17054.946    11.214773 
    7340    472.32187   -9187.2984   -9134.6102   -3885.2031     17065.39    11.192872 
    7350    457.13499   -9185.9932   -9134.9991   -3598.6726    17069.597    11.172525 
    7360     424.0528   -9182.6899   -9135.3861   -2655.4357    17068.046    11.154408 
    7370    433.08569   -9184.0272   -9135.7158   -1944.2643     17062.16    11.138845 
    7380    439.55206   -9185.0248   -9135.9921   -822.84049    17053.224    11.127171 
    7390    432.77001    -9184.481   -9136.2049     351.7485    17043.012    11.120822 
    7400    456.57372   -9187.3111   -9136.3796    520.07612    17033.286    11.120143 
    7410    448.50007   -9186.5789   -9136.5481    1064.7362    17024.539    11.129054 
    7420    416.13752   -9183.0995   -9136.6787    2161.6795    17017.689    11.149799 
    7430    445.53709   -9186.4725   -9136.7722    1631.9374    17014.107    11.179199 
    7440      452.313   -9187.3027   -9136.8465    1631.2741    17013.289    11.210531 
    7450    434.54055   -9185.3908   -9136.9172    1955.3191    17015.164    11.233123 
    7460    439.92756   -9186.0409   -9136.9663    1146.9923    17020.011      11.2424 
    7470    453.70955   -9187.6082   -9136.9963    189.39797    17026.686      11.2396 
    7480    452.67609   -9187.5288   -9137.0321   -555.72337    17033.634    11.227094 
    7490    439.79455   -9186.1332   -9137.0735   -282.71194     17039.82    11.207457 
    7500    445.33378   -9186.7799   -9137.1022   -357.77941    17045.469    11.185389 
    7510    449.73946   -9187.2823   -9137.1132   -749.78444      17050.5    11.167226 
    7520    435.92912   -9185.7331   -9137.1046   -823.53403     17054.36    11.154288 
    7530    454.70071   -9187.8036    -9137.081   -1013.6158    17056.866    11.144007 
    7540    464.33945   -9188.8609   -9137.0631   -1187.8272    17057.721    11.136588 
    7550    432.93244    -9185.355   -9137.0607   -717.68461    17056.763    11.133752 
    7560    426.41825   -9184.6035   -9137.0359   -840.00179    17054.543    11.135228 
    7570     445.7773   -9186.7006   -9136.9735   -1044.7685    17050.961    11.141469 
    7580    446.84395   -9186.7256   -9136.8795    -505.9015    17045.813    11.154068 
    7590    452.45843   -9187.2251   -9136.7527    718.54262    17039.952    11.175824 
    7600    459.54401   -9187.8494   -9136.5865    2113.2779    17035.295    11.206607 
    7610    457.47405   -9187.4253   -9136.3934    2874.1676    17033.992    11.237818 
    7620    457.93613   -9187.2694   -9136.1859    2572.4104    17037.175    11.261033 
    7630    460.59819   -9187.3448   -9135.9644    2002.9749    17044.491    11.274014 
    7640    464.91551   -9187.5911   -9135.7291    1499.3124    17055.041    11.278405 
    7650     471.9856   -9188.1434   -9135.4927    1129.0801    17068.017    11.277369 
    7660    461.26713   -9186.7184   -9135.2633    577.82854    17082.763    11.272429 
    7670     462.2196   -9186.5948   -9135.0335   -641.26554    17098.319    11.263809 
    7680    481.36612   -9188.4927   -9134.7956   -2254.3901    17112.725    11.253398 
    7690    471.77166     -9187.22   -9134.5932   -2626.7182    17123.604    11.246853 
    7700    440.63986   -9183.5879   -9134.4339   -2063.5287    17130.283    11.244018 
    7710    437.50629   -9183.0613   -9134.2569   -1477.7894    17133.546     11.24017 
    7720     465.1342   -9185.9219   -9134.0355   -1324.8579    17134.294    11.230937 
    7730    470.38868   -9186.2836    -9133.811   -1174.2694    17132.898    11.218947 
    7740    475.19669   -9186.6467   -9133.6378   -980.01885    17129.587    11.206782 
    7750    458.98572   -9184.7107   -9133.5101    131.38575    17124.813     11.19303 
    7760    456.52708   -9184.3341   -9133.4078    931.50124    17120.211    11.173605 
    7770    477.23256   -9186.5709   -9133.3349    626.02323    17116.956    11.147333 
    7780    466.01967   -9185.3012   -9133.3161    697.49018    17114.827        11.12 
    7790    462.88341   -9184.9733    -9133.338    361.80594    17113.799    11.092363 
    7800    476.66223   -9186.5492   -9133.3768   -367.53351    17113.307    11.062591 
    7810    473.81676   -9186.3036   -9133.4487   -382.12074    17112.326     11.03049 
    7820    459.74521   -9184.8427   -9133.5574    711.74324    17110.901    10.995886 
    7830    455.43174   -9184.4941     -9133.69    1621.5295     17110.61     10.95721 
    7840    474.86954   -9186.8389   -9133.8664    1825.4953    17112.868    10.916424 
    7850    471.43343   -9186.7122   -9134.1231    2186.4367    17118.167    10.883129 
    7860    466.92075   -9186.5537    -9134.468    1813.6012    17126.916    10.864208 
    7870    475.32449    -9187.916   -9134.8928    679.84695     17138.47    10.858273 
    7880    470.19204   -9187.8293   -9135.3787   -407.06012    17151.118    10.862158 
    7890    469.63708   -9188.2923   -9135.9036   -2030.0973    17162.963    10.874523 
    7900    459.61529   -9187.7041   -9136.4333   -3240.8968     17171.49    10.896194 
    7910    437.37335   -9185.6988   -9136.9092   -3215.5538    17174.826    10.924261 
    7920    438.13114   -9186.1524   -9137.2782   -2297.4611    17172.977     10.95451 
    7930    455.47037   -9188.3629   -9137.5545   -957.62806    17167.441    10.986643 
    7940    459.15002   -9188.9882   -9137.7693    633.55614    17160.428    11.022156 
    7950    453.69384    -9188.558   -9137.9477    2086.4932    17154.496    11.058383 
    7960    435.34785   -9186.6547    -9138.091    3168.5728     17151.99     11.08873 
    7970    442.34577   -9187.5527   -9138.2084    2672.9396    17154.463      11.1085 
    7980    454.99842   -9189.0773   -9138.3215    1485.4808     17161.23     11.11582 
    7990    443.46846    -9187.903   -9138.4335    520.74913    17170.426    11.111243 
    8000    441.28646   -9187.7545   -9138.5283   -533.77452    17180.414    11.095894 
    8010    444.51387   -9188.1762     -9138.59   -1401.5284    17189.516    11.074348 
    8020    454.62168   -9189.3551   -9138.6414   -2120.4023    17196.299    11.051395 
    8030    447.31139   -9188.5846   -9138.6863   -2183.3768    17199.687    11.032493 
    8040    448.44849   -9188.7504   -9138.7253   -1774.8657    17199.526    11.022048 
    8050    462.12542   -9190.3163   -9138.7655   -1443.3453    17196.431    11.018698 
    8060    463.19699   -9190.5043    -9138.834   -385.88046      17191.1    11.019977 
    8070    439.04057   -9187.8909   -9138.9153    1235.3556    17185.267    11.024672 
    8080    445.41261    -9188.674   -9138.9876    1532.4021    17181.294    11.028466 
    8090    465.54111   -9191.0021   -9139.0703    1109.7498    17179.772    11.027679 
    8100    452.87603   -9189.7005   -9139.1814    1064.9973    17180.167    11.022524 
    8110    445.46708    -9188.998   -9139.3054    935.32473    17182.311    11.017366 
    8120    453.87807   -9190.0666   -9139.4358   -105.80543    17185.818    11.021657 
    8130    438.00138   -9188.4195   -9139.5598   -928.47969    17189.164    11.041183 
    8140    424.39934   -9186.9904    -9139.648   -1472.2908    17191.024    11.071733 
    8150     434.4083   -9188.1479    -9139.689   -2235.5447    17190.416    11.103752 
    8160     437.8356   -9188.5496   -9139.7084   -2511.6876    17186.212    11.131938 
    8170    440.21839   -9188.8228   -9139.7158   -3071.4722    17177.827     11.15763 
    8180     448.2795   -9189.7201   -9139.7138   -2893.1215    17164.528    11.185914 
    8190    439.95371   -9188.7646   -9139.6871   -1140.9588    17146.769    11.219812 
    8200    458.54116   -9190.7831   -9139.6321    615.59245     17127.21    11.255045 
    8210     453.3149   -9190.1361   -9139.5682    1851.6417     17108.65    11.287686 
    8220    426.76197   -9187.0965   -9139.4906    3027.4379    17093.216    11.315248 
    8230    440.66456    -9188.529   -9139.3722    3072.2497     17082.62    11.330221 
    8240    452.48168   -9189.6766   -9139.2016    2878.4068    17077.048    11.331838 
    8250     462.0432   -9190.5421   -9139.0004    2776.7302    17076.212    11.326572 
    8260     481.8523   -9192.5621   -9138.8107    2358.3609    17079.841    11.321455 
    8270    461.02621   -9190.0931   -9138.6649    1867.2749    17087.298    11.317382 
    8280    436.21302   -9187.1996   -9138.5394     314.2198    17097.626    11.311787 
    8290    437.09425   -9187.1284   -9138.3699   -2530.2914    17108.185    11.305246 
    8300    449.42279   -9188.2782   -9138.1444   -4487.1412    17114.711    11.301718 
    8310    452.51862   -9188.3745   -9137.8953   -4673.1046    17114.163    11.305899 
    8320    451.78137   -9188.0415   -9137.6446   -3991.5599    17106.091    11.321803 
    8330    449.69353   -9187.5456   -9137.3817   -2712.6537    17091.633    11.351007 
    8340    451.60828   -9187.4752   -9137.0976   -1683.5784    17072.809    11.392186 
    8350    459.20142   -9188.0312   -9136.8066   -1338.9209    17051.224    11.443318 
    8360    461.16961    -9187.955   -9136.5108    44.597155    17027.755    11.500913 
    8370    454.42309   -9186.8894   -9136.1978    2307.4537    17004.612    11.557565 
    8380    462.06039    -9187.418   -9135.8745    4498.6808    16985.296    11.607488 
    8390    471.33204   -9188.1447   -9135.5669    5818.8023    16973.198    11.646988 
    8400    479.94048   -9188.8748   -9135.3367    5734.1205    16970.303    11.676892 
    8410    465.79315   -9187.1609    -9135.201    4824.0915    16976.531    11.701343 
    8420    466.50867   -9187.1705   -9135.1308    2809.6831    16990.322    11.720076 
    8430    477.23648   -9188.3209   -9135.0845    154.08487    17008.493    11.724985 
    8440    472.11227   -9187.7362   -9135.0713   -1749.1202    17026.952    11.713922 
    8450    458.19295   -9186.2105   -9135.0984   -3085.9067    17042.566    11.694322 
    8460    460.10059   -9186.4841   -9135.1592   -4393.0405    17053.114    11.673089 
    8470    462.59554   -9186.8572    -9135.254   -5170.4077     17056.61    11.657302 
    8480    483.33309   -9189.3382   -9135.4216   -5643.3032    17051.717    11.650983 
    8490    477.89658   -9189.0022   -9135.6922   -4138.3567    17037.995    11.654973 
    8500    447.06658   -9185.8754   -9136.0045   -855.72392    17017.947    11.667929 
    8510    455.94584   -9187.1642   -9136.3027    1395.3759    16996.502    11.686244 
    8520    462.46825   -9188.2181   -9136.6291    2609.4611    16977.302    11.708739 
    8530    437.26236   -9185.7365   -9136.9592    3548.3685    16962.401     11.73677 
    8540    457.20776   -9188.2896   -9137.2874    2837.8187    16952.985      11.7676 
    8550     461.9637   -9189.1686   -9137.6358    2167.9533    16948.182    11.794802 
    8560    449.73098   -9188.1541   -9137.9859    1627.4628    16946.893    11.816943 
    8570    467.34704   -9190.4594   -9138.3261    116.76002    16948.054    11.839276 
[...]
   22890    467.66045   -9207.5629   -9155.3947    1042.1342    17049.376     12.29163 
   22900    436.51081   -9204.0651   -9155.3717    437.00382    17064.934    12.275403 
   22910    443.44597   -9204.7992   -9155.3322   -1308.6198    17081.111    12.258895 
   22920    459.27035   -9206.5011   -9155.2688   -3045.4917    17095.258    12.242045 
   22930    464.73262   -9207.0739   -9155.2323   -4029.2297    17104.603    12.226331 
   22940    472.54369   -9207.9754   -9155.2624   -4525.8531    17107.443    12.212044 
   22950    459.64844   -9206.6353   -9155.3608   -3505.3982    17103.125    12.195339 
   22960    448.84927   -9205.5479   -9155.4781   -1438.1796    17093.188    12.171808 
   22970    461.84252   -9207.0976   -9155.5784    834.90456    17080.877    12.140326 
   22980     461.1621   -9207.1086   -9155.6653    3048.3967    17069.891    12.105554 
   22990     457.9007   -9206.8371   -9155.7576    4298.8622    17063.712    12.073302 
   23000    453.02483    -9206.387   -9155.8514    4200.4808    17064.342    12.046433 
   23010    455.01975   -9206.7027   -9155.9445    2918.9693    17071.633    12.024299 
   23020    467.70853   -9208.2301   -9156.0565    1547.0127    17083.686    12.007116 
   23030    460.80723   -9207.6203   -9156.2166    998.26542    17098.441    11.997314 
   23040    437.81012   -9205.2445   -9156.4061     1180.068    17115.034    11.996542 
   23050    454.92432   -9207.3435    -9156.596    645.73331    17133.525    12.000809 
   23060    467.39419   -9208.9256   -9156.7871     169.4768     17153.22    12.003575 
   23070    453.69933   -9207.5886   -9156.9777   -489.66314    17173.257    11.998602 
   23080    465.87433   -9209.1351   -9157.1661   -2458.3223    17192.363    11.985004 
   23090    461.97316   -9208.9122   -9157.3784   -4195.2652    17207.531    11.968902 
   23100    438.04699   -9206.4847   -9157.6199   -4377.1785    17216.055    11.954941 
   23110    438.58906   -9206.7756   -9157.8504    -4198.012    17217.401    11.947346 
   23120    456.39603   -9208.9833   -9158.0716   -3549.7072    17211.871    11.948848 
   23130    454.68969   -9209.0196   -9158.2983   -1688.9731    17200.632    11.956695 
   23140    444.54274   -9208.0982   -9158.5088    443.87515      17186.6    11.963305 
   23150    442.14632   -9208.0094   -9158.6873     1681.981     17173.12    11.963723 
   23160    437.12916   -9207.5974    -9158.835    2893.6143    17162.395    11.957556 
   23170    430.54365   -9206.9521   -9158.9243    3788.7209     17156.36    11.945772 
   23180    455.31259    -9209.757   -9158.9662    2875.6528    17156.266    11.931459 
   23190    473.37421   -9211.8145   -9159.0089    970.52718    17160.771    11.919766 
   23200    452.31987   -9209.5347   -9159.0778   -497.50526    17166.982    11.915424 
   23210    432.28896   -9207.3705    -9159.148   -1487.9407    17172.458    11.920031 
   23220    427.41465   -9206.8643   -9159.1856    -2014.794    17175.557    11.931647 
   23230    442.17264   -9208.5141   -9159.1891   -2287.5306     17175.39    11.947083 
   23240     454.9703   -9209.9382   -9159.1856   -2221.7057    17171.488    11.966887 
   23250    447.49709   -9209.1162   -9159.1973    -1733.682    17163.937    11.994058 
   23260    448.23982   -9209.2146   -9159.2128   -576.35042    17153.605    12.025474 
   23270    457.63694   -9210.2684   -9159.2183    889.00482    17142.332    12.052443 
   23280    452.43901   -9209.6832    -9159.213    2471.7808    17132.527    12.070618 
   23290    451.80833   -9209.6031   -9159.2032    3073.3245    17126.588    12.081236 
   23300    446.14069   -9208.9631   -9159.1955    3142.8553    17125.583    12.088748 
   23310    439.66855   -9208.2404   -9159.1947    2727.3826    17129.682    12.097282 
   23320     453.7714   -9209.8153   -9159.1964     1321.962    17138.146    12.108657 
   23330    456.18621   -9210.0852   -9159.1969   -102.56768    17148.844    12.119232 
   23340    444.45603    -9208.773   -9159.1933   -1062.3948    17159.513    12.124438 
   23350    449.83783   -9209.3618   -9159.1818   -1366.8349    17168.608    12.125994 
   23360    453.46247   -9209.7506   -9159.1662   -1282.9249    17175.534    12.128043 
   23370     456.1425   -9210.0448   -9159.1615    -1153.414    17180.368    12.135455 
   23380    451.12073   -9209.4896   -9159.1664   -1022.8282    17183.326    12.149737 
   23390    444.41669    -9208.746   -9159.1707   -1063.8316    17184.609     12.16751 
   23400    446.75628   -9209.0054   -9159.1691   -1360.2975    17184.111    12.184024 
   23410    451.36669   -9209.5169   -9159.1662   -1170.5416    17181.452    12.194636 
   23420    463.10631    -9210.841   -9159.1808   -879.60479    17176.847    12.194699 
   23430     461.2823   -9210.6829   -9159.2262   -823.95772     17170.71    12.182392 
   23440    448.52066   -9209.3318   -9159.2987   -583.85548    17163.194    12.163721 
   23450    436.03041   -9208.0051   -9159.3652    61.250948    17154.709      12.1461 
   23460    441.08565   -9208.6071   -9159.4033    471.58063    17146.179    12.131307 
   23470    451.25562   -9209.7387   -9159.4005    879.62864    17138.346    12.117991 
   23480    453.68917   -9209.9736   -9159.3639    1042.2276    17131.848    12.103349 
   23490    452.19717   -9209.7628   -9159.3195     777.0188    17126.942    12.089633 
   23500    461.96339    -9210.849   -9159.3163   -26.306785    17123.194    12.084425 
   23510    448.32077     -9209.38   -9159.3692   -486.93047    17119.424    12.091726 
   23520    440.51167   -9208.5888   -9159.4491   -478.05161    17114.876    12.109623 
   23530    447.02768   -9209.3857   -9159.5191     -164.371    17109.522    12.135809 
   23540    432.96969   -9207.8439   -9159.5454    680.84647    17103.934    12.168921 
   23550    442.24419   -9208.8481   -9159.5151    1356.9457    17099.388    12.205272 
   23560    449.80046   -9209.6099    -9159.434    1784.9976    17096.991    12.238844 
   23570    438.36004   -9208.2296   -9159.3299    2166.7693     17097.49    12.264039 
   23580    456.82076   -9210.1824   -9159.2234    1989.6578    17101.473    12.277702 
   23590    467.90162   -9211.3175   -9159.1224    1111.3307    17108.685    12.281007 
   23600    460.36779   -9210.4071   -9159.0524    -91.27625     17117.73    12.278932 
   23610    450.63627   -9209.2734   -9159.0043   -719.76561    17126.797    12.276411 
   23620    444.80743   -9208.5564   -9158.9374   -1110.0927    17134.807    12.275589 
   23630    459.48346   -9210.0902   -9158.8341   -1955.6267    17140.994    12.276132 
   23640      457.108    -9209.706   -9158.7149   -2887.5356    17144.028    12.277695 
   23650    456.39765   -9209.5213   -9158.6094   -3366.2691    17142.405    12.282642 
   23660    451.42925   -9208.8715   -9158.5139   -2556.1144     17135.43    12.292249 
   23670    446.47098    -9208.219   -9158.4145   -1372.6381     17124.23    12.305265 
   23680     446.9138   -9208.1435   -9158.2896    196.20161    17110.717    12.319198 
   23690    446.84385   -9207.9688   -9158.1227    1975.8078    17097.392    12.330857 
   23700    449.40595    -9208.051   -9157.9191    2932.5672    17087.052    12.339363 
   23710    451.82193    -9208.102   -9157.7005    3250.3697    17081.328    12.346164 
   23720    456.51862   -9208.4072   -9157.4819    3252.8627    17080.832    12.352092 
   23730    470.76034   -9209.7937   -9157.2797    2487.6972    17085.544    12.358451 
   23740    463.29545   -9208.7803   -9157.0989    1813.8665    17094.423    12.366898 
   23750    454.47789   -9207.6273   -9156.9296    1451.9226    17106.477     12.37707 
   23760    465.17583   -9208.6598   -9156.7687    189.88745     17120.94    12.387209 
   23770    460.89691   -9208.0539   -9156.6402   -1091.1006    17135.915    12.395474 
   23780    447.54307   -9206.4742   -9156.5501   -2094.7884    17149.332    12.398322 
   23790    455.41099   -9207.2646   -9156.4629   -3434.9781    17159.429    12.393879 
   23800    459.33118   -9207.6119   -9156.3729   -4275.0069     17164.06     12.38442 
   23810     449.9155   -9206.4811   -9156.2924   -3856.9674    17161.851    12.372649 
   23820    452.92619   -9206.7296    -9156.205   -3687.7124    17153.146     12.36139 
   23830    468.98525   -9208.4458   -9156.1298   -3177.0487    17138.281    12.353047 
   23840    453.08142   -9206.6043   -9156.0624   -920.02142    17118.308    12.346657 
   23850    456.26128   -9206.8683   -9155.9717    1470.5625    17096.643    12.337989 
   23860    479.05071    -9209.332   -9155.8932     3375.351    17077.099    12.327269 
   23870    461.67194   -9207.3799   -9155.8797    4958.4201    17062.848    12.319826 
   23880    462.58919   -9207.5432   -9155.9407    5158.2496    17056.345    12.317039 
   23890    470.72761   -9208.5739   -9156.0636    4397.2206    17058.051    12.314521 
   23900    460.66763   -9207.6273   -9156.2392    3606.5981    17066.977    12.308126 
   23910    460.71627   -9207.8438   -9156.4502    2116.2908    17081.829    12.296632 
   23920    464.20559   -9208.4578    -9156.675    -303.9138    17100.218     12.28314 
   23930    477.75973   -9210.2301   -9156.9353   -2847.5533    17118.315    12.272261 
   23940    469.19867   -9209.6124   -9157.2726   -4001.8218    17132.157     12.26398 
   23950    439.66759   -9206.7106    -9157.665   -3901.8991    17139.742    12.254057 
   23960    440.99546   -9207.2557    -9158.062   -3776.6863    17140.986    12.240134 
   23970    455.19195   -9209.2434    -9158.466   -3574.2337    17136.041    12.222724 
   23980    445.24568   -9208.5251   -9158.8573   -1948.2453    17125.392    12.202113 
   23990    449.59718   -9209.3559   -9159.2027   -169.68058    17111.416     12.17701 
   24000    460.80445   -9210.9131   -9159.5097    1375.8918    17096.953     12.14941 
   24010    446.88308   -9209.6175   -9159.7671    2072.5832    17084.451    12.124474 
   24020    451.40324   -9210.3397    -9159.985    1092.4836    17074.959    12.105675 
   24030    449.76342   -9210.3544   -9160.1826    468.40621    17067.234    12.095309 
   24040    446.59595   -9210.1804    -9160.362    1015.9419    17060.372    12.094354 
   24050    455.73344   -9211.3769   -9160.5392     1738.541    17055.107    12.102767 
   24060    442.26117    -9210.058   -9160.7231    2233.4184    17052.589    12.117397 
   24070    422.69801   -9208.0263   -9160.8737    2220.1334     17053.62    12.133516 
   24080    435.63605   -9209.5605   -9160.9647    1411.6523    17058.169    12.149356 
   24090    448.24189   -9211.0039   -9161.0019    470.97796    17065.054    12.165597 
   24100    451.52069   -9211.3877   -9161.0199   -68.857516    17072.854    12.183304 
   24110    443.43717   -9210.4888   -9161.0227   -766.10054    17080.624     12.20166 
   24120    439.98945   -9210.0842   -9161.0027   -1719.5448    17087.209    12.217209 
   24130    436.37515   -9209.6289   -9160.9506   -2629.0294    17091.049    12.227519 
   24140    438.09759   -9209.7486   -9160.8782   -2559.9576    17090.765    12.231812 
   24150    435.99572   -9209.4302   -9160.7942   -1453.5451    17086.422    12.230939 
   24160     443.3085   -9210.1497    -9160.698    -492.9078    17079.617    12.228152 
   24170    451.45417   -9210.9574    -9160.597    376.37777    17071.922    12.225809 
   24180    447.65293   -9210.4339   -9160.4976    1467.4436    17064.797    12.220804 
   24190    447.23177   -9210.2756   -9160.3862    1696.2558    17059.852    12.208026 
   24200    442.16442   -9209.5671    -9160.243    1050.4187    17057.504    12.185166 
   24210    448.69592   -9210.1266   -9160.0739    31.360703    17056.788    12.155205 
   24220     449.8602   -9210.0784   -9159.8958   -700.41018     17056.17    12.127087 
   24230    447.45783   -9209.6479   -9159.7333   -1370.6807    17054.407    12.109663 
   24240    438.45772   -9208.4899   -9159.5793   -1551.7684    17050.441    12.103549 
   24250    440.93593   -9208.5977   -9159.4106   -1342.3774    17043.924    12.103177 
   24260    459.57357   -9210.4872    -9159.221   -491.43782    17035.269    12.105833 
   24270    449.07771   -9209.1163    -9159.021    816.06826    17025.802     12.11151 
   24280    451.25972    -9209.149   -9158.8103    1646.8409    17017.488    12.119156 
   24290    463.67419   -9210.3057   -9158.5821    1956.8701    17011.659    12.128957 
   24300    452.64243   -9208.8458   -9158.3529    2684.0631    17009.046    12.139401 
   24310    459.89445   -9209.4301   -9158.1282    1949.7616    17010.526    12.146109 
   24320    464.33557   -9209.7016   -9157.9043    1074.9601    17015.219    12.148108 
   24330    458.10896   -9208.7978   -9157.6951    471.89467    17021.738    12.147022 
   24340    463.80748   -9209.2361   -9157.4977   -328.60828    17029.065    12.144544 
   24350    464.63387    -9209.141   -9157.3104   -1177.9722    17035.955    12.144048 
   24360    451.20364   -9207.4676   -9157.1352   -977.28053    17041.203    12.149406 
   24370    442.61663   -9206.3162   -9156.9417   -665.12877    17044.932    12.162576 
   24380    448.22168   -9206.6917   -9156.6919   -1141.8715    17047.509    12.182989 
   24390      453.352   -9206.9422   -9156.3701   -1810.6415    17048.243    12.207788 
   24400    473.89292   -9208.8502   -9155.9868   -1850.6661    17046.096    12.231446 
   24410    471.71362   -9208.1814    -9155.561    -748.9157    17041.047     12.24952 
   24420    466.39471   -9207.1518   -9155.1247    375.49874    17034.706    12.263882 
   24430    469.93566   -9207.0978   -9154.6757    794.11536    17028.783     12.27753 
   24440    464.31385   -9206.0298   -9154.2349    1048.1496     17024.07    12.289921 
   24450    464.98038   -9205.6915   -9153.8223    785.14011    17020.922    12.298866 
   24460    487.82715   -9207.8592   -9153.4414    358.02895    17018.975    12.302825 
   24470    493.27276   -9208.1403    -9153.115    416.49044    17017.667    12.302775 
   24480      484.983    -9206.973   -9152.8724     370.4703    17016.987    12.301595 
   24490    474.63313   -9205.6579   -9152.7119    1128.8881    17017.048    12.304665 
   24500     461.8156   -9204.1278   -9152.6116    1827.3902    17018.953    12.312965 
   24510    474.21555   -9205.4593   -9152.5598    955.78852    17023.621    12.323869 
   24520     487.7103   -9206.9847   -9152.5799   -523.82584    17029.855    12.336393 
   24530    478.34056   -9206.0611   -9152.7015   -1471.0163    17035.449    12.350462 
   24540    481.66585   -9206.6588   -9152.9282   -2381.0099     17038.73    12.368057 
   24550    472.48439    -9205.941   -9153.2347    -2531.414    17038.326    12.394554 
   24560    465.90449   -9205.5463   -9153.5739   -2295.5413    17033.837    12.431005 
   24570    484.32875    -9207.972   -9153.9444   -2122.6671    17025.488    12.473149 
   24580    472.63717   -9207.0693   -9154.3459   -1235.1556    17013.682    12.515425 
   24590    460.63284   -9206.1265   -9154.7422   -440.85058    16999.671    12.553839 
   24600    457.30469   -9206.1165   -9155.1035    1018.2045    16984.868    12.583645 
   24610    456.45623   -9206.3271   -9155.4087    3088.5716    16971.665    12.601268 
   24620    476.91912   -9208.9039   -9155.7029    4242.1851    16963.156     12.60769 
   24630    470.86809   -9208.5431   -9156.0171    4914.3558    16961.333    12.603399 
   24640    461.86663   -9207.8613   -9156.3394    4445.7436     16967.26    12.584411 
   24650    459.99318   -9207.9617   -9156.6488    2779.1837    16980.301    12.548247 
   24660    457.73456   -9207.9734   -9156.9124    973.32167    16998.017    12.500496 
   24670    470.06358   -9209.5629   -9157.1266   -894.41155    17017.525    12.448669 
   24680    474.32289   -9210.2186   -9157.3072   -2898.1122    17035.763    12.399435 
   24690    467.30233   -9209.6066   -9157.4783   -4264.1616    17049.599    12.357787 
   24700     456.9867   -9208.6361   -9157.6585   -5076.4493    17056.693    12.322553 
   24710    454.02044   -9208.4952   -9157.8486   -5125.8234     17055.67    12.288802 
   24720    461.97012   -9209.5831   -9158.0496   -4079.4026    17046.447    12.255491 
   24730    464.42016   -9210.0634   -9158.2566   -2229.7574    17030.622    12.222342 
   24740     456.1762   -9209.3557   -9158.4685    32.317144    17011.094    12.191592 
   24750    445.19577   -9208.3347   -9158.6724    2606.1412    16991.534    12.172642 
   24760    443.19215   -9208.2995   -9158.8608    4384.0895    16975.925    12.172501 
   24770    452.23152   -9209.4979   -9159.0508    5226.3271    16967.142    12.188519 
   24780    457.33409   -9210.2785   -9159.2622    5531.0531     16966.66    12.212048 
   24790    464.07772   -9211.2739   -9159.5053    4243.3068    16974.846    12.235603 
   24800    466.50073   -9211.8113   -9159.7724    1471.7297    16989.735    12.256284 
   24810    441.63299   -9209.2833   -9160.0185    -960.6909    17007.208    12.273449 
   24820    443.80209   -9209.7304   -9160.2236   -2680.3102    17023.356    12.286391 
   24830     442.6067   -9209.7651   -9160.3917   -3074.5444    17035.457    12.298928 
   24840    438.96653   -9209.5111   -9160.5437   -2531.3438    17042.755    12.316256 
   24850    455.09862   -9211.4671   -9160.7002   -1863.7985    17045.977    12.338614 
   24860    446.18022   -9210.6364   -9160.8643   -755.02322    17046.279    12.361286 
   24870    428.86234   -9208.8548   -9161.0146    242.73287    17045.326    12.378988 
   24880    441.38372   -9210.3662   -9161.1292    706.83083    17044.692    12.390784 
   24890     448.0678   -9211.2016   -9161.2189    531.07212    17045.118    12.397141 
   24900    445.09429    -9210.956    -9161.305    243.87172    17046.415    12.397759 
   24910    450.47679   -9211.6481   -9161.3967   -220.54388     17048.09    12.394486 
   24920    438.30268   -9210.3775   -9161.4841    -375.1863    17049.489    12.392769 
   24930    438.64635   -9210.4847   -9161.5531   -968.87037    17050.198    12.392326 
   24940    449.72957   -9211.7697   -9161.6017   -1174.8611    17049.402    12.384866 
   24950    432.11898   -9209.8347   -9161.6312   -150.63354    17046.869     12.36446 
   24960    429.77679    -9209.569   -9161.6267    1218.9341    17044.132    12.333811 
   24970    437.75771   -9210.4119   -9161.5794    2162.8918    17043.317    12.302788 
   24980    437.67797   -9210.3239   -9161.5003    2622.8131    17045.942    12.280041 
   24990    455.98797   -9212.2649   -9161.3988    2722.8432    17052.811     12.26565 
   25000    454.61897   -9211.9989   -9161.2855    2520.6881    17064.157    12.256891 
Loop time of 13407.9 on 16 procs for 20000 steps with 864 atoms

Performance: 0.129 ns/day, 186.220 hours/ns, 1.492 timesteps/s
96.9% CPU use with 16 MPI tasks x 1 OpenMP threads

MPI task timing breakdown:
Section |  min time  |  avg time  |  max time  |%varavg| %total
---------------------------------------------------------------
Pair    | 2056       | 7432.9     | 13123      |4861.7 | 55.44
Bond    | 0.0027816  | 0.0060406  | 0.0094461  |   3.4 |  0.00
Neigh   | 0.13201    | 0.38985    | 0.70717    |  34.0 |  0.00
Comm    | 222.28     | 4831       | 9516.5     |4924.7 | 36.03
Output  | 1.4218     | 1.4714     | 2.1952     |  15.4 |  0.01
Modify  | 58.988     | 1142.1     | 4948.5     |4561.9 |  8.52
Other   |            | 0.1052     |            |       |  0.00

Nlocal:        54.0000 ave          89 max          22 min
Histogram: 3 2 2 1 1 1 0 1 2 3
Nghost:        550.688 ave         787 max         348 min
Histogram: 4 0 2 2 0 2 1 2 1 2
Neighs:         0.00000 ave           0 max           0 min
Histogram: 16 0 0 0 0 0 0 0 0 0
FullNghs:      3104.12 ave        6209 max         515 min
Histogram: 5 1 2 0 1 1 0 2 0 4

Total # of neighbors = 49666
Ave neighs/atom = 57.483796
Ave special neighs/atom = 0.0000000
Neighbor list builds = 2000
Dangerous builds = 2000
Total wall time: 4:38:35
