LAMMPS (29 Sep 2021 - Update 3)
OMP_NUM_THREADS environment is not set. Defaulting to 1 thread. (src/comm.cpp:98)
  using 1 OpenMP thread(s) per MPI task
Reading data file ...
  orthogonal box = (0.0000000 0.0000000 0.0000000) to (17.171819 17.292452 83.119182)
  1 by 2 by 8 MPI processor grid
  reading atoms ...
  864 atoms
Finding 1-2 1-3 1-4 neighbors ...
  special bond factors lj:    0        0        0       
  special bond factors coul:  0        0        0       
     0 = max # of 1-2 neighbors
     0 = max # of 1-3 neighbors
     0 = max # of 1-4 neighbors
     1 = max # of special neighbors
  special bonds CPU = 0.002 seconds
  read_data CPU = 0.024 seconds
Neighbor list info ...
  update every 1 steps, delay 10 steps, check yes
  max neighbors/atom: 2000, page size: 100000
  master list distance cutoff = 6.22
  ghost atom cutoff = 6.22
  binsize = 3.11, bins = 6 6 27
  1 neighbor lists, perpetual/occasional/extra = 1 0 0
  (1) pair quip, perpetual
      attributes: full, newton on
      pair build: full/bin
      stencil: full/bin/3d
      bin: standard
Setting up Verlet run ...
  Unit style    : metal
  Current step  : 0
  Time step     : 0.001
Per MPI rank memory allocation (min/avg/max) = 8.894 | 8.900 | 8.906 Mbytes
Step Temp PotEng TotEng Press Volume c_msd[4] 
       0            0   -7174.3834   -7174.3834   -3403.7864    24681.648            0 
      10    59.886459   -7181.0715   -7174.3911    -3591.811    24681.648 0.0004428069 
      20    152.53511   -7191.4143   -7174.3988    -3532.456    24681.648 0.0053913133 
      30    183.53475   -7194.8677   -7174.3941   -2645.2133    24681.648  0.017829876 
      40    202.66462   -7197.0001   -7174.3926   -1813.5571    24681.648  0.032805386 
      50    235.34035   -7200.6482   -7174.3956    -1646.813    24681.648   0.04588816 
      60    247.94168    -7202.052   -7174.3938   -1842.2959    24681.648   0.05765331 
      70    253.09642   -7202.6277   -7174.3944   -2064.7915    24681.648  0.069436765 
      80    250.99467   -7202.3926   -7174.3937   -2200.0016    24681.648  0.082900901 
      90    246.12852   -7201.8494   -7174.3934   -2173.7127    24681.648  0.099028065 
     100    244.92959   -7201.7179   -7174.3956   -1978.8699    24681.648   0.11746343 
     110    242.28341    -7201.419   -7174.3919   -1729.6413    24681.648   0.13557848 
     120    255.22195   -7202.8655   -7174.3951   -1848.0783    24681.648   0.15075494 
     130    256.29683   -7202.9842   -7174.3939     -2007.52    24681.648   0.16545013 
     140    255.59143   -7202.9057   -7174.3941   -2078.8051    24681.648   0.17976362 
     150    254.71653    -7202.809    -7174.395   -2143.2247    24681.648   0.19317961 
     160    251.90206   -7202.4945   -7174.3944   -2001.6951    24681.648   0.20534635 
     170    250.97219   -7202.3902   -7174.3939   -1889.6105    24681.648   0.21663825 
     180     257.3806   -7203.1055   -7174.3943   -1934.6918    24681.648    0.2288925 
     190     260.3621   -7203.4402   -7174.3964   -1958.2977    24681.648   0.24328518 
     200    252.18366   -7202.5243   -7174.3928   -1925.8316    24681.648   0.25702409 
     210    258.35994    -7203.215   -7174.3946   -1990.3907    24681.648   0.26669152 
     220    260.53492   -7203.4573   -7174.3943   -1988.9024    24681.648    0.2748492 
     230    258.23338   -7203.2005   -7174.3942   -1795.6857    24681.648   0.28332799 
     240    252.93197   -7202.6085   -7174.3936   -1566.3378    24681.648   0.29247854 
     250    254.73094   -7202.8097   -7174.3941   -1512.6013    24681.648   0.30118823 
     260    260.13921   -7203.4133   -7174.3944   -1595.4355    24681.648   0.30980823 
     270    263.33316   -7203.7692    -7174.394   -1672.2968    24681.648    0.3193726 
     280    266.81067   -7204.1584   -7174.3953   -1641.3932    24681.648   0.32972958 
     290    262.39696   -7203.6654   -7174.3946   -1516.4449    24681.648   0.34016636 
     300    261.07623   -7203.5192   -7174.3957   -1490.2694    24681.648   0.34870802 
     310    256.60645    -7203.019   -7174.3942   -1424.9004    24681.648   0.35616095 
     320    255.12221   -7202.8537   -7174.3944   -1431.1943    24681.648   0.36426417 
     330    257.21766   -7203.0875   -7174.3944   -1535.2284    24681.648   0.37294434 
     340    260.71445   -7203.4781    -7174.395   -1738.4386    24681.648   0.38207588 
     350    260.87542   -7203.4955   -7174.3944   -1787.8195    24681.648   0.39203939 
     360    259.24296   -7203.3137   -7174.3948   -1801.5109    24681.648   0.40305256 
     370     256.8045   -7203.0415   -7174.3946    -1871.197    24681.648   0.41474987 
     380    253.74937   -7202.7006   -7174.3945   -2006.2935    24681.648   0.42675018 
     390     250.3984   -7202.3262   -7174.3939   -2133.6916    24681.648    0.4387225 
     400    253.59482   -7202.6831   -7174.3942   -2227.7267    24681.648   0.44925493 
     410    258.62293   -7203.2446   -7174.3948   -2242.4151    24681.648   0.45744528 
     420    260.59152   -7203.4634   -7174.3941   -2202.0252    24681.648   0.46381779 
     430    265.56276   -7204.0186   -7174.3947   -2285.5748    24681.648   0.46928077 
     440    267.29796   -7204.2122   -7174.3947   -2340.4066    24681.648   0.47466356 
     450     263.7688   -7203.8177   -7174.3939   -2324.3833    24681.648   0.47995391 
     460    263.97331    -7203.841   -7174.3944   -2444.9636    24681.648   0.48477747 
     470    265.08715   -7203.9653   -7174.3944   -2633.9331    24681.648   0.48948207 
     480    264.24939   -7203.8716   -7174.3942   -2661.2403    24681.648   0.49464966 
     490    265.03895   -7203.9596   -7174.3941   -2483.9795    24681.648   0.50051068 
     500     268.0228   -7204.2928   -7174.3944   -2130.0039    24681.648   0.50762008 
     510    269.68559   -7204.4783   -7174.3945   -1895.8231    24681.648   0.51677182 
     520     269.3401     -7204.44   -7174.3947   -1772.5691    24681.648   0.52791571 
     530      266.526   -7204.1254    -7174.394   -1820.7728    24681.648   0.53993524 
     540    268.21801   -7204.3142   -7174.3941   -1957.9364    24681.648   0.55113406 
     550    273.27905   -7204.8799   -7174.3952   -1952.1322    24681.648   0.56047872 
     560     270.7895   -7204.6017   -7174.3947   -1784.6397    24681.648   0.56820517 
     570    267.63087   -7204.2482   -7174.3935    -1644.341    24681.648   0.57439114 
     580    274.75017   -7205.0438    -7174.395   -1642.7538    24681.648   0.57908351 
     590    278.06846    -7205.414    -7174.395   -1634.7568    24681.648   0.58273182 
     600    275.33483   -7205.1086   -7174.3946   -1546.2732    24681.648   0.58557023 
     610    272.73058   -7204.8178   -7174.3943   -1362.5514    24681.648   0.58813395 
     620     275.6395   -7205.1428   -7174.3948   -1228.8054    24681.648   0.59107932 
     630    277.82637   -7205.3871   -7174.3952    -1223.228    24681.648   0.59521422 
     640    275.21147   -7205.0945   -7174.3942   -1328.0133    24681.648   0.60059579 
     650    276.76341   -7205.2679   -7174.3945   -1587.9159    24681.648   0.60632225 
     660    280.29592   -7205.6626   -7174.3951   -1876.3308    24681.648   0.61197812 
     670    278.94874   -7205.5114   -7174.3943   -1988.9252    24681.648    0.6176124 
     680    279.62887   -7205.5876   -7174.3946    -1854.874    24681.648   0.62312175 
     690    278.35671   -7205.4465   -7174.3954     -1626.67    24681.648   0.62896185 
     700    269.37243   -7204.4429    -7174.394   -1418.2553    24681.648   0.63559784 
     710    266.45521   -7204.1181   -7174.3946   -1472.5221    24681.648   0.64215216 
     720    265.84495   -7204.0503   -7174.3949   -1709.2555    24681.648   0.64781464 
     730    263.59964   -7203.7992   -7174.3943   -1848.2285    24681.648   0.65193307 
     740    266.57701   -7204.1317   -7174.3946   -1895.4286    24681.648   0.65412735 
     750    271.76415   -7204.7106   -7174.3949   -1968.2386    24681.648   0.65547825 
     760      275.029   -7205.0755   -7174.3956   -2013.6107    24681.648   0.65726746 
     770     271.0675   -7204.6326   -7174.3946   -1846.7085    24681.648   0.65945095 
     780    271.60028    -7204.692   -7174.3946   -1756.0037    24681.648   0.66122261 
     790    276.79844    -7205.273   -7174.3957   -1802.9901    24681.648   0.66298127 
     800    272.61055    -7204.805   -7174.3949   -1872.3043    24681.648    0.6665383 
     810    266.19836   -7204.0894   -7174.3945   -1968.7863    24681.648   0.67221854 
     820    263.38752   -7203.7759   -7174.3946   -2141.6217    24681.648   0.67891951 
     830    264.77149   -7203.9298   -7174.3941   -2417.3308    24681.648   0.68520732 
     840    272.58637    -7204.803   -7174.3955   -2752.0813    24681.648   0.69025418 
     850    272.65549   -7204.8097   -7174.3946   -2928.1991    24681.648   0.69428736 
     860    273.59711   -7204.9144   -7174.3942   -2900.3005    24681.648    0.6970968 
     870    278.19824   -7205.4288   -7174.3953    -2707.162    24681.648    0.6996263 
     880    276.53864   -7205.2424   -7174.3941   -2500.9253    24681.648   0.70364771 
     890    279.23786   -7205.5442   -7174.3948   -2415.7746    24681.648   0.70924281 
     900    280.95843   -7205.7363    -7174.395    -2364.961    24681.648   0.71595523 
     910    278.43861   -7205.4551   -7174.3949   -2292.0963    24681.648   0.72276909 
     920    274.58034   -7205.0239    -7174.394   -2145.7325    24681.648    0.7279473 
     930    277.12312   -7205.3082   -7174.3947    -2157.167    24681.648   0.73037655 
     940    279.73337   -7205.5996   -7174.3949   -2169.2816    24681.648   0.73135876 
     950    279.22126   -7205.5421   -7174.3945   -2172.7349    24681.648   0.73362662 
     960    279.34211   -7205.5558   -7174.3947    -2162.325    24681.648   0.73879001 
     970    278.76831   -7205.4918   -7174.3948   -2041.5721    24681.648   0.74667297 
     980    277.67235   -7205.3697   -7174.3949   -1885.6852    24681.648   0.75580397 
     990    276.23383    -7205.209   -7174.3947   -1855.7306    24681.648   0.76364754 
    1000    276.65338   -7205.2559   -7174.3948   -1804.2694    24681.648   0.76766421 
    1010    277.15823    -7205.313   -7174.3956    -1670.983    24681.648   0.76766874 
    1020    269.42126   -7204.4494   -7174.3951   -1424.7931    24681.648   0.76610705 
    1030     260.7554   -7203.4818   -7174.3941   -1215.0065    24681.648   0.76554395 
    1040    261.30906   -7203.5441   -7174.3947   -1098.2689    24681.648   0.76665088 
    1050    265.20034   -7203.9786   -7174.3951   -1049.7855    24681.648   0.76872121 
    1060    265.37142   -7203.9979   -7174.3953     -1168.93    24681.648    0.7710414 
    1070    262.30523   -7203.6545    -7174.394   -1216.5846    24681.648   0.77312784 
    1080     269.2805   -7204.4336   -7174.3949   -1303.2806    24681.648   0.77456841 
    1090    278.21465   -7205.4311   -7174.3958   -1474.4916    24681.648   0.77578562 
    1100    279.83218   -7205.6107    -7174.395   -1575.5621    24681.648   0.77731718 
    1110    283.74367   -7206.0469   -7174.3949   -1579.9493    24681.648   0.77887111 
    1120    290.78719   -7206.8334   -7174.3957   -1573.7467    24681.648   0.78005841 
    1130    290.95381   -7206.8511   -7174.3948   -1519.3089    24681.648   0.78128493 
    1140    291.42672   -7206.9042   -7174.3951   -1587.1629    24681.648   0.78343187 
    1150    288.83961    -7206.616   -7174.3955   -1727.5352    24681.648   0.78763344 
    1160    278.98488   -7205.5156   -7174.3944   -1780.0997    24681.648   0.79353187 
    1170     274.5083   -7205.0159   -7174.3941   -1742.9948    24681.648   0.79894507 
    1180    278.08142   -7205.4157   -7174.3953   -1700.4448    24681.648   0.80276226 
    1190    278.86175    -7205.502   -7174.3946   -1575.2201    24681.648    0.8050797 
    1200    282.48118   -7205.9064   -7174.3952   -1531.0337    24681.648   0.80550341 
    1210     282.2015   -7205.8756   -7174.3956   -1582.1964    24681.648    0.8047093 
    1220    273.66019   -7204.9216   -7174.3943   -1443.9202    24681.648   0.80424724 
    1230    271.02344   -7204.6278   -7174.3947   -1294.8219    24681.648   0.80553838 
    1240    273.21828   -7204.8729    -7174.395   -1344.7406    24681.648   0.80963811 
    1250    274.53804   -7205.0205   -7174.3953   -1557.8461    24681.648   0.81626207 
    1260    273.33761   -7204.8857   -7174.3945   -1709.4029    24681.648    0.8238996 
    1270    277.03845    -7205.299   -7174.3949   -1861.8941    24681.648   0.83066888 
    1280    279.60921   -7205.5866   -7174.3958   -1776.8315    24681.648   0.83577326 
    1290     271.8553   -7204.7208   -7174.3949   -1451.3285    24681.648    0.8390946 
    1300    264.41726   -7203.8899   -7174.3937   -1174.9198    24681.648   0.84015079 
    1310    270.14381   -7204.5298   -7174.3948   -1305.4319    24681.648   0.83955817 
    1320    276.28563    -7205.216   -7174.3959   -1616.8447    24681.648    0.8394972 
    1330    269.37516    -7204.444   -7174.3948   -1792.2063    24681.648   0.84108811 
    1340    263.66565    -7203.806   -7174.3937   -1787.5686    24681.648   0.84324181 
    1350    271.75636   -7204.7105   -7174.3956   -1789.9886    24681.648   0.84491174 
    1360    274.27239   -7204.9909   -7174.3954   -1904.3466    24681.648   0.84675977 
    1370    271.14124   -7204.6406   -7174.3944   -2044.7094    24681.648   0.84884467 
    1380    273.68352    -7204.925   -7174.3952   -2173.0979    24681.648   0.85060846 
    1390    275.02452   -7205.0744    -7174.395   -2215.3954    24681.648   0.85231893 
    1400    276.25601   -7205.2118    -7174.395   -2238.0373    24681.648   0.85406463 
    1410    278.84188   -7205.4999   -7174.3947   -2167.4859    24681.648   0.85604751 
    1420    283.63171   -7206.0351   -7174.3956   -2106.7356    24681.648   0.85860197 
    1430     281.5104   -7205.7981   -7174.3952   -2039.7153    24681.648   0.86172051 
    1440    277.08643   -7205.3037   -7174.3943   -2134.4004    24681.648   0.86445233 
    1450    280.14663   -7205.6458    -7174.395   -2425.0475    24681.648   0.86616941 
    1460    284.16882   -7206.0946   -7174.3952   -2629.1536    24681.648   0.86801931 
    1470    286.02648   -7206.3014   -7174.3947   -2499.1716    24681.648   0.87115512 
    1480    288.85345   -7206.6176   -7174.3956   -2167.0023    24681.648   0.87530865 
    1490    284.31956   -7206.1114   -7174.3951   -1635.6837    24681.648   0.87953488 
    1500    278.98283   -7205.5151   -7174.3941    -1216.743    24681.648   0.88285916 
    1510    281.81212   -7205.8323   -7174.3957   -1229.4385    24681.648   0.88582692 
    1520    276.49173   -7205.2381   -7174.3951   -1562.5155    24681.648   0.89044229 
    1530    268.60167    -7204.357   -7174.3941   -1832.8137    24681.648   0.89739602 
    1540    268.44471   -7204.3404   -7174.3949   -2013.3452    24681.648   0.90578469 
    1550    268.16938   -7204.3093   -7174.3946   -2010.8653    24681.648   0.91410017 
    1560    269.46062   -7204.4535   -7174.3947   -1942.9791    24681.648   0.92102099 
    1570    272.53021   -7204.7961    -7174.395   -1895.4867    24681.648   0.92617748 
    1580    274.16463   -7204.9785   -7174.3951   -1823.6829    24681.648   0.92969488 
    1590    274.08365    -7204.969   -7174.3945   -1694.8776    24681.648   0.93183336 
    1600    276.38809   -7205.2266   -7174.3951   -1582.4042    24681.648   0.93327697 
    1610    276.47515   -7205.2358   -7174.3946    -1514.064    24681.648   0.93523754 
    1620    278.82635   -7205.4983   -7174.3948   -1527.2623    24681.648   0.93825527 
    1630    283.05477   -7205.9703   -7174.3951   -1480.4486    24681.648   0.94238563 
    1640    283.75544   -7206.0487   -7174.3953   -1428.7453    24681.648   0.94810451 
    1650    279.65577   -7205.5907   -7174.3946   -1482.0142    24681.648   0.95569667 
    1660    277.97149   -7205.4028   -7174.3947   -1644.7201    24681.648   0.96460041 
    1670    277.63235   -7205.3655   -7174.3952   -1799.5694    24681.648   0.97399532 
    1680     273.1457   -7204.8646   -7174.3948   -1807.2549    24681.648     0.982653 
    1690     269.1131   -7204.4145   -7174.3945    -1848.628    24681.648   0.98867138 
    1700    269.43844   -7204.4513    -7174.395   -2023.5742    24681.648   0.99116369 
    1710    269.78252   -7204.4896   -7174.3949   -2209.0436    24681.648    0.9917874 
    1720    270.65906   -7204.5872   -7174.3948   -2303.1156    24681.648   0.99313368 
    1730    273.04698    -7204.854   -7174.3952   -2347.4849    24681.648   0.99679692 
    1740    274.23892   -7204.9868   -7174.3951   -2237.2262    24681.648    1.0035992 
    1750    273.69441   -7204.9263   -7174.3952   -2020.2102    24681.648    1.0135583 
    1760    270.40125   -7204.5585   -7174.3949    -1788.634    24681.648    1.0251981 
    1770    270.68343   -7204.5897   -7174.3946   -1549.0244    24681.648    1.0353833 
    1780    277.90453   -7205.3964   -7174.3957    -1511.742    24681.648    1.0415834 
    1790    279.00509   -7205.5188   -7174.3954   -1597.8653    24681.648    1.0442507 
    1800    277.00732   -7205.2948   -7174.3942   -1788.7028    24681.648    1.0451598 
    1810    282.39257   -7205.8967   -7174.3954   -2040.7403    24681.648    1.0459368 
    1820    284.13814   -7206.0911   -7174.3951   -2280.9528    24681.648    1.0481335 
    1830    282.91429   -7205.9545   -7174.3949   -2430.6285    24681.648    1.0523919 
    1840     281.3318   -7205.7782   -7174.3952   -2306.2747    24681.648    1.0583276 
    1850    277.24801   -7205.3224    -7174.395   -2023.8294    24681.648    1.0646013 
    1860    275.86189   -7205.1669   -7174.3941   -1648.8281    24681.648    1.0693247 
    1870    285.01658   -7206.1898   -7174.3957   -1237.5386    24681.648    1.0720376 
    1880    287.69204   -7206.4885    -7174.396   -948.96764    24681.648    1.0743863 
    1890    280.11635   -7205.6423   -7174.3949   -885.51677    24681.648    1.0774135 
    1900    276.31656   -7205.2185    -7174.395   -989.28796    24681.648    1.0809193 
    1910      276.623   -7205.2529   -7174.3952   -1167.7604    24681.648    1.0845535 
    1920    277.67777   -7205.3704    -7174.395   -1316.9346    24681.648    1.0879417 
    1930    280.71277   -7205.7092   -7174.3953   -1469.0337    24681.648    1.0909294 
    1940    281.53928   -7205.8014   -7174.3953   -1673.5867    24681.648     1.094033 
    1950    279.58172   -7205.5827    -7174.395   -1827.7357    24681.648    1.0978665 
    1960    278.22672   -7205.4318   -7174.3952   -1824.7991    24681.648    1.1027058 
    1970    275.53555   -7205.1314    -7174.395    -1644.041    24681.648    1.1084664 
    1980    273.96064   -7204.9552   -7174.3945   -1378.9505    24681.648    1.1145371 
    1990    277.66865   -7205.3694    -7174.395   -1245.5747    24681.648    1.1207676 
    2000    280.84548   -7205.7241   -7174.3953   -1211.1794    24681.648    1.1274187 
Loop time of 1724.29 on 16 procs for 2000 steps with 864 atoms

Performance: 0.100 ns/day, 239.485 hours/ns, 1.160 timesteps/s
97.8% CPU use with 16 MPI tasks x 1 OpenMP threads

MPI task timing breakdown:
Section |  min time  |  avg time  |  max time  |%varavg| %total
---------------------------------------------------------------
Pair    | 644.96     | 1392.9     | 1713.3     | 721.1 | 80.78
Bond    | 0.00016284 | 0.00069858 | 0.0011837  |   0.0 |  0.00
Neigh   | 0.017625   | 0.02717    | 0.039897   |   3.1 |  0.00
Comm    | 10.802     | 314.17     | 1053.6     |1491.5 | 18.22
Output  | 0.13315    | 8.5157     | 22.357     | 253.1 |  0.49
Modify  | 0.010053   | 0.012969   | 0.018715   |   1.6 |  0.00
Other   |            | 8.671      |            |       |  0.50

Nlocal:        54.0000 ave          68 max          38 min
Histogram: 2 0 1 2 1 3 1 3 1 2
Nghost:        453.312 ave         541 max         363 min
Histogram: 1 1 1 3 2 1 4 1 1 1
Neighs:         0.00000 ave           0 max           0 min
Histogram: 16 0 0 0 0 0 0 0 0 0
FullNghs:      1935.12 ave        2876 max         990 min
Histogram: 2 0 2 1 4 1 2 1 2 1

Total # of neighbors = 30962
Ave neighs/atom = 35.835648
Ave special neighs/atom = 0.0000000
Neighbor list builds = 199
Dangerous builds = 198
Setting up Verlet run ...
  Unit style    : metal
  Current step  : 2000
  Time step     : 0.001
Per MPI rank memory allocation (min/avg/max) = 8.894 | 8.901 | 8.907 Mbytes
Step Temp PotEng TotEng Press Volume c_msd[4] 
    2000        562.5   -7205.7241   -7142.9764    148.50183    24681.648    1.1274187 
    2010     517.4781    -7200.685   -7142.9595     386.7091    24681.908    1.1330136 
    2020    465.19508   -7194.7538   -7142.8606    601.52128     24683.21    1.1421909 
    2030    450.88175   -7192.8997   -7142.6032    483.30793    24686.063    1.1522476 
    2040    427.29131   -7189.8162   -7142.1513    443.07507    24690.261    1.1642171 
    2050    403.15919   -7186.5018   -7141.5288    440.44428    24695.687    1.1773847 
    2060     406.1901    -7186.096   -7140.7849    220.82908    24702.281    1.1899401 
    2070    416.60707   -7186.4902   -7140.0171   -116.98227     24709.48    1.2012547 
    2080    425.48166   -7186.7843   -7139.3212   -383.61155    24716.418     1.210842 
    2090    431.42119   -7186.8104   -7138.6847   -574.82753     24722.36    1.2191788 
    2100    439.93955   -7187.1283   -7138.0524   -635.53711    24726.791    1.2272751 
    2110    444.56988   -7186.9702   -7137.3777    -482.6656    24729.545    1.2357934 
    2120    444.02263   -7186.1817   -7136.6503   -288.23098    24731.013    1.2445197 
    2130    447.57155   -7185.7937   -7135.8664   -345.33107    24731.641    1.2533808 
    2140    458.38968   -7186.1659   -7135.0318   -452.31521    24731.318    1.2627229 
    2150    461.93814   -7185.6995   -7134.1696   -511.26058     24729.76    1.2720809 
    2160    453.04462   -7183.8451   -7133.3073   -508.87013    24726.823    1.2810065 
    2170     451.1329   -7182.7687   -7132.4441    -593.9336    24722.462    1.2895812 
    2180    455.00835   -7182.3173   -7131.5605   -532.53876      24716.5    1.2985343 
    2190    456.77665   -7181.6153   -7130.6612   -257.78552    24709.119    1.3080835 
    2200    462.24901   -7181.3146     -7129.75   -86.400724    24700.972    1.3168977 
    2210    475.06776   -7181.8178   -7128.8233   -24.120809    24692.522    1.3234744 
    2220    478.76703   -7181.2982   -7127.8911   -59.940373    24683.934    1.3287101 
    2230    470.84452   -7179.4981   -7126.9747   -205.65988    24675.103    1.3348301 
    2240    466.95816   -7178.1541   -7126.0642    -294.7068    24665.681    1.3432017 
    2250    479.33393   -7178.6055    -7125.135   -383.86987    24655.398    1.3538639 
    2260    490.34818   -7178.8857   -7124.1866   -449.73578    24644.008     1.365787 
    2270    494.19854   -7178.3743   -7123.2458   -338.10045    24631.371    1.3777656 
    2280     496.4982   -7177.7032    -7122.318   -154.31112    24617.748    1.3888354 
    2290    502.69534   -7177.4724    -7121.396   -65.043041      24603.6    1.3983638 
    2300     502.3992    -7176.524   -7120.4806   -115.77673    24589.151    1.4080165 
    2310    504.81618   -7175.8883   -7119.5753   -111.69276    24574.301    1.4194756 
    2320    506.04483   -7175.1214   -7118.6714    28.560912     24559.08    1.4325529 
    2330    514.78061   -7175.1898   -7117.7653    243.42599     24543.85    1.4450085 
    2340    524.59325   -7175.3769   -7116.8577    512.58081    24529.179     1.455189 
    2350    534.88951   -7175.6312   -7115.9634    788.26065    24515.789    1.4635596 
    2360     535.8905   -7174.8749   -7115.0956    901.86567    24504.387    1.4728012 
    2370    535.04438   -7173.9482   -7114.2632    906.27013    24495.306    1.4840828 
    2380    535.48531   -7173.1863   -7113.4521    862.25163    24488.589    1.4970043 
    2390    534.82422   -7172.3145   -7112.6541    668.63744    24484.103      1.51051 
    2400    551.77793   -7173.4131   -7111.8615    226.77835    24481.314    1.5245431 
    2410    552.81676   -7172.7543   -7111.0868   -59.997085    24479.162    1.5402674 
    2420    538.04274   -7170.3761   -7110.3566   -57.174172    24476.915    1.5567465 
    2430    528.84614   -7168.6389   -7109.6453   -17.231841    24474.513    1.5721555 
    2440    530.80277    -7168.133   -7108.9211   -16.269854    24472.042    1.5858911 
    2450    539.10331    -7168.314   -7108.1762    55.805488    24469.532    1.5974208 
    2460     554.7253   -7169.3038   -7107.4234    91.851338    24467.148    1.6064907 
    2470    570.54206   -7170.3302   -7106.6853    274.02392    24465.042     1.613444 
    2480    575.38646   -7170.1846   -7105.9993    631.94247    24463.693    1.6192544 
    2490    569.51123   -7168.9086   -7105.3788    890.49266    24464.012    1.6255465 
    2500    569.67648   -7168.3599   -7104.8116    636.93818    24466.595    1.6323711 
    2510    570.92246   -7167.9681   -7104.2808    375.89393    24470.944    1.6380737 
    2520    574.38602   -7167.8617   -7103.7881    430.12862    24476.446    1.6409807 
    2530    572.45524   -7167.1923   -7103.3341    780.81325    24483.249    1.6411597 
    2540    573.51477   -7166.8964     -7102.92    1105.4014    24492.242    1.6395682 
    2550    587.99424   -7168.1377    -7102.546    994.80331    24504.224    1.6380238 
    2560    585.29869   -7167.5138   -7102.2228    944.97816    24519.111    1.6399951 
    2570    577.52087   -7166.3823    -7101.959    936.07302    24536.779    1.6470431 
    2580    580.89635    -7166.535   -7101.7351    670.09954     24557.17    1.6584433 
    2590    589.12322   -7167.2647   -7101.5472    226.25433    24579.645    1.6722534 
    2600    590.83301   -7167.3144   -7101.4061   -28.761151    24603.118    1.6861604 
    2610    584.17631   -7166.4819   -7101.3161   -181.77567    24626.871    1.6994694 
    2620    583.99078   -7166.4217   -7101.2766   -563.93041    24650.394    1.7123688 
    2630    575.82825   -7165.5105    -7101.276    -856.9726    24672.732    1.7253301 
    2640    575.12666   -7165.4693   -7101.3131   -1000.1869    24693.053     1.737118 
    2650    573.69046   -7165.3792   -7101.3832   -1010.1053    24710.943    1.7465816 
    2660    573.31882   -7165.4367   -7101.4821    -1184.226    24726.262    1.7533556 
    2670    574.10276   -7165.6477   -7101.6057   -1485.8126    24738.516    1.7575637 
    2680    565.15352   -7164.7946   -7101.7509   -1577.8769    24746.897     1.759492 
    2690    565.59548   -7165.0024   -7101.9094   -1496.5668    24751.083    1.7583486 
    2700    566.58554   -7165.2822   -7102.0787   -1460.5099     24751.19    1.7558676 
    2710    561.99837    -7164.946   -7102.2542   -1464.6097    24747.285    1.7544367 
    2720    573.20584   -7166.3866   -7102.4446   -1512.1489    24739.292     1.754785 
    2730    572.31116   -7166.5041   -7102.6619   -1106.7039    24727.162    1.7576527 
    2740    561.62411   -7165.5444   -7102.8944   -519.71892    24711.899    1.7631722 
    2750     559.9336    -7165.584   -7103.1226   -349.48549    24694.915    1.7701153 
    2760    566.18001    -7166.506   -7103.3477   -243.37535    24676.757    1.7763542 
    2770    567.52545   -7166.8876   -7103.5793   -21.522595    24657.749    1.7802935 
    2780    575.35101   -7168.0045   -7103.8232    4.2009465    24638.395    1.7809084 
    2790    590.95807   -7170.0344   -7104.1121    66.838542    24618.816    1.7802684 
    2800    571.32999   -7168.1799   -7104.4472    571.21364    24599.294    1.7826714 
    2810    546.04994   -7165.6992   -7104.7866    899.98832     24581.01     1.787975 
    2820     530.1016   -7164.2081   -7105.0744    1047.4934    24564.906    1.7938638 
    2830    537.86622   -7165.2957   -7105.2959    1061.9002    24551.405    1.7984444 
    2840    559.37301   -7167.8763   -7105.4774    1048.5235    24540.592    1.8024092 
    2850    565.08112   -7168.6853   -7105.6496    1169.9546    24532.489    1.8081288 
    2860    569.74926   -7169.3842   -7105.8278    1463.1631    24527.499    1.8160325 
    2870    585.99534    -7171.407   -7106.0383    1534.9113    24526.351    1.8262995 
    2880    585.14861   -7171.5819   -7106.3077    1379.7447    24529.287     1.840203 
    2890    565.92231   -7169.7517   -7106.6223    1243.7139    24536.034    1.8571569 
    2900    554.58377    -7168.806   -7106.9413    1045.7502    24546.236     1.874155 
    2910    547.81495   -7168.3491   -7107.2395    992.88055    24559.496     1.889758 
    2920     530.7851   -7166.7016   -7107.4917    876.25047    24575.657    1.9050555 
    2930    522.90688   -7166.0039   -7107.6728    522.02431    24594.406    1.9194694 
    2940     523.3533   -7166.1475   -7107.7666    16.216698    24614.857    1.9319806 
    2950    529.99928   -7166.8954   -7107.7732   -517.58392    24635.703    1.9422443 
    2960    548.27204   -7168.8709   -7107.7103   -990.78262    24655.509    1.9507159 
    2970    560.10377   -7170.0909   -7107.6105   -1218.6748    24673.002    1.9592622 
    2980    552.77773   -7169.1641   -7107.5009   -1220.4899    24687.509    1.9690716 
    2990    539.56678    -7167.565   -7107.3755   -1291.4326    24698.884    1.9791305 
    3000    537.60621   -7167.1785   -7107.2077   -1491.8431    24706.873     1.987545 
    3010    544.04607   -7167.6789   -7106.9897   -1472.7773    24710.977    1.9945834 
    3020    541.26821   -7167.1054   -7106.7262   -1224.1671    24711.151    2.0020863 
    3030    545.86098   -7167.3129   -7106.4213   -854.03328    24708.006    2.0097846 
    3040    559.07521   -7168.4432   -7106.0775   -767.23614    24702.382    2.0167124 
    3050    574.79224    -7169.839     -7105.72   -889.13484    24694.497    2.0214209 
    3060    584.04422   -7170.5354   -7105.3844   -831.26931    24684.099    2.0246517 
    3070    585.19944   -7170.3754   -7105.0955   -644.57825    24671.293    2.0291287 
    3080    582.16118   -7169.8039    -7104.863   -468.65118    24656.542    2.0360377 
    3090    569.61111   -7168.2135   -7104.6726   -262.20461    24640.344    2.0463073 
    3100    563.45716    -7167.362   -7104.5075   -235.27277    24623.146    2.0599302 
    3110    539.74254   -7164.5369   -7104.3278   -82.559397    24605.108     2.075582 
    3120    537.85741   -7164.1085   -7104.1097    147.49005    24586.603    2.0901138 
    3130    547.47353   -7164.9064   -7103.8349    517.14363    24568.273    2.1021987 
    3140    553.25667   -7165.2396    -7103.523    817.85159    24551.062    2.1103332 
    3150    554.33614    -7165.025   -7103.1879    1078.2438    24535.839    2.1130797 
    3160    566.92594   -7166.0835   -7102.8421    1128.4546    24523.289    2.1126421 
    3170    576.61711   -7166.8245    -7102.502    1166.4343    24513.636    2.1137722 
    3180    594.92893   -7168.5596   -7102.1944    1165.2915    24506.993    2.1188088 
    3190     613.1444   -7170.3562    -7101.959    985.67983    24503.369    2.1292483 
    3200    613.08052    -7170.228    -7101.838     829.9821    24502.372    2.1443779 
    3210    606.29078   -7169.4719   -7101.8392    845.81833    24503.663    2.1607325 
    3220    607.53098   -7169.7281   -7101.9571    595.49358    24507.183    2.1762868 
    3230    597.77177    -7168.863   -7102.1807     276.5859    24512.362    2.1908739 
    3240    584.94126   -7167.7394   -7102.4883    109.58379    24518.398    2.2036105 
    3250    574.21023      -7166.9    -7102.846    325.75133    24524.937    2.2128539 
    3260    569.09356   -7166.7115   -7103.2283    481.35091    24532.441    2.2169081 
    3270    570.34143   -7167.2417   -7103.6192    351.98872    24541.318    2.2156352 
    3280    573.70982   -7168.0189   -7104.0207    252.91137    24551.322    2.2133999 
    3290    565.85373   -7167.5539   -7104.4321    523.58146    24562.289     2.216346 
    3300    556.13643   -7166.8707   -7104.8329    643.98811     24574.84    2.2270946 
    3310    563.02987   -7168.0234   -7105.2166    260.69004     24589.22    2.2442367 
    3320    564.69957   -7168.5813   -7105.5883    6.4187913    24604.619    2.2650658 
    3330     566.7779   -7169.1833   -7105.9584   -170.29532    24620.309    2.2868859 
    3340    559.98614   -7168.7889   -7106.3216   -52.400346    24635.846    2.3081943 
    3350     548.9106   -7167.8926   -7106.6608    320.94386     24651.54    2.3267895 
    3360    549.34513   -7168.2394   -7106.9591    435.88043    24668.279    2.3403479 
    3370    555.94736   -7169.2388    -7107.222     233.5932    24686.395    2.3510272 
    3380    558.01017    -7169.703   -7107.4562   -114.31214    24705.405    2.3623594 
    3390    560.26394   -7170.1678   -7107.6696   -481.25687    24724.356    2.3747427 
    3400    555.43281   -7169.8249   -7107.8656   -628.16406    24742.272     2.387573 
    3410    552.04894   -7169.6282   -7108.0463   -640.28936    24758.719    2.4009548 
    3420    552.41297   -7169.8352   -7108.2127   -661.18861    24773.614    2.4136462 
    3430    548.94806   -7169.6016   -7108.3656   -849.08643     24786.82    2.4227102 
    3440    535.72542    -7168.248    -7108.487   -1112.0273    24797.809    2.4275087 
    3450    527.90701   -7167.4331   -7108.5443   -1328.0379    24805.848     2.429477 
    3460    537.79704   -7168.5228   -7108.5307   -1463.2869     24810.33    2.4313533 
    3470    544.33184   -7169.1776   -7108.4565    -1308.122    24810.889    2.4374286 
    3480    549.08638   -7169.5911   -7108.3397   -952.17037    24807.903    2.4480854 
    3490    556.76989   -7170.3014   -7108.1929   -715.88427    24802.252    2.4599112 
    3500    561.75108    -7170.694   -7108.0298   -591.62953     24794.56     2.470243 
    3510    557.15466   -7170.0026   -7107.8511   -460.33698    24785.205    2.4788897 
    3520    560.19282   -7170.1512   -7107.6609   -620.70754     24774.44    2.4859562 
    3530    564.72964   -7170.4599   -7107.4635   -792.98578     24761.89     2.492559 
    3540    567.12294     -7170.53   -7107.2666   -798.02443    24747.133    2.5004868 
    3550    559.50005   -7169.4836   -7107.0706   -856.12802    24730.097    2.5102153 
    3560    550.87691   -7168.3209   -7106.8698   -1098.5514    24710.564    2.5204165 
    3570    557.72837   -7168.8734    -7106.658   -1092.1004    24687.968    2.5312174 
    3580    548.83713   -7167.6454   -7106.4218   -451.94337     24662.44    2.5443155 
    3590    543.27902    -7166.748   -7106.1444     381.0092    24635.613    2.5574443 
    3600    557.29262   -7167.9775   -7105.8107    909.24011    24609.616     2.566303 
    3610    575.11999   -7169.6039   -7105.4484    1202.1453    24585.922    2.5702638 
    3620    581.69192   -7169.9917   -7105.1031    1309.1376    24565.347    2.5713591 
    3630    584.64133   -7170.0215   -7104.8039    1184.9458    24548.186    2.5708968 
    3640    587.90009    -7170.148   -7104.5669    828.58467    24534.072     2.569621 
    3650    575.52656   -7168.5873   -7104.3864    747.56913      24522.2     2.568103 
    3660    578.87515   -7168.8237   -7104.2494    593.07854    24512.242    2.5676824 
    3670    576.06701   -7168.4011     -7104.14    405.54171    24503.823    2.5714281 
    3680    580.01561   -7168.7695   -7104.0679    178.33374    24496.441    2.5788562 
    3690    572.84329   -7167.9348   -7104.0333    159.55887    24489.557    2.5874062 
    3700    545.77504    -7164.895    -7104.013    322.40166    24483.096    2.5943656 
    3710    536.57718   -7163.8181   -7103.9621    512.71162     24477.47    2.5978641 
    3720    552.34897   -7165.4741   -7103.8587    530.31988    24473.149    2.5997987 
    3730    571.21408   -7167.4412   -7103.7214    297.34477     24470.18    2.6029606 
    3740    581.93332   -7168.5092   -7103.5937      180.581    24468.045    2.6081835 
    3750    570.29492   -7167.1091   -7103.4919     397.1762    24466.474    2.6151026 
    3760    565.99449    -7166.545   -7103.4075    454.19384    24465.915    2.6218388 
    3770    575.00415   -7167.4723   -7103.3297    193.46269    24466.485    2.6272544 
    3780    574.56193   -7167.3604   -7103.2672    137.57828    24467.633    2.6327842 
    3790    562.35859   -7165.9508   -7103.2188    293.69732    24469.223     2.640298 
    3800    571.79899   -7166.9587   -7103.1737    114.18574     24471.54    2.6492425 
    3810    589.28263   -7168.8781   -7103.1428   -74.081222    24474.181    2.6589688 
    3820    587.75402   -7168.7241   -7103.1592    77.357376    24476.719    2.6697378 
    3830    589.48464   -7168.9959    -7103.238    85.905623    24479.438    2.6807541 
    3840    589.64302   -7169.1709   -7103.3953    75.076844    24482.403    2.6920513 
    3850    579.96138   -7168.3454   -7103.6499    173.52477    24485.633    2.7045365 
    3860    574.20532    -7168.047   -7103.9935    120.26485    24489.329    2.7178698 
    3870    575.05563   -7168.5656   -7104.4172   -158.91056    24493.313    2.7316677 
    3880     573.6837   -7168.9158   -7104.9206   -332.89048    24496.942    2.7464055 
    3890    565.43157   -7168.5564   -7105.4817   -314.65302    24499.745    2.7625424 
    3900    557.45339   -7168.2405   -7106.0557   -320.02275    24501.724    2.7786965 
    3910    555.07134   -7168.5274   -7106.6084   -633.17256    24502.784     2.792533 
    3920    547.35719   -7168.1702   -7107.1117   -958.73871    24502.146    2.8040694 
    3930    545.52834   -7168.4033   -7107.5488   -1275.9873    24498.945    2.8149256 
    3940     546.2056   -7168.8457   -7107.9156   -1526.3821    24492.333    2.8266853 
    3950    550.77306   -7169.6605    -7108.221    -1422.099    24481.687    2.8390712 
    3960    544.48199   -7169.2053   -7108.4676   -1128.5926    24467.242    2.8526775 
    3970    537.97417   -7168.6587   -7108.6469   -1130.7993    24449.671    2.8685939 
    3980    545.12263    -7169.577   -7108.7678   -1253.4964    24429.017    2.8858738 
    3990    543.41259   -7169.4562   -7108.8377   -958.95051    24405.115    2.9025701 
    4000    534.03309   -7168.4223   -7108.8501   -462.37978    24378.701    2.9160453 
    4010     537.1052   -7168.7098   -7108.7949   -161.39668    24351.029    2.9246487 
    4020    550.51306   -7170.0985    -7108.688   -145.55474    24322.896    2.9291382 
    4030    548.33501    -7169.719   -7108.5514    49.813224    24294.471     2.932876 
    4040    536.93038   -7168.2751   -7108.3797    320.00578    24266.263    2.9381286 
    4050    543.30383   -7168.7687   -7108.1624    350.27923    24238.922     2.944076 
    4060    554.14641   -7169.7244   -7107.9086    516.18924    24212.614    2.9507636 
    4070    541.62719    -7168.041   -7107.6217    1192.3332    24187.897    2.9590898 
    4080    552.64011   -7168.9503   -7107.3025    1663.4813    24166.323    2.9682697 
    4090    567.93385   -7170.3111   -7106.9572    1844.8457    24149.086    2.9792552 
    4100    566.04153   -7169.7707    -7106.628    1844.1401    24136.665    2.9920618 
    4110    567.63511    -7169.651   -7106.3305    1849.4434    24129.063    3.0038924 
    4120    580.83439   -7170.8615   -7106.0686    1820.4748    24126.275    3.0136992 
    4130    592.42305   -7171.9487    -7105.863     1653.694    24128.204    3.0229966 
    4140    591.82591   -7171.7524   -7105.7333    1383.2367    24134.397     3.034558 
    4150    588.74795   -7171.3493   -7105.6736    1190.0975    24144.235    3.0508993 
    4160    586.41779   -7171.0883   -7105.6725    1012.7749     24157.17    3.0709715 
    4170    573.45246   -7169.6871   -7105.7177    1127.2086    24172.811    3.0911876 
    4180    563.42534   -7168.6406   -7105.7897    1147.3998    24191.359    3.1101037 
    4190    552.03054     -7167.44   -7105.8602    1001.7382    24212.848    3.1270128 
    4200    549.48524   -7167.2028   -7105.9069      663.698    24236.926    3.1385956 
    4210    562.94513   -7168.7289   -7105.9315   -140.24304    24262.618    3.1429522 
    4220    559.87105   -7168.3988   -7105.9443   -767.06156    24287.963    3.1441168 
    4230    552.09965   -7167.5392   -7105.9517   -1122.8557    24311.302    3.1475526 
    4240    545.16416   -7166.7474   -7105.9335   -1170.6124    24331.731    3.1552735 
    4250    555.84791   -7167.8906   -7105.8849   -1201.7498    24349.009    3.1659359 
    4260    552.96621   -7167.4886   -7105.8044   -845.65629    24363.185    3.1794019 
    4270    549.65291    -7167.007   -7105.6924   -533.45984    24375.074    3.1948803 
    4280    558.43947   -7167.8283   -7105.5336   -388.82798     24385.48    3.2108174 
    4290    558.32522   -7167.6053   -7105.3233   -383.40897    24394.797    3.2255919 
    4300    558.12645   -7167.3116   -7105.0517    -686.6344    24402.993     3.235983 
    4310    557.82065   -7166.9137    -7104.688   -934.07482    24409.351    3.2399082 
    4320    553.53351   -7165.9584   -7104.2109   -863.43651    24413.299    3.2392776 
    4330    557.41913   -7165.7868   -7103.6059   -802.00229    24414.923    3.2380885 
    4340    571.94349    -7166.688   -7102.8869   -438.26465    24414.491    3.2405916 
    4350    590.62762   -7168.0082   -7102.1228    255.11537     24412.98    3.2491345 
    4360    595.49271   -7167.8387   -7101.4106    1121.4295    24412.206    3.2632522 
    4370    601.61773   -7167.9321   -7100.8207    1536.0058    24414.325    3.2779218 
    4380    611.16676   -7168.5538   -7100.3772    1360.4401    24420.381    3.2887876 
    4390    606.57503   -7167.7498   -7100.0854    1177.5184    24430.055     3.294886 
    4400    593.91981   -7166.1753   -7099.9226    1021.9738    24442.829    3.2973187 
    4410    578.84776   -7164.4186   -7099.8473     891.0772    24458.278    3.2987493 
    4420      572.845   -7163.7202   -7099.8185    756.27548    24476.054    3.3018843 
    4430    577.46921   -7164.2379   -7099.8203    596.11715     24495.78    3.3076394 
    4440    570.65277   -7163.5051   -7099.8479    436.87551     24517.03    3.3156254 
    4450    569.67595   -7163.4416   -7099.8934    204.49898    24539.383      3.32393 
    4460     578.8505   -7164.5267   -7099.9551   -121.38373    24562.172    3.3317772 
    4470     583.8517   -7165.1789   -7100.0493    -263.9298    24584.594    3.3412521 
    4480    591.97252   -7166.2286   -7100.1932   -520.16536    24606.184    3.3535024 
    4490    601.59916   -7167.5172   -7100.4079   -924.60379     24626.26    3.3669403 
    4500     598.4755   -7167.4651   -7100.7043   -1223.4023    24643.787    3.3803791 
    4510    590.91966   -7166.9975   -7101.0795   -1198.8025    24657.991    3.3919338 
    4520    581.48269   -7166.3704   -7101.5051   -900.15799    24668.966    3.3998049 
    4530    583.08615   -7167.0066   -7101.9625   -809.55206    24677.398     3.402989 
    4540    581.79732   -7167.3352   -7102.4348    -865.1614    24683.583    3.4030334 
    4550    571.80131   -7166.6865   -7102.9012    -1137.767    24687.344    3.4026698 
    4560    553.00565   -7165.0041   -7103.3154   -1316.9036    24688.047    3.4051869 
    4570    550.04214   -7165.0135   -7103.6554   -1503.8698    24685.161    3.4107143 
    4580    548.31996   -7165.0849   -7103.9189   -1549.5235    24678.235    3.4153639 
    4590    564.51114   -7167.0992   -7104.1271   -1518.0377    24667.153    3.4152103 
    4600    592.41223    -7170.412   -7104.3275    -1440.964    24651.994    3.4114511 
    4610    597.66431    -7171.239   -7104.5687   -1080.3106    24633.055      3.40847 
    4620    584.94513   -7170.0973   -7104.8457   -576.16907    24611.306    3.4086012 
    4630    588.88351   -7170.8318   -7105.1409   -419.30654    24587.999    3.4114721 
    4640    594.63669   -7171.7968   -7105.4641   -459.49665     24563.61     3.416722 
    4650    588.14615   -7171.4206    -7105.812   -212.20262    24538.157    3.4233452 
    4660    585.68649   -7171.5046   -7106.1704    135.44797    24512.258    3.4305679 
    4670    580.82742     -7171.32   -7106.5278    556.35524    24486.878    3.4389672 
    4680    577.08429   -7171.2498   -7106.8751    570.44359    24463.005    3.4492176 
    4690    586.24244   -7172.6223   -7107.2261    71.725088    24440.642    3.4608971 
    4700    586.06476   -7172.9691   -7107.5927   -293.79529    24418.624    3.4720329 
    4710    575.38316   -7172.1545   -7107.9697   -416.88042    24395.985    3.4802891 
    4720    553.60877   -7170.0768   -7108.3209   -246.94771    24372.425    3.4860899 
    4730    533.66265   -7168.1261   -7108.5952   -42.347316    24348.331     3.492215 
    4740    536.44892   -7168.6197    -7108.778    114.84255    24324.249    3.5017372 
    4750    550.01267   -7170.2472   -7108.8925     265.9152    24300.597    3.5176848 
    4760    553.32029   -7170.6953   -7108.9716    422.27321     24277.77    3.5396979 
    4770    541.86955   -7169.4636   -7109.0173    544.78298    24256.172    3.5633156 
    4780    544.32854   -7169.7411   -7109.0204    654.56253    24236.129    3.5841398 
    4790    556.23082   -7171.0353   -7108.9869    754.10482    24217.884    3.6010109 
    4800    557.61375   -7171.1383   -7108.9356    932.58918    24201.732    3.6155007 
    4810    552.31653   -7170.4873   -7108.8755    963.32467    24188.065    3.6303356 
    4820    558.02985   -7171.0489   -7108.7998    821.63252    24176.923    3.6462389 
    4830     568.1087   -7172.0876   -7108.7142    810.21703    24168.023    3.6631508 
    4840    569.72825   -7172.1909   -7108.6369    867.09818    24161.287    3.6798223 
    4850    569.67731   -7172.1251   -7108.5767    977.58103    24156.846    3.6950801 
    4860    572.14444   -7172.3589   -7108.5353    1055.2476    24154.965    3.7080915 
    4870    572.65794   -7172.3966   -7108.5157    1075.9287    24155.839    3.7192395 
    4880    577.74599   -7172.9738   -7108.5253    1008.0475    24159.505    3.7288878 
    4890    577.46581   -7172.9887   -7108.5715    852.09047    24165.787    3.7373291 
    4900    566.59496   -7171.8546     -7108.65    618.37586    24174.278    3.7468347 
    4910    562.43097   -7171.4862   -7108.7462    236.37902    24184.325    3.7586888 
    4920    554.90961   -7170.7442   -7108.8432    52.526298    24195.025    3.7722112 
    4930    550.30889   -7170.3244   -7108.9366     43.21552    24205.873    3.7862783 
    4940    542.93904   -7169.5765   -7109.0109    237.89099    24216.878    3.8002459 
    4950    542.41541   -7169.5606   -7109.0533    214.77807    24228.453    3.8137772 
    4960    549.25427    -7170.327   -7109.0568   -25.689589    24240.537    3.8282088 
    4970    551.05392   -7170.4951   -7109.0242   -171.95834    24252.578    3.8440331 
    4980    538.01719   -7168.9637   -7108.9471   -176.30654    24264.196    3.8593999 
    4990    529.91251    -7167.914   -7108.8015   -168.35891    24275.363    3.8718868 
    5000    539.05303   -7168.6931   -7108.5609   -237.89064    24286.071    3.8808466 
Loop time of 2740 on 16 procs for 3000 steps with 864 atoms

Performance: 0.095 ns/day, 253.704 hours/ns, 1.095 timesteps/s
97.9% CPU use with 16 MPI tasks x 1 OpenMP threads

MPI task timing breakdown:
Section |  min time  |  avg time  |  max time  |%varavg| %total
---------------------------------------------------------------
Pair    | 1745.6     | 2438.4     | 2731.9     | 510.1 | 88.99
Bond    | 0.00027919 | 0.00085443 | 0.0013912  |   0.0 |  0.00
Neigh   | 0.029798   | 0.040272   | 0.052278   |   2.8 |  0.00
Comm    | 7.6333     | 244.09     | 877.39     |1462.7 |  8.91
Output  | 0.19112    | 0.19471    | 0.24619    |   3.0 |  0.01
Modify  | 0.18317    | 57.271     | 129.25     | 642.5 |  2.09
Other   |            | 0.01708    |            |       |  0.00

Nlocal:        54.0000 ave          65 max          44 min
Histogram: 1 2 0 2 3 5 1 0 0 2
Nghost:        448.812 ave         506 max         391 min
Histogram: 1 1 2 1 3 1 3 3 0 1
Neighs:         0.00000 ave           0 max           0 min
Histogram: 16 0 0 0 0 0 0 0 0 0
FullNghs:      1918.00 ave        2621 max        1320 min
Histogram: 2 1 1 2 4 3 1 0 0 2

Total # of neighbors = 30688
Ave neighs/atom = 35.518519
Ave special neighs/atom = 0.0000000
Neighbor list builds = 300
Dangerous builds = 300
Setting up Verlet run ...
  Unit style    : metal
  Current step  : 5000
  Time step     : 0.001
Per MPI rank memory allocation (min/avg/max) = 8.895 | 8.901 | 8.907 Mbytes
Step Temp PotEng TotEng Press Volume c_msd[4] 
    5000    539.05303   -7168.6931   -7108.5609   -237.89064    24286.071    3.8808466 
    5010    547.93982   -7169.6648   -7108.5412   -150.73609     24285.77    3.8837009 
    5020    547.24081   -7169.5312   -7108.4857    138.89148    24285.129     3.885876 
    5030    553.24187   -7170.1125   -7108.3975    186.86533    24284.801     3.888816 
    5040    563.93543   -7171.1941   -7108.2863   -32.887451    24284.913    3.8932478 
    5050    563.21264   -7170.9974   -7108.1702   -210.09152    24284.951    3.8981034 
    5060     547.6078   -7169.1347   -7108.0482   -71.546245    24284.511    3.9013722 
    5070    537.65644   -7167.8695   -7107.8931    78.778086    24283.874    3.9006927 
    5080    541.72687   -7168.1079   -7107.6775    91.434957    24283.404    3.8967195 
    5090    541.92923   -7167.8468   -7107.3938    232.95434    24283.208    3.8925668 
    5100    543.57429   -7167.6792   -7107.0427    250.38796    24283.586    3.8914741 
    5110    550.71063   -7168.0573   -7106.6247  -0.46487348    24284.555    3.8964126 
    5120    560.92524   -7168.7232   -7106.1512   -132.18295    24285.578    3.9067116 
    5130    579.06709   -7170.2499   -7105.6541   -359.55478    24286.229    3.9192298 
    5140    584.07132   -7170.3351    -7105.181   -443.21242    24285.984    3.9300991 
    5150    576.37451   -7169.0641   -7104.7686   -364.38092    24284.617    3.9356026 
    5160    578.83771   -7168.9891   -7104.4188   -235.30305    24282.296     3.935869 
    5170     576.9953    -7168.491   -7104.1263    7.1194763    24279.369    3.9352448 
    5180    580.89842   -7168.6934   -7103.8933    444.01186     24276.51    3.9349871 
    5190    593.61317   -7169.9374    -7103.719    718.96959     24274.77    3.9338543 
    5200    594.17633   -7169.9017   -7103.6205    707.19375    24274.832    3.9321743 
    5210    592.60752     -7169.71   -7103.6037    774.96948    24276.781    3.9283165 
    5220    590.83481   -7169.5667   -7103.6582    922.65234    24280.811    3.9217661 
    5230    582.40705    -7168.739   -7103.7706    854.15128    24287.225    3.9143073 
    5240    564.65588   -7166.8956   -7103.9074    846.30807    24295.952    3.9078157 
    5250    559.91089   -7166.4942   -7104.0353    839.09866     24306.98    3.9042696 
    5260     563.0792   -7166.9571   -7104.1448    759.39119    24320.266    3.9047042 
    5270    562.47123   -7166.9823   -7104.2377    669.90423    24335.639    3.9062851 
    5280     564.9114   -7167.3358   -7104.3191    390.12779    24352.817    3.9058496 
    5290    563.23701   -7167.2148   -7104.3849    237.98631    24371.175    3.9067489 
    5300    575.41432   -7168.6367   -7104.4484   -49.001444    24390.218    3.9121256 
    5310    578.70118   -7169.0806   -7104.5256   -34.792988    24409.322    3.9220112 
    5320    579.54385   -7169.2775   -7104.6285    53.356973    24428.458    3.9342642 
    5330    585.78839   -7170.1024   -7104.7568   -88.553619    24447.791    3.9482653 
    5340    593.16014   -7171.0869    -7104.919   -304.21426    24466.983     3.963496 
    5350    597.76173   -7171.8102    -7105.129   -669.89613    24485.421     3.977378 
    5360    585.01296   -7170.6356   -7105.3765   -835.29724    24502.213    3.9893558 
    5370    573.74923   -7169.6396   -7105.6371   -875.64413    24516.874    3.9988664 
    5380    564.93338   -7168.8987   -7105.8795   -921.15988    24529.261    4.0065196 
    5390    566.52602   -7169.3002   -7106.1034   -837.57246    24539.256    4.0151901 
    5400     561.9533   -7168.9947    -7106.308   -706.64113    24547.067    4.0296708 
    5410    557.99191   -7168.7353   -7106.4905   -675.73643    24552.986    4.0508865 
    5420    555.02832   -7168.5573   -7106.6431   -565.50501    24557.136    4.0746664 
    5430    556.44537   -7168.8385   -7106.7662   -525.91319    24559.771    4.0962877 
    5440    554.87995   -7168.7612   -7106.8635   -462.69319    24561.017    4.1128893 
    5450    557.85496   -7169.1715    -7106.942   -511.16174    24560.995    4.1236054 
    5460    553.01179    -7168.693   -7107.0037   -623.82205    24559.569    4.1301433 
    5470    549.48748   -7168.3392   -7107.0431   -651.46156    24556.481    4.1348769 
    5480    564.32977   -7170.0152   -7107.0633   -684.45099     24551.62    4.1398516 
    5490    567.79837   -7170.4236   -7107.0848   -505.01184    24544.933    4.1469545 
    5500    559.36601   -7169.5143   -7107.1162    -369.4952    24536.829     4.156237 
    5510    561.07928   -7169.7351   -7107.1458   -495.55312    24527.601    4.1665803 
    5520     566.7515   -7170.3978   -7107.1758    -615.9465    24516.984    4.1781425 
    5530    558.84499   -7169.5435   -7107.2035   -699.61046    24504.665    4.1907544 
    5540    562.82579   -7170.0092   -7107.2251   -713.31389    24490.387    4.2025511 
    5550    565.30197   -7170.3017   -7107.2414   -303.14047    24474.194    4.2135812 
    5560    561.04046   -7169.8409    -7107.256    152.37468    24457.098    4.2237789 
    5570    574.83129   -7171.4024   -7107.2792    107.64792    24440.168    4.2306306 
    5580    589.28814   -7173.0762   -7107.3402    49.192658    24423.407    4.2349155 
    5590    575.15904   -7171.6142   -7107.4543    304.65944    24406.739    4.2393798 
    5600    565.30033    -7170.669   -7107.6088    642.79747    24390.797    4.2436825 
    5610    569.34799    -7171.299   -7107.7874    864.76566    24376.433     4.247166 
    5620    578.39784    -7172.531   -7108.0098    966.53008    24364.255    4.2513767 
    5630    573.50484   -7172.2747   -7108.2994    832.59545    24354.516    4.2585822 
    5640    562.74295   -7171.4306   -7108.6558     492.6567     24346.89    4.2696985 
    5650    552.91982   -7170.7417   -7109.0627    193.43389    24340.538    4.2841552 
    5660    543.30802   -7170.0931   -7109.4863   -110.64815    24334.658    4.2998852 
    5670    550.33331   -7171.3149   -7109.9244   -448.51546    24328.451    4.3147088 
    5680     543.9117   -7171.0437   -7110.3695   -481.01427    24321.093     4.329322 
    5690    539.34886    -7170.963   -7110.7979   -362.42491    24312.448    4.3440781 
    5700    548.31836   -7172.3703   -7111.2045   -395.98974    24302.737    4.3576941 
    5710     551.4998   -7173.1129   -7111.5923   -237.17932    24291.958    4.3674517 
    5720    544.16647    -7172.662   -7111.9594  -0.80436181    24280.469    4.3719891 
    5730    529.36713   -7171.3246   -7112.2729    181.09539    24268.877    4.3716334 
    5740    537.82414   -7172.5166   -7112.5215    29.851207     24257.57    4.3657358 
    5750    550.27021   -7174.1043   -7112.7209   -13.045319     24246.28    4.3560905 
    5760     553.6502   -7174.6523   -7112.8917    133.13855    24234.892    4.3484306 
    5770    554.99437   -7174.9539   -7113.0435    524.03333     24223.79    4.3466822 
    5780     552.3818   -7174.7926   -7113.1736    1056.7033     24213.98    4.3503825 
    5790    549.29256   -7174.5564    -7113.282     1332.335    24206.793    4.3568958 
    5800    545.94173   -7174.2681   -7113.3674    1224.0917    24202.956     4.363113 
    5810    550.07741   -7174.7907   -7113.4288    905.88494     24202.25    4.3665974 
    5820    553.26018   -7175.1838   -7113.4668     793.0792    24203.979    4.3691966 
    5830    539.57013   -7173.6602   -7113.4704    1009.2024    24207.901    4.3737497 
    5840    540.88794   -7173.7607   -7113.4239    1130.5807    24214.508    4.3800206 
    5850    551.04221   -7174.7913   -7113.3217    934.70414    24224.095    4.3890707 
    5860     539.4995    -7173.346    -7113.164    806.80123      24236.3    4.4019385 
    5870     523.2595   -7171.2996   -7112.9292    719.72093    24250.792    4.4155271 
    5880    521.52739   -7170.7397   -7112.5625    600.86419    24267.356    4.4265904 
    5890    531.00782   -7171.2473   -7112.0125      381.769    24285.693     4.435066 
    5900    528.92361   -7170.2747   -7111.2725    203.42407    24305.289    4.4430223 
    5910    536.32422   -7170.2123   -7110.3846   -164.81008    24325.613    4.4501528 
    5920    546.45419   -7170.4023   -7109.4445    -485.9305     24345.77    4.4559988 
    5930    551.73681   -7170.1528   -7108.6057   -585.10525    24364.942    4.4623764 
    5940     551.2534   -7169.4418   -7107.9486   -633.67914    24382.792    4.4721197 
    5950    545.32295    -7168.291   -7107.4594    -666.9862    24399.178    4.4845508 
    5960    552.45264   -7168.7043   -7107.0774   -940.39838    24413.904     4.495625 
    5970    553.70968    -7168.525   -7106.7579   -953.93279    24426.375    4.5031365 
    5980    555.61758   -7168.4618   -7106.4818   -879.45073    24436.471    4.5070724 
    5990    560.45974   -7168.7499   -7106.2298   -895.14064    24444.307    4.5089191 
    6000     562.5495   -7168.7514   -7105.9982   -720.00125    24449.896    4.5110416 
    6010    565.53188   -7168.8682   -7105.7822    -594.3323    24453.635    4.5165092 
    6020    579.10602   -7170.1886   -7105.5885   -781.48389    24455.756    4.5273516 
    6030    582.20969     -7170.38   -7105.4337   -657.06849    24455.904    4.5428343 
    6040    565.89086   -7168.4462   -7105.3202   -307.84772    24454.359    4.5604761 
    6050    563.04653   -7168.0321   -7105.2235   -408.52593    24451.867     4.576483 
    6060    573.76608   -7169.1346   -7105.1301   -955.82145    24448.158    4.5880603 
    6070    573.22729    -7169.004   -7105.0596   -1323.3917     24441.88    4.5971943 
    6080    559.99138   -7167.4796   -7105.0117   -1198.1458    24432.073     4.606606 
    6090     563.2058   -7167.7932   -7104.9667   -1088.1702      24418.9    4.6153774 
    6100    573.10435   -7168.8553   -7104.9247   -1014.9654    24402.626    4.6217712 
    6110    569.71907   -7168.4547   -7104.9017   -792.37277    24383.439    4.6254775 
    6120     562.9144    -7167.686    -7104.892   -350.33054    24361.913    4.6270473 
    6130    561.01581   -7167.4624   -7104.8803      194.255    24339.146    4.6276082 
    6140    557.37907   -7167.0311   -7104.8546    750.03986    24316.558    4.6270754 
    6150    561.09506    -7167.405    -7104.814    1153.0485    24295.598    4.6254491 
    6160     570.6645   -7168.4307   -7104.7722     1455.515    24277.361    4.6249226 
    6170    569.18277   -7168.2349   -7104.7417    1897.8265    24262.753    4.6271605 
    6180    577.81821   -7169.1911   -7104.7347    2006.2097    24252.853    4.6316647 
    6190    585.85027   -7170.1168   -7104.7643    1831.1583    24248.042    4.6368004 
    6200    584.05586   -7170.0033    -7104.851    1665.5462    24248.014    4.6391096 
    6210     576.4096   -7169.2949   -7104.9956    1501.5896    24252.397    4.6377747 
    6220    575.25678   -7169.3586   -7105.1879    1200.9871    24260.812    4.6338311 
    6230    580.21611   -7170.1503   -7105.4263    736.93677    24272.533      4.62998 
    6240    572.63352   -7169.5804   -7105.7023    451.25291    24286.469    4.6298823 
    6250    573.26869   -7169.9587   -7106.0097    152.91764    24301.842    4.6337627 
    6260    572.26011   -7170.1795    -7106.343   -212.42407      24317.9    4.6404778 
    6270    570.34822    -7170.319   -7106.6958   -436.13056    24333.728    4.6483979 
    6280    570.93662   -7170.7524   -7107.0636   -567.13051    24348.702    4.6548724 
    6290    565.35736   -7170.5058   -7107.4394   -786.65585      24362.4    4.6579105 
    6300    555.46799   -7169.7704   -7107.8072    -842.1375    24374.268    4.6590435 
    6310    551.40163   -7169.6593   -7108.1496   -656.79033    24384.148    4.6612331 
    6320    548.62264   -7169.6515   -7108.4518   -381.93636    24392.472    4.6649362 
    6330     545.9484   -7169.6059   -7108.7045   -129.78083    24399.921     4.669341 
    6340    552.01685   -7170.4928   -7108.9145   -134.64395    24407.085    4.6752299 
    6350    561.16885   -7171.7022    -7109.103   -287.92118    24413.967    4.6820992 
    6360     558.4079   -7171.5689   -7109.2776   -150.00643    24420.278    4.6870868 
    6370     564.3501   -7172.3976   -7109.4435    140.15012    24426.327    4.6885587 
    6380    569.77316   -7173.1724   -7109.6134      323.742    24432.818    4.6892177 
    6390    558.41671   -7172.0824   -7109.7902    325.15523    24440.258    4.6913553 
    6400    558.24367   -7172.2363   -7109.9633   -39.972455    24448.614    4.6938981 
    6410    555.45603   -7172.0866   -7110.1246   -290.41581    24457.049    4.6963026 
    6420    545.69141   -7171.1386   -7110.2659   -222.41747    24464.941    4.6979887 
    6430    551.74442     -7171.93   -7110.3821   -183.83168    24472.369    4.6983648 
    6440    559.06149   -7172.8418   -7110.4777   -32.536582    24479.466    4.6980056 
    6450    560.60085   -7173.0979   -7110.5621    300.48946    24486.661    4.6972509 
    6460    568.10158   -7174.0143   -7110.6417    326.64124    24494.722    4.6966428 
    6470    570.09139   -7174.3252   -7110.7306    15.115248    24503.717    4.6970764 
    6480    551.56936   -7172.3563   -7110.8279    -275.8213    24512.927    4.6984913 
    6490     542.7141   -7171.4503   -7110.9097   -539.44897    24521.548    4.6984725 
    6500    547.18481   -7171.9973   -7110.9581   -697.58871    24528.888    4.6967705 
    6510     554.9558   -7172.8863   -7110.9801   -823.09774    24534.449    4.6957833 
    6520    555.85409   -7172.9919   -7110.9855    -616.1343     24537.97    4.6978358 
    6530    556.89682   -7173.1021   -7110.9794   -356.93243    24539.899    4.7031819 
    6540    550.18373   -7172.3327   -7110.9588   -211.33479    24540.871    4.7114368 
    6550    536.18083   -7170.7169   -7110.9051   -135.81187    24541.279    4.7219297 
    6560    544.45675    -7171.526    -7110.791   -251.21379    24541.269    4.7321707 
    6570    554.45823   -7172.4509   -7110.6002   -189.35685    24540.633    4.7402535 
    6580    557.07491   -7172.4842   -7110.3417    13.425416    24539.523    4.7453261 
    6590    562.02292   -7172.7098   -7110.0153    56.456706    24538.389    4.7463756 
    6600    571.95044   -7173.4294   -7109.6275    203.33875     24537.42    4.7460047 
    6610     563.1725   -7172.0195   -7109.1967     492.4265    24537.044    4.7509078 
    6620    557.11591   -7170.8834   -7108.7363    384.96798    24537.902    4.7630746 
    6630    555.04938   -7170.1504   -7108.2338   -102.20315    24539.723    4.7786257 
    6640    558.43342   -7169.9907   -7107.6966   -382.51968    24541.378    4.7927932 
    6650    567.38625   -7170.4408    -7107.148   -446.79917    24542.074    4.8042977 
    6660    568.47396   -7170.0356   -7106.6215   -258.38195     24541.64    4.8134784 
    6670    576.24252    -7170.427   -7106.1463   -79.515761      24540.5    4.8188752 
    6680    581.64082   -7170.6163   -7105.7334  -0.75963237    24539.103    4.8209324 
    6690    576.96323   -7169.7609   -7105.3998    116.97685    24537.685     4.821567 
    6700    565.37932   -7168.1966   -7105.1277    340.68556     24536.63    4.8225383 
    6710    574.66069   -7169.0023    -7104.898    60.475314    24536.356    4.8268521 
    6720    581.20969   -7169.5437   -7104.7088   -230.08414    24536.265    4.8362587 
    6730    572.22625   -7168.4012   -7104.5685   -329.38998    24535.593    4.8477784 
    6740    576.66597   -7168.7946   -7104.4666   -244.83126    24534.074    4.8561837 
    6750    588.13429   -7170.0096   -7104.4023   -284.96893    24531.819    4.8617106 
    6760     591.8051   -7170.4144   -7104.3977   -153.16092    24528.798    4.8680123 
    6770    593.53644   -7170.6719    -7104.462    53.560505    24525.332    4.8749905 
    6780     600.1633   -7171.5545   -7104.6054   -56.985512    24521.853    4.8819521 
    6790    591.05257   -7170.7656   -7104.8328   -269.82845    24518.133    4.8905511 
    6800    572.11674   -7168.9363   -7105.1158   -263.92992    24513.674     4.901598 
    6810    565.83179   -7168.5386   -7105.4192    -145.2322     24508.45    4.9139074 
    6820    568.16238   -7169.1017   -7105.7223    -146.4894    24502.707    4.9243968 
    6830    576.37556   -7170.3369   -7106.0414    -297.7025    24496.411    4.9297166 
    6840    568.78925   -7169.8259   -7106.3766   -250.02594    24489.261    4.9287538 
    6850    564.54691   -7169.6934   -7106.7173   -330.62451    24481.253    4.9226516 
    6860    555.48009   -7169.0065   -7107.0418   -308.00189     24472.24     4.915813 
    6870    544.98796   -7168.1212   -7107.3269   -215.30854    24462.264    4.9127499 
    6880    543.39651   -7168.1814   -7107.5647   -291.90661    24451.472     4.915827 
    6890    534.97187   -7167.4223   -7107.7454   -87.509792    24439.797    4.9240163 
    6900    535.81255   -7167.6314   -7107.8607    207.67929    24427.709    4.9333638 
    6910    544.58123   -7168.6581   -7107.9092    406.70791    24415.968    4.9416539 
    6920    561.78153   -7170.5846   -7107.9171    391.04004      24405.1    4.9490443 
    6930     572.8515   -7171.8227   -7107.9203    376.31731     24395.14    4.9572393 
    6940    572.84647   -7171.8427   -7107.9408     393.8687    24386.057    4.9670044 
    6950    574.08066   -7172.0267   -7107.9872    354.99594    24377.877    4.9775679 
    6960    562.46701   -7170.7998   -7108.0558    477.02527    24370.591    4.9893158 
    6970    545.75625   -7169.0002   -7108.1203    504.19142    24364.469    5.0005536 
    6980    539.21356   -7168.2982   -7108.1481    470.01352    24359.625    5.0082278 
    6990    545.64991   -7168.9975   -7108.1295    377.54641    24355.972    5.0131984 
    7000    546.83465   -7169.0746   -7108.0744    205.61599    24353.272    5.0179962 
    7010    545.11472   -7168.7963   -7107.9879   -137.12483    24351.061    5.0251471 
    7020    554.22382   -7169.6896   -7107.8651   -595.67748    24348.413    5.0373715 
    7030    555.62685   -7169.6878   -7107.7068   -610.55721    24344.274    5.0560181 
    7040    545.75827   -7168.3945   -7107.5144   -429.53493     24338.53      5.07805 
    7050    545.86142   -7168.1633   -7107.2716    -565.2894    24331.536    5.0988493 
    7060    551.34742   -7168.4618   -7106.9581   -732.88912    24322.998    5.1165621 
    7070    542.99376   -7167.1335   -7106.5618   -611.38953    24312.538    5.1303987 
    7080    544.45689   -7166.8029   -7106.0679    -592.7447    24300.368    5.1396619 
    7090    566.03848   -7168.6025   -7105.4601    -775.8941    24286.523     5.146661 
    7100    585.34824   -7170.0637   -7104.7672   -912.86618    24270.585    5.1554167 
    7110     598.0756     -7170.79   -7104.0737   -803.62028     24252.22    5.1680886 
    7120    587.71384   -7169.0058   -7103.4454   -270.47639    24231.777    5.1851184 
    7130    582.60879   -7167.9014   -7102.9105    181.96303    24210.518    5.2054611 
    7140    592.50316   -7168.5554   -7102.4607    453.11859    24189.617    5.2291501 
    7150    595.83716    -7168.584   -7102.1174    649.46953    24169.822    5.2565959 
    7160    591.01936   -7167.8213   -7101.8922    793.62599    24151.658     5.285137 
    7170    585.23028   -7167.0501   -7101.7668    732.68202    24135.457    5.3106935 
    7180    578.45792   -7166.2412   -7101.7133    684.77876    24121.114    5.3291913 
    7190    574.29027   -7165.7655   -7101.7026    741.15806    24108.536    5.3400083 
    7200    582.15765   -7166.6655   -7101.7249    747.64966     24097.83    5.3469411 
    7210    579.35594    -7166.407    -7101.779    754.49724    24089.037    5.3557163 
    7220    576.91721   -7166.2141   -7101.8581    554.75487     24082.12    5.3672006 
    7230    587.09945   -7167.4554   -7101.9636    235.05409    24076.582    5.3793039 
    7240    579.77251   -7166.7734   -7102.0989    322.93609     24071.73    5.3918423 
    7250    564.84384   -7165.2579   -7102.2487    632.89694    24067.729    5.4019613 
    7260    560.99374   -7164.9673   -7102.3876    957.32727    24065.353    5.4063425 
    7270    561.30455   -7165.1244     -7102.51    1324.0656    24065.464    5.4053193 
    7280    560.92556   -7165.1915   -7102.6194    1537.3634    24068.968    5.4025215 
    7290    568.92659   -7166.1905   -7102.7259    1266.4737    24076.356    5.4020051 
    7300    567.52221   -7166.1429   -7102.8349    1025.4273    24087.101    5.4068791 
    7310    569.84256   -7166.5169   -7102.9501    834.56383    24100.606     5.418041 
    7320    579.03228   -7167.6721   -7103.0802    581.69753    24116.365    5.4349033 
    7330      579.379   -7167.8741   -7103.2435    345.26778    24133.733    5.4539098 
    7340    560.49284   -7165.9548    -7103.431    456.95378    24152.209    5.4706604 
    7350    550.01599   -7164.9666   -7103.6115    497.34365    24171.961    5.4823155 
    7360    558.72873   -7166.0969   -7103.7699    141.80631    24193.042    5.4870337 
    7370    557.15638   -7166.0564   -7103.9047   -390.65727    24214.573    5.4855034 
    7380    557.54152   -7166.2155   -7104.0209   -778.23953    24235.235    5.4828694 
    7390    564.68347   -7167.1213     -7104.13   -854.76826    24254.033    5.4861058 
    7400    567.78947   -7167.5873   -7104.2495   -598.00097     24270.76    5.4977346 
    7410    575.37984   -7168.5785   -7104.3941   -404.51102    24285.974    5.5150724 
    7420    580.97249   -7169.3899   -7104.5815   -156.11959    24300.222    5.5337808 
    7430    568.86748   -7168.2709   -7104.8129    28.183376    24314.123    5.5516916 
    7440    559.16604   -7167.4434   -7105.0676   -103.40079    24328.098    5.5673944 
    7450     555.7156   -7167.3163   -7105.3253   -470.76968    24341.832    5.5806391 
    7460    551.64308   -7167.1127   -7105.5761   -927.12793    24354.377    5.5933294 
    7470    554.43644   -7167.6685   -7105.8203   -1364.4194    24364.543     5.606099 
    7480    560.68577   -7168.6089   -7106.0635   -1623.1266    24371.182    5.6191647 
    7490    558.35103   -7168.6009    -7106.316   -1406.6072    24373.653    5.6331596 
    7500    548.73652   -7167.7769   -7106.5645   -1060.4716    24372.426    5.6465336 
    7510     556.8662   -7168.9247   -7106.8055   -845.38718    24368.361    5.6580194 
    7520    558.83156    -7169.382   -7107.0435   -764.89714    24362.014    5.6711869 
    7530    552.33244   -7168.8995    -7107.286   -644.89476     24353.62    5.6886419 
    7540    543.26356   -7168.1201   -7107.5182   -386.52566    24343.543    5.7112393 
    7550    544.36185   -7168.4576   -7107.7332   -398.23711    24332.336    5.7375605 
    7560    545.75184   -7168.8063   -7107.9269   -242.08284    24320.096     5.763091 
    7570    554.66098   -7169.9856   -7108.1124   -158.05706    24307.152    5.7835779 
    7580    545.76445   -7169.1745   -7108.2937   -12.713615     24293.78    5.7988496 
    7590    529.49096   -7167.5177   -7108.4522    356.67478    24280.412    5.8093099 
    7600    531.64351   -7167.8687   -7108.5631    527.06591    24267.902    5.8152017 
    7610    533.22902   -7168.0983   -7108.6158     588.3325    24256.758    5.8206267 
    7620    531.42593   -7167.8819   -7108.6006    475.88851    24247.129    5.8282534 
    7630    541.90398   -7168.9652    -7108.515    322.84722    24238.754     5.836996 
    7640    547.10299   -7169.3858   -7108.3556    405.33748    24231.298    5.8465529 
    7650    559.49124    -7170.545   -7108.1329    369.78363    24224.873    5.8595655 
    7660    559.19163   -7170.2303   -7107.8516    435.65537    24219.462     5.877415 
    7670    549.57872   -7168.8151   -7107.5087    484.77474    24215.196    5.8941535 
    7680    560.22473   -7169.5845   -7107.0905    301.45832    24212.145    5.9046146 
    7690    566.73408   -7169.8323   -7106.6123     167.9852    24209.899    5.9114972 
    7700    564.02705   -7169.0329   -7106.1148    77.510455    24208.097    5.9188987 
    7710     559.4812   -7168.0211   -7105.6101    82.431863    24206.515    5.9287567 
    7720     562.9339    -7167.903   -7105.1069    241.12917    24205.179    5.9411273 
    7730    569.63618   -7168.1651   -7104.6213    477.30544      24204.5    5.9539851 
    7740    570.59293   -7167.8239   -7104.1734    573.14726    24205.043    5.9662785 
    7750     566.5611   -7166.9707     -7103.77    447.80082    24207.039    5.9778258 
    7760    562.98125    -7166.206   -7103.4046    379.23955    24210.236    5.9866864 
    7770    573.78568   -7167.0784   -7103.0717    352.35247    24214.426    5.9918968 
    7780    585.31745   -7168.0778   -7102.7847    231.96866    24219.503    5.9978011 
    7790    580.86414   -7167.3582   -7102.5619    41.214109    24225.173     6.009353 
    7800    573.50549   -7166.3706   -7102.3952   -141.32188    24230.968    6.0246357 
    7810    577.83163   -7166.7241   -7102.2662   -324.82788    24236.393    6.0363074 
    7820    588.41968    -7167.817   -7102.1779   -361.69018    24241.001    6.0407147 
    7830    581.45631   -7167.0044   -7102.1421   -149.95138    24244.726    6.0423506 
    7840    574.25628   -7166.2126   -7102.1534    70.501125    24248.071    6.0466593 
    7850    577.24662   -7166.5914   -7102.1987    52.992624    24251.543    6.0559325 
    7860    576.63645   -7166.5985   -7102.2738   -42.767654    24255.157    6.0707572 
    7870    576.78025   -7166.7248   -7102.3841   -150.49917     24258.66    6.0910834 
    7880    574.94708   -7166.6617   -7102.5255   -144.78634    24261.811    6.1139062 
    7890    583.88931   -7167.8406   -7102.7068   -211.70273     24264.56    6.1344029 
    7900    578.51724   -7167.4723   -7102.9378   -202.32798    24266.779    6.1490502 
    7910    564.74117   -7166.2028   -7103.2051   -141.35587    24268.499     6.155275 
    7920     566.1766   -7166.6481   -7103.4903   -191.01177    24269.808    6.1547772 
    7930    568.24517   -7167.1805   -7103.7919   -241.85527    24270.624    6.1536565 
    7940    566.31982   -7167.2879    -7104.114   -235.48153    24270.818    6.1565722 
    7950    556.79067    -7166.555   -7104.4442   -39.952081    24270.446    6.1629511 
    7960    554.72782   -7166.6445   -7104.7637    1.4366416    24269.932    6.1685397 
    7970    561.85852   -7167.7504   -7105.0742   -76.767305    24269.415    6.1710713 
    7980     556.8353   -7167.4905   -7105.3747   -4.2307292    24268.741    6.1721663 
    7990    555.80837   -7167.6626   -7105.6613    292.77261    24268.116    6.1755052 
    8000    559.79332    -7168.378   -7105.9322    627.76828    24268.273     6.185849 
    8010    567.41481   -7169.4968   -7106.2009    849.10374     24270.07    6.2046788 
    8020    575.04442   -7170.6297   -7106.4826    761.49414    24274.043    6.2280699 
    8030    572.65417   -7170.6648   -7106.7843    669.30776    24280.048    6.2519839 
    8040    562.21792   -7169.8108   -7107.0945    667.32617    24287.865    6.2741437 
    8050     552.5767   -7169.0318   -7107.3911    451.24677    24297.399    6.2918218 
    8060    551.86336   -7169.2123   -7107.6512    258.90776    24308.191    6.3036031 
    8070    552.25991   -7169.4715   -7107.8661    181.93736    24319.733    6.3102048 
    8080    549.05571   -7169.2873   -7108.0393    396.89345    24331.871     6.315652 
    8090    548.61058   -7169.3744    -7108.176    555.73642    24345.096     6.326134 
    8100    549.08421   -7169.5275   -7108.2764     635.9446    24359.829    6.3437267 
    8110    546.10908   -7169.2563    -7108.337    611.02268     24376.26    6.3651843 
    8120    543.17841   -7168.9509   -7108.3585    690.25353    24394.389    6.3868163 
    8130    542.14431   -7168.8161   -7108.3391    800.08969    24414.407    6.4071551 
    8140    550.80818   -7169.7248   -7108.2814    609.59921    24436.511    6.4248842 
    8150    559.84075    -7170.655   -7108.2039    370.62621    24460.273    6.4414498 
    8160    553.56979   -7169.8726   -7108.1211     142.0934    24485.056    6.4604642 
    8170     559.1456   -7170.4105    -7108.037    21.566353    24510.258    6.4818158 
    8180    570.30847   -7171.5754   -7107.9566   -49.399748    24535.523    6.5028082 
    8190    576.61807   -7172.2249   -7107.9023   -156.90237    24560.634    6.5217426 
    8200    564.13361   -7170.8071   -7107.8772   -253.54492    24585.306    6.5393297 
    8210    551.60003   -7169.3897   -7107.8579   -609.10176    24609.214    6.5552399 
    8220    555.83098   -7169.8275   -7107.8237   -1278.5329    24631.352    6.5687862 
    8230    551.56882   -7169.3037   -7107.7754   -1487.6704    24650.115    6.5823192 
    8240      542.976   -7168.2805   -7107.7107   -1435.5523    24664.874    6.5980536 
    8250    540.84396   -7167.9462   -7107.6142    -1550.381    24675.652    6.6152173 
    8260    536.69089   -7167.3525   -7107.4839    -1758.352    24682.144    6.6316536 
    8270    531.31484   -7166.5894   -7107.3204   -1695.7681    24683.937    6.6461189 
    8280    542.73084   -7167.6685    -7107.126   -1704.1909    24681.093    6.6583737 
    8290    557.17613   -7169.0693   -7106.9154   -1525.6621    24673.684    6.6686784 
    8300    553.80552   -7168.4859   -7106.7081   -1094.4963     24662.23    6.6773533 
    8310    549.61931     -7167.81   -7106.4991   -645.33881    24647.866    6.6826635 
    8320    561.96979   -7168.9702   -7106.2817   -243.91189    24631.804    6.6843494 
    8330    575.28027   -7170.2428   -7106.0694    36.975743    24615.098    6.6862313 
    8340    582.46323   -7170.8629   -7105.8883    213.17236    24598.531    6.6919362 
    8350    584.00351   -7170.9044   -7105.7579    243.00162    24582.572    6.7012323 
    8360    573.33308   -7169.6344   -7105.6783    214.41778    24567.326    6.7098953 
    8370     562.6887   -7168.3988     -7105.63    207.22198    24552.717    6.7132906 
    8380     565.4456   -7168.6655   -7105.5892    180.13215    24538.715    6.7123984 
    8390    572.92812   -7169.4736   -7105.5627    143.61321    24525.246    6.7123149 
    8400    561.43812   -7168.1801   -7105.5508    182.78511    24512.234    6.7160106 
    8410    564.61094   -7168.5292    -7105.546   -124.86216    24499.684    6.7230495 
    8420    570.05475   -7169.1372   -7105.5467   -492.78541    24486.847     6.733276 
    8430     565.0304   -7168.5912   -7105.5612   -406.24861    24472.851    6.7444058 
    8440    550.42206   -7166.9691   -7105.5687    130.17061    24457.934    6.7516936 
    8450    550.22466   -7166.9237   -7105.5453    639.51453    24443.405    6.7512871 
    8460    560.60833   -7168.0312   -7105.4945    892.53603    24430.572    6.7456218 
    8470    561.46732     -7168.07   -7105.4374    983.19204    24420.125    6.7415748 
    8480    553.60113   -7167.1269   -7105.3719    1146.6128    24412.349    6.7440753 
    8490    555.84027   -7167.2878   -7105.2829    1378.0142    24407.677    6.7539208 
    8500    561.79287   -7167.8341   -7105.1653    1393.7881    24406.635    6.7697191 
    8510    560.68315   -7167.5726   -7105.0276     1433.562    24409.325    6.7874696 
    8520    564.71296   -7167.8681   -7104.8735    1576.9259    24415.843    6.8023381 
    8530    581.46943   -7169.5743   -7104.7105    1647.8502    24426.539     6.812284 
    8540    595.27699   -7170.9732   -7104.5691    1390.8341     24441.53    6.8181097 
    8550    585.15344   -7169.7491   -7104.4743    1199.2324    24460.247     6.824942 
    8560    579.71249   -7169.0904   -7104.4226    883.25967    24482.136    6.8379161 
    8570    584.57026     -7169.61   -7104.4003    419.63898    24506.354    6.8573219 
[...]
   22890    570.19142   -7169.0294   -7105.4237   -555.11845    24593.056     14.23975 
   22900    570.11814   -7168.9117   -7105.3142    -617.9965    24604.264    14.267899 
   22910    566.02039   -7168.3741   -7105.2336   -687.36457     24613.86     14.29973 
   22920     570.7192   -7168.8372   -7105.1726   -996.22341    24621.571    14.328519 
   22930    565.99051   -7168.2643   -7105.1272   -1142.2167    24626.657    14.351626 
   22940    566.83517   -7168.3297   -7105.0984   -1202.9031     24628.69    14.366789 
   22950    556.52158   -7167.1588    -7105.078   -1351.1085    24627.446    14.378952 
   22960    540.93223   -7165.3859   -7105.0441   -1310.4485    24622.611    14.397341 
   22970     551.3193   -7166.4778   -7104.9773   -1391.3957    24614.153    14.424551 
   22980    559.58946   -7167.3057   -7104.8826   -1475.0392      24601.9    14.457153 
   22990    564.64221   -7167.7728   -7104.7861   -1506.1435    24585.617    14.492653 
   23000    564.33189   -7167.6438   -7104.6918    -1244.518    24565.294    14.529258 
   23010    569.27135   -7168.1051    -7104.602   -1004.7254    24541.527    14.561083 
   23020     569.4441   -7168.0428   -7104.5204   -687.65875    24514.998    14.586944 
   23030    556.94846   -7166.5698   -7104.4414    -362.0349    24486.556    14.612335 
   23040    560.83247   -7166.9175   -7104.3558   -398.12378    24456.979     14.64014 
   23050    569.44526   -7167.7851   -7104.2626   -438.05381    24426.258    14.673038 
   23060    572.89581   -7168.0824    -7104.175   -212.66207    24394.372    14.708227 
   23070    572.19541   -7167.9243   -7104.0951    64.670797     24361.88    14.737344 
   23080    584.45842   -7169.2303   -7104.0331    195.15488    24329.467    14.756504 
   23090    588.80537   -7169.6942    -7104.012    374.14591    24297.545    14.768814 
   23100    579.01301   -7168.6314   -7104.0416    727.25556    24266.633     14.77866 
   23110    585.99831   -7169.4932   -7104.1242    738.21797    24237.519    14.787599 
   23120    587.51141   -7169.8167   -7104.2789    650.96896     24210.31    14.797266 
   23130    563.67432   -7167.3783   -7104.4996    877.25102     24184.88    14.809027 
   23140    556.36296   -7166.8115   -7104.7483    1110.6566     24161.72    14.819631 
   23150    576.21634   -7169.3075   -7105.0297    1334.6078     24141.44     14.82635 
   23160    580.48516   -7170.1309   -7105.3769    1632.0624    24124.629    14.827561 
   23170    567.97763   -7169.1572   -7105.7985     2010.857    24112.067    14.818258 
   23180    555.86345   -7168.2672   -7106.2598    2282.2107    24104.707    14.792985 
   23190    563.59632   -7169.6174   -7106.7474    2035.9984    24103.138    14.752881 
   23200    563.39546    -7170.103   -7107.2554    1828.2848    24106.884     14.70747 
   23210    554.14742   -7169.5705   -7107.7546     1732.027    24115.423    14.664555 
   23220    558.60274   -7170.5432   -7108.2302    1470.4557    24128.455    14.622191 
   23230    551.18243   -7170.1487   -7108.6635    1202.8786    24145.355    14.574368 
   23240    559.71895   -7171.4794   -7109.0419     800.5584    24165.408      14.5159 
   23250     583.6703   -7174.5041   -7109.3948    453.38372    24187.618    14.447849 
   23260    583.46107   -7174.8395   -7109.7536    634.63145    24211.228    14.374283 
   23270    575.80496   -7174.3505   -7110.1186    644.48069    24236.519    14.299575 
   23280    570.27694   -7174.0804   -7110.4652    277.49257    24263.471    14.232582 
   23290    558.21442   -7173.0379   -7110.7683   -76.005783    24291.228    14.176792 
   23300    553.40598   -7172.7483   -7111.0151   -428.82332    24318.843    14.129334 
   23310    548.37473   -7172.3686   -7111.1965   -717.95915    24345.394    14.084515 
   23320    536.40619   -7171.1494   -7111.3125   -948.87636    24370.087    14.037391 
   23330    531.95146   -7170.6995   -7111.3595   -1176.8182    24392.286    13.986596 
   23340    534.81047   -7170.9981   -7111.3392   -1405.0227    24411.363    13.935155 
   23350    530.95071   -7170.4903   -7111.2619    -1575.333      24426.7    13.888863 
   23360    523.82181    -7169.562   -7111.1289   -1578.6569     24437.87     13.84967 
   23370    521.84678   -7169.1433   -7110.9305   -1547.6436    24444.828    13.813669 
   23380    530.54017   -7169.8545    -7110.672   -1632.3697    24447.646    13.773593 
   23390    545.21202   -7171.1912    -7110.372   -1870.8671     24446.07    13.727391 
   23400    549.65791   -7171.3714   -7110.0563   -1767.2585    24439.596    13.681049 
   23410    551.28406   -7171.2316    -7109.735   -1248.7326    24428.536    13.641142 
   23420    546.22375   -7170.3378   -7109.4057   -499.35956    24414.251    13.610938 
   23430    548.37689   -7170.2391   -7109.0668    82.841709    24398.661    13.589904 
   23440    559.88282   -7171.1811   -7108.7253    346.32331    24383.288    13.577005 
   23450    557.23621   -7170.5633   -7108.4028    493.61329    24368.882     13.56878 
   23460    551.41603   -7169.6199   -7108.1087    519.71195    24355.818    13.558023 
   23470    553.09384   -7169.5287   -7107.8303     441.8103    24344.157    13.544447 
   23480    558.43881   -7169.8547   -7107.5601    455.19597    24333.735    13.533738 
   23490    567.97657   -7170.6669   -7107.3082    679.76136    24324.605    13.528938 
   23500    574.69251   -7171.1961   -7107.0883    879.75017     24317.29    13.531271 
   23510    586.76546   -7172.3784   -7106.9238    909.91496    24312.253    13.542476 
   23520    575.02737   -7170.9623   -7106.8171    1144.3509     24309.68    13.561591 
   23530    567.49663   -7170.0588   -7106.7537     1350.697    24310.139    13.582127 
   23540    575.23995   -7170.8881   -7106.7192     1191.059    24314.089    13.599421 
   23550    578.71017    -7171.274    -7106.718    772.70519    24321.126    13.615053 
   23560    578.80057   -7171.3207   -7106.7546     401.8693    24330.219    13.634948 
   23570    578.29188   -7171.3292   -7106.8198    62.723047    24340.376    13.658814 
   23580    577.97069   -7171.3833   -7106.9098   -288.15119    24350.685    13.680251 
   23590    579.89937   -7171.7195   -7107.0308   -460.76453    24360.269    13.698999 
   23600    569.90527   -7170.7622   -7107.1884    -493.0388     24368.65      13.7193 
   23610    554.50382    -7169.214   -7107.3583   -474.84343    24375.738    13.742338 
   23620    554.55783   -7169.3764   -7107.5147   -448.87975     24381.57    13.765988 
   23630    549.85497   -7168.9851   -7107.6479   -363.89726    24386.224    13.789629 
   23640    547.00233   -7168.7677   -7107.7488   -407.14886    24389.898    13.813751 
   23650    556.47568   -7169.9011   -7107.8254   -696.03518    24392.425    13.838222 
   23660    554.13682   -7169.7058    -7107.891   -777.75389    24393.166    13.862771 
   23670    546.58307   -7168.9156   -7107.9434   -711.47875    24391.877    13.884716 
   23680    542.85012   -7168.5158   -7107.9601    -419.8321    24388.763    13.902543 
   23690    560.72533   -7170.4922   -7107.9424   -162.76096    24384.529    13.917068 
   23700    568.26984   -7171.3047   -7107.9133    157.24685    24379.888    13.930324 
   23710    565.52609   -7170.9728   -7107.8875    440.39919    24375.666    13.942851 
   23720    565.35938   -7170.9315   -7107.8648    726.77931    24372.633    13.957935 
   23730    556.98454   -7169.9699   -7107.8374    858.61882    24371.497    13.978488 
   23740    565.94325   -7170.9356   -7107.8038    739.02675    24372.589    14.002139 
   23750      567.744   -7171.1026   -7107.7699    520.08819    24375.628    14.024869 
   23760    563.45092   -7170.5984   -7107.7446    171.59579    24380.013     14.04582 
   23770     565.0437   -7170.7526   -7107.7211   -87.942697    24384.876    14.069049 
   23780    566.93487   -7170.9351   -7107.6927   -395.86192    24389.488    14.095416 
   23790    576.48265   -7171.9753   -7107.6678   -823.12494    24392.995    14.118271 
   23800     575.1025   -7171.8159   -7107.6624   -959.51614    24394.392    14.138351 
   23810    561.85864   -7170.3624   -7107.6862   -649.35096    24393.352    14.159623 
   23820    549.42429   -7169.0002   -7107.7111   -167.22556    24390.634    14.180872 
   23830     568.6828   -7171.1636   -7107.7262   -155.16494    24387.342    14.202464 
   23840    565.62668   -7170.8389   -7107.7424   -53.270371    24383.685    14.231263 
   23850    547.45224   -7168.8346   -7107.7655    191.41142    24379.938    14.270452 
   23860    550.66606   -7169.1895   -7107.7619     264.7779    24376.669    14.320311 
   23870    566.44518   -7170.9179   -7107.7301    158.56293    24374.061    14.377152 
   23880    564.46776   -7170.6598   -7107.6926    76.598297    24371.896    14.434349 
   23890    566.11414   -7170.8138   -7107.6629    -83.42589    24369.906    14.483435 
   23900    566.54799   -7170.8327   -7107.6334    -33.82483    24367.761    14.521867 
   23910     574.9734   -7171.7488   -7107.6097   -119.90132    24365.489    14.554201 
   23920    585.78067   -7172.9607    -7107.616   -148.71714    24362.926    14.584068 
   23930    571.43752   -7171.4108    -7107.666    192.42487    24360.076    14.612986 
   23940    567.52134   -7171.0586   -7107.7507     348.3367    24357.686    14.642202 
   23950    558.85951   -7170.1889   -7107.8473    303.93935    24356.188    14.674279 
   23960    535.27328   -7167.6403   -7107.9298    134.16352    24355.454    14.708291 
   23970    524.19281   -7166.4315    -7107.957     108.3731    24355.124    14.738565 
   23980    540.83503   -7168.2438   -7107.9129    138.95068    24355.091    14.760727 
   23990    553.62604   -7169.5684   -7107.8105    287.40889    24355.466    14.777016 
   24000    555.28756   -7169.6215   -7107.6783    383.44229    24356.602    14.789301 
   24010    559.75222   -7169.9647   -7107.5235    297.74936    24358.702    14.798526 
   24020    570.97015   -7171.0515    -7107.359    77.159155    24361.552    14.804997 
   24030    564.59341   -7170.1819   -7107.2006    114.01358    24364.681    14.809215 
   24040    556.35413    -7169.109   -7107.0469    282.79561    24368.132    14.809218 
   24050    559.14788   -7169.2509   -7106.8771    410.56582    24372.328    14.802978 
   24060    569.78495   -7170.2552   -7106.6948     469.7705     24377.59    14.789964 
   24070    567.36453   -7169.8047   -7106.5143    677.53169    24384.131    14.770156 
   24080    563.13377   -7169.1611   -7106.3427    907.56609    24392.484    14.742212 
   24090    559.73386    -7168.603   -7106.1639     879.0116    24403.181    14.707358 
   24100    564.41864   -7168.9355   -7105.9738    572.84404    24416.156    14.666292 
   24110    559.62605   -7168.1957   -7105.7686    197.47077    24430.653    14.619275 
   24120    554.32742   -7167.3807   -7105.5447    -13.26499    24445.717     14.56855 
   24130    565.06644   -7168.3329   -7105.2989   -138.13483    24460.754    14.518598 
   24140    560.84414   -7167.6038   -7105.0408    101.04121    24475.523    14.478696 
   24150    554.48896   -7166.6282   -7104.7741    198.79417    24490.499     14.44901 
   24160    560.30787   -7166.9831   -7104.4799    202.78796    24505.975    14.423083 
   24170    572.97843   -7168.0813   -7104.1647    301.03467    24521.993    14.399623 
   24180    574.14747   -7167.8975   -7103.8505    475.61489    24538.815    14.379231 
   24190    577.48861   -7167.9754   -7103.5557    433.08966    24556.824    14.357133 
   24200    584.82899   -7168.5276    -7103.289    161.48558     24575.87    14.327622 
   24210    578.47183   -7167.5836   -7103.0542   -161.12835    24595.257    14.296571 
   24220    583.86025   -7167.9795    -7102.849   -742.81765    24614.055    14.273393 
   24230    588.71053   -7168.3559   -7102.6844   -1112.8363    24630.806    14.261332 
   24240    588.40513   -7168.2188   -7102.5813   -1192.2851    24644.524    14.261036 
   24250    594.61799   -7168.8799   -7102.5494   -1288.5448     24654.92    14.273361 
   24260    586.92402   -7168.0596   -7102.5873   -1242.4257    24661.795    14.295147 
   24270    578.70153   -7167.2359   -7102.6809   -1230.5657    24665.234    14.315897 
   24280    575.71143    -7167.045   -7102.8235    -1142.139    24665.337    14.327888 
   24290    558.02998   -7165.2538   -7103.0048   -738.72591    24662.445    14.334374 
   24300    555.61063    -7165.183   -7103.2038   -398.58308     24657.57     14.34107 
   24310    563.47116   -7166.2689   -7103.4129   -181.74659    24651.667    14.349206 
   24320     564.6668   -7166.6331   -7103.6437     97.67176    24645.378    14.356819 
   24330    564.35825   -7166.8576   -7103.9025    355.48668    24639.435    14.364829 
   24340    570.15284   -7167.8082   -7104.2068    301.86147    24634.442    14.373354 
   24350    569.41134   -7168.0967    -7104.578    238.48641    24630.349    14.384482 
   24360    564.55238   -7168.0026   -7105.0259    35.379159    24626.912    14.398783 
   24370    553.00574   -7167.2176    -7105.529   -212.42728    24623.587    14.410204 
   24380    550.28301   -7167.4429    -7106.058   -269.44112     24619.78     14.40927 
   24390    556.33989   -7168.6634   -7106.6028   -325.24409    24615.294    14.394488 
   24400    551.88646   -7168.7034   -7107.1396   -203.58747    24610.033    14.373365 
   24410    555.28863   -7169.5878   -7107.6445   -12.031096     24604.29    14.350831 
   24420    557.71322   -7170.3222   -7108.1085     185.1942    24598.577    14.327931 
   24430     552.2836   -7170.1233   -7108.5153    217.08118    24593.386    14.307925 
   24440    558.62215   -7171.1748   -7108.8597   -76.690776    24588.763    14.292903 
   24450    563.68739   -7172.0373   -7109.1571   -626.71999    24583.912    14.278619 
   24460     551.9809   -7170.9831   -7109.4088    -805.7269    24577.525    14.263516 
   24470    545.45575     -7170.45   -7109.6036   -624.99639    24569.141    14.249246 
   24480    541.49631   -7170.1357    -7109.731   -409.22623    24559.171    14.234847 
   24490    545.34515   -7170.6323   -7109.7983   -152.91483    24548.208    14.220292 
   24500    554.82924   -7171.7127   -7109.8207    73.870866    24536.925    14.208458 
   24510    564.75896   -7172.8226   -7109.8229    219.31111    24525.922    14.204707 
   24520    562.37949   -7172.5616   -7109.8274    253.59577    24515.575    14.209645 
   24530    538.48279   -7169.8878   -7109.8192    453.82522     24506.05    14.218567 
   24540    533.41777   -7169.2736   -7109.7701    619.33366    24497.813    14.229534 
   24550    542.79141   -7170.2168   -7109.6676    646.97234    24491.259    14.240864 
   24560    556.23141   -7171.5814    -7109.533    533.03891    24486.454    14.250782 
   24570    559.60909    -7171.814   -7109.3887    296.97705    24483.068     14.26315 
   24580    558.15868   -7171.5109   -7109.2475    152.15331    24480.518    14.278886 
   24590    560.08946   -7171.5848    -7109.106     43.52128    24478.415    14.292484 
   24600    561.02664   -7171.5494    -7108.966      24.4641    24476.486    14.298149 
   24610    553.98058   -7170.6229   -7108.8255    -52.88178    24474.617    14.296458 
   24620    549.71894   -7169.9985   -7108.6765   -261.86337    24472.583    14.292677 
   24630    549.02946   -7169.7522   -7108.5071   -360.68219     24469.89    14.285397 
   24640    548.71612   -7169.5209   -7108.3108   -148.95627    24466.331    14.273705 
   24650     562.6586   -7170.8587   -7108.0933    122.86467    24462.393    14.262837 
   24660     567.8882   -7171.2198    -7107.871    509.05524    24458.816    14.256638 
   24670    561.21298   -7170.2652   -7107.6611    912.02873    24456.613    14.256608 
   24680     562.7434   -7170.2358   -7107.4609    1106.7944    24456.796    14.262341 
   24690    559.40193   -7169.6651   -7107.2629    1156.0395    24459.899    14.268917 
   24700    561.36663   -7169.6883    -7107.067    949.61695    24466.024    14.269691 
   24710    566.20684   -7170.0324   -7106.8711    628.10143    24474.661    14.263091 
   24720    564.04489   -7169.6018   -7106.6817    264.21482    24484.957    14.252035 
   24730    572.25603   -7170.3353   -7106.4993   -193.59292    24495.919    14.239936 
   24740    582.37423      -7171.3   -7106.3353   -404.83355    24506.417    14.230965 
   24750    573.35801    -7170.166   -7106.2071   -287.16781      24515.9    14.228676 
   24760     565.0382    -7169.136   -7106.1051   -213.55669      24524.6    14.234394 
   24770    569.53206   -7169.5462    -7106.014   -254.90326    24532.711    14.245098 
   24780    570.60314   -7169.5862   -7105.9346   -377.21855     24540.12    14.256418 
   24790    559.36675   -7168.2635   -7105.8653   -581.76403    24546.507    14.268736 
   24800    551.96379    -7167.355   -7105.7826   -861.04745    24551.304    14.284504 
   24810    564.41894   -7168.6357   -7105.6739    -993.6165    24553.826    14.302887 
   24820    575.98727   -7169.8048   -7105.5525   -922.42392    24553.735    14.320333 
   24830    584.72764   -7170.6762   -7105.4489   -930.80082    24551.141    14.334335 
   24840    589.35906   -7171.1273   -7105.3834   -911.49527    24546.047    14.343564 
   24850    583.55658   -7170.4639   -7105.3673   -736.41182    24538.554    14.353639 
   24860    582.53762   -7170.3887   -7105.4058   -820.07347    24529.032    14.371832 
   24870    580.53374   -7170.2634   -7105.5039   -894.80866    24517.334      14.3968 
   24880    576.69495   -7170.0103   -7105.6792   -961.86426    24503.257     14.42467 
   24890    563.93234   -7168.8486   -7105.9411   -1014.6047    24486.635    14.456482 
   24900    546.38744   -7167.2124   -7106.2621   -767.48743    24467.429    14.487663 
   24910    542.59973   -7167.1344   -7106.6066   -382.05917     24446.24    14.507975 
   24920     543.2663   -7167.5496   -7106.9474    88.665714    24424.129    14.509506 
   24930    553.89677   -7169.0757   -7107.2877    39.594145    24402.172    14.491761 
   24940    558.77673   -7169.9709   -7107.6385   -360.22955    24380.308    14.463516 
   24950    549.88335    -7169.341   -7108.0006   -693.89922    24357.586    14.433977 
   24960    535.26402    -7168.048   -7108.3385    -685.6115    24333.183    14.408545 
   24970    538.50774   -7168.6946   -7108.6233   -555.96109    24307.076    14.392319 
   24980    539.33634   -7169.0177   -7108.8539   -528.88507    24279.564    14.387613 
   24990    529.80968   -7168.1281    -7109.027   -394.31251    24250.803    14.389338 
   25000    539.00867   -7169.2662   -7109.1389   -277.58199    24221.122    14.388844 
Loop time of 15604.1 on 16 procs for 20000 steps with 864 atoms

Performance: 0.111 ns/day, 216.723 hours/ns, 1.282 timesteps/s
97.5% CPU use with 16 MPI tasks x 1 OpenMP threads

MPI task timing breakdown:
Section |  min time  |  avg time  |  max time  |%varavg| %total
---------------------------------------------------------------
Pair    | 12135      | 14078      | 15501      | 710.7 | 90.22
Bond    | 0.002027   | 0.0053705  | 0.0097868  |   2.9 |  0.00
Neigh   | 0.22206    | 0.2603     | 0.3164     |   4.8 |  0.00
Comm    | 36.422     | 1187.4     | 2935.6     |2179.6 |  7.61
Output  | 59.731     | 59.76      | 60.18      |   1.4 |  0.38
Modify  | 6.8264     | 278.4      | 518.98     |1252.5 |  1.78
Other   |            | 0.1044     |            |       |  0.00

Nlocal:        54.0000 ave          65 max          46 min
Histogram: 2 1 0 6 2 1 2 1 0 1
Nghost:        460.562 ave         512 max         428 min
Histogram: 2 3 3 3 0 1 1 1 1 1
Neighs:         0.00000 ave           0 max           0 min
Histogram: 16 0 0 0 0 0 0 0 0 0
FullNghs:      1911.00 ave        2652 max        1442 min
Histogram: 2 1 3 3 3 1 1 1 0 1

Total # of neighbors = 30576
Ave neighs/atom = 35.388889
Ave special neighs/atom = 0.0000000
Neighbor list builds = 2000
Dangerous builds = 2000
Total wall time: 5:34:39
