LAMMPS (2 Aug 2023)
OMP_NUM_THREADS environment is not set. Defaulting to 1 thread. (src/comm.cpp:98)
  using 1 OpenMP thread(s) per MPI task
Reading restart file ...
  restart file = 2 Aug 2023, LAMMPS = 2 Aug 2023
  restoring atom style full from restart
  orthogonal box = (-0.38706367 -0.34859865 -23.970409) to (20.724042 20.685577 84.981345)
  1 by 1 by 1 MPI processor grid
  pair style chgnet/gpu stores no restart info
  1536 atoms
Finding 1-2 1-3 1-4 neighbors ...
  special bond factors lj:    0        0        0       
  special bond factors coul:  0        0        0       
     0 = max # of 1-2 neighbors
     0 = max # of 1-3 neighbors
     0 = max # of 1-4 neighbors
     1 = max # of special neighbors
  special bonds CPU = 0.003 seconds
  read_restart CPU = 0.090 seconds
Resetting peratom fix info from restart file:
  fix style: STORE/ATOM, fix ID: msd_COMPUTE_STORE
All restart file peratom fix info was re-assigned
Neighbor list info ...
  update: every = 1 steps, delay = 10 steps, check = yes
  max neighbors/atom: 2000, page size: 100000
  master list distance cutoff = 6.3
  ghost atom cutoff = 6.3
  binsize = 3.15, bins = 7 7 35
  1 neighbor lists, perpetual/occasional/extra = 1 0 0
  (1) pair chgnet/gpu, perpetual
      attributes: full, newton on
      pair build: full/bin
      stencil: full/bin/3d
      bin: standard
Setting up Verlet run ...
  Unit style    : metal
  Current step  : 20000
  Time step     : 0.001
Per MPI rank memory allocation (min/avg/max) = 6.575 | 6.575 | 6.575 Mbytes
   Step          Temp          PotEng         TotEng         Press          Volume        c_msd[4]   
     20000   1521.5156     -5661.2355     -5359.345      -7767.3979      48380.541      223.43501    
     20010   1539.1879     -5664.8119     -5359.415      -7909.2131      48380.82       223.68597    
     20020   1530.81       -5663.3328     -5359.5981     -7978.3258      48381.535      223.94995    
     20030   1522.457      -5661.9719     -5359.8947     -7872.4922      48382.571      224.22609    
     20040   1502.8253     -5658.4475     -5360.2654     -7566.4492      48384.128      224.51772    
     20050   1477.7748     -5653.8809     -5360.6692     -7574.9553      48386.607      224.83235    
     20060   1494.3746     -5657.5583     -5361.053      -8285.794       48390.147      225.17377    
     20070   1491.5888     -5657.3848     -5361.4322     -8563.5529      48394.184      225.55336    
     20080   1468.9612     -5653.2554     -5361.7924     -7969.4214      48398.408      225.93147    
     20090   1485.4759     -5656.8523     -5362.1126     -7680.9501      48403.227      226.2828     
     20100   1510.0068     -5662.0437     -5362.4367     -8105.3833      48408.791      226.60421    
     20110   1508.2261     -5662.0876     -5362.834      -8545.996       48414.977      226.92359    
     20120   1533.685      -5667.6713     -5363.3662     -8757.8788      48421.625      227.25681    
     20130   1529.7472     -5667.6295     -5364.1058     -8388.7348      48428.811      227.61621    
     20140   1511.6594     -5665.0386     -5365.1037     -7921.0344      48436.844      228.01344    
     20150   1505.1144     -5664.9514     -5366.3152     -7580.5597      48445.77       228.44255    
     20160   1489.0971     -5663.1932     -5367.735      -7426.7874      48455.337      228.89099    
     20170   1488.0344     -5664.5522     -5369.3049     -7738.6825      48465.412      229.33694    
     20180   1507.0424     -5670.0707     -5371.0519     -8507.6537      48476.053      229.75793    
     20190   1497.0082     -5669.9484     -5372.9205     -8701.5076      48487.167      230.16188    
     20200   1498.9528     -5672.2672     -5374.8535     -8710.6533      48498.694      230.58129    
     20210   1471.1491     -5668.5593     -5376.6623     -8353.9647      48510.4        231.00884    
     20220   1449.845      -5665.8845     -5378.2145     -8184.2511      48521.923      231.47118    
     20230   1471.7886     -5671.5319     -5379.5079     -8463.2283      48533.048      231.96615    
     20240   1457.5627     -5669.7279     -5380.5266     -8877.6451      48544.055      232.42638    
     20250   1444.7255     -5667.9569     -5381.3027     -9360.3679      48555.189      232.82205    
     20260   1460.2231     -5671.563      -5381.8338     -9994.3804      48566.179      233.19485    
     20270   1445.1596     -5668.905      -5382.1647     -10072.276      48576.596      233.54798    
     20280   1432.905      -5666.6514     -5382.3425     -9652.2223      48586.375      233.87059    
     20290   1418.7579     -5663.8044     -5382.3026     -9165.5315      48595.577      234.19634    
     20300   1423.5733     -5664.5109     -5382.0535     -8819.5009      48604.157      234.51639    
     20310   1453.4843     -5670.0121     -5381.62       -8658.2216      48612.243      234.83076    
     20320   1456.7509     -5670.1479     -5381.1077     -8056.6629      48619.968      235.17466    
     20330   1446.88       -5667.605      -5380.5233     -7887.489       48627.682      235.54093    
     20340   1450.229      -5667.6259     -5379.8796     -8227.176       48635.798      235.90847    
     20350   1446.2711     -5666.1262     -5379.1653     -8344.9153      48644.648      236.27932    
     20360   1463.7489     -5668.8051     -5378.3763     -8730.075       48654.41       236.68326    
     20370   1478.1067     -5670.8145     -5377.5369     -9202.6387      48664.625      237.11371    
     20380   1463.7938     -5667.1736     -5376.7359     -9103.4272      48674.713      237.55449    
     20390   1458.8803     -5665.3894     -5375.9267     -8810.4263      48684.866      237.98961    
     20400   1450.1739     -5662.8171     -5375.0819     -8525.3404      48695.524      238.39992    
     20410   1474.4668     -5666.7682     -5374.2129     -8818.007       48706.907      238.7747     
     20420   1470.277      -5665.0675     -5373.3435     -8824.3149      48718.764      239.10826    
     20430   1453.2992     -5660.8553     -5372.5        -8653.6105      48731.147      239.40534    
     20440   1468.316      -5663.0043     -5371.6693     -8553.189       48744.353      239.66993    
     20450   1456.1558     -5659.7494     -5370.8272     -8145.8112      48758.271      239.92916    
     20460   1477.6742     -5663.1888     -5369.9971     -8420.4707      48772.773      240.21841    
     20470   1497.6782     -5666.3774     -5369.2166     -8970.9727      48787.637      240.56792    
     20480   1486.5955     -5663.5005     -5368.5387     -8908.1105      48802.686      240.95994    
     20490   1506.5489     -5666.892      -5367.9711     -9027.1281      48817.788      241.36916    
     20500   1488.7504     -5662.8896     -5367.5002     -8956.9947      48832.959      241.80793    
     20510   1510.0118     -5666.7913     -5367.1833     -9345.9044      48848.778      242.28606    
     20520   1502.3375     -5665.047      -5366.9617     -9020.0667      48865.04       242.76429    
     20530   1460.0786     -5656.5132     -5366.8127     -8011.3773      48881.329      243.20118    
     20540   1500.3971     -5664.3955     -5366.6952     -8309.5369      48897.83       243.60421    
     20550   1519.4655     -5668.1089     -5366.6252     -8527.9801      48914.719      244.033      
     20560   1527.5759     -5669.8132     -5366.7203     -8580.9201      48931.809      244.48535    
     20570   1528.1658     -5670.2366     -5367.0266     -8514.7175      48948.817      244.94078    
     20580   1490.9403     -5663.2815     -5367.4576     -8497.2732      48965.995      245.39627    
     20590   1514.5377     -5668.4674     -5367.9614     -9066.8061      48983.549      245.88562    
     20600   1501.9086     -5666.5811     -5368.5809     -8973.0077      49000.954      246.42067    
     20610   1485.1149     -5663.9429     -5369.2748     -8555.5001      49017.874      246.98306    
     20620   1464.4845     -5660.5693     -5369.9946     -8375.003       49034.8        247.55353    
     20630   1452.6059     -5658.873      -5370.6552     -8549.0055      49052.091      248.11306    
     20640   1439.7126     -5656.86       -5371.2004     -8724.1865      49069.216      248.63225    
     20650   1443.2944     -5657.9967     -5371.6264     -8884.6082      49085.989      249.09259    
     20660   1447.0016     -5659.0305     -5371.9247     -8667.7553      49102.589      249.4676     
     20670   1457.3312     -5661.3014     -5372.146      -8185.4658      49118.993      249.80111    
     20680   1455.5611     -5661.1293     -5372.3251     -7798.7773      49135.157      250.16388    
     20690   1451.5118     -5660.4496     -5372.4489     -7992.2962      49151.407      250.55228    
     20700   1472.6706     -5664.7152     -5372.5163     -8682.061       49167.85       250.93181    
     20710   1465.245      -5663.2961     -5372.5705     -8749.0883      49183.865      251.27381    
     20720   1438.5529     -5658.0311     -5372.6016     -8573.6125      49199.159      251.62292    
     20730   1453.5319     -5660.9615     -5372.56       -9351.8183      49214.053      252.02469    
     20740   1476.7661     -5665.4762     -5372.4646     -9888.24        49228.267      252.46323    
     20750   1466.2191     -5663.3042     -5372.3853     -9420.5408      49241.465      252.90747    
     20760   1453.3658     -5660.6917     -5372.3231     -8588.2046      49254.164      253.35695    
     20770   1467.11       -5663.3251     -5372.2294     -8110.7883      49267.053      253.81726    
     20780   1466.8673     -5663.1566     -5372.1091     -7970.0392      49280.512      254.26529    
     20790   1451.5589     -5659.9922     -5371.9821     -7762.0874      49294.521      254.68588    
     20800   1441.575      -5657.8271     -5371.798      -7648.115       49308.8        255.0857     
     20810   1440.7691     -5657.3247     -5371.4555     -7839.0901      49323.081      255.48018    
     20820   1449.6752     -5658.5698     -5370.9335     -8208.6977      49337.478      255.87277    
     20830   1452.6623     -5658.3981     -5370.1691     -8585.8234      49352.144      256.24843    
     20840   1473.9198     -5661.5017     -5369.0549     -8997.5881      49367.083      256.59332    
     20850   1441.4006     -5653.5425     -5367.548      -8437.2595      49382.13       256.92905    
     20860   1465.0907     -5656.3748     -5365.6798     -8111.912       49397.579      257.26786    
     20870   1487.5836     -5658.6141     -5363.4563     -7961.7882      49413.784      257.64663    
     20880   1514.6514     -5661.7401     -5361.2116     -7839.5222      49431.025      258.06651    
     20890   1500.7221     -5656.8995     -5359.1348     -7615.8399      49449.314      258.5492     
     20900   1501.2516     -5655.2457     -5357.3759     -7913.6073      49468.499      259.10862    
     20910   1511.0244     -5655.7332     -5355.9243     -8547.4168      49488.207      259.716      
     20920   1511.7099     -5654.707      -5354.7621     -9081.4429      49508.008      260.33239    
     20930   1502.9234     -5652.0798     -5353.8783     -9035.6457      49527.519      260.96542    
     20940   1495.8098     -5650.04       -5353.2499     -8943.6161      49546.884      261.60206    
     20950   1519.8252     -5654.3317     -5352.7766     -9077.0549      49565.953      262.21169    
     20960   1548.9118     -5659.9233     -5352.5971     -9093.7707      49584.337      262.79688    
     20970   1534.3773     -5657.1606     -5352.7182     -8428.8507      49601.971      263.37687    
     20980   1546.2677     -5659.9658     -5353.1642     -8275.337       49619.487      263.96897    
     20990   1574.5991     -5666.421      -5353.998      -8863.8096      49637.198      264.58678    
     21000   1539.8078     -5660.7048     -5355.1849     -9177.8535      49654.762      265.20958    
     21010   1519.8584     -5658.2065     -5356.6449     -9553.0274      49671.569      265.80035    
     21020   1503.325      -5656.5857     -5358.3045     -9311.8439      49687.09       266.33673    
     21030   1474.8502     -5652.5698     -5359.9384     -8958.6153      49701.39       266.83322    
     21040   1521.6388     -5663.514      -5361.5991     -9750.4508      49714.623      267.29802    
     21050   1493.3873     -5659.5491     -5363.2396     -9713.4225      49726.459      267.72701    
     21060   1469.4296     -5656.3513     -5364.7954     -9234.5069      49736.836      268.10258    
     21070   1454.0315     -5654.6697     -5366.169      -8657.7753      49746.139      268.45556    
     21080   1472.5124     -5659.563      -5367.3954     -8668.2818      49755.294      268.82488    
     21090   1482.2169     -5662.6135     -5368.5205     -8810.6646      49764.842      269.22817    
     21100   1452.0145     -5657.6572     -5369.5568     -8518.1275      49774.65       269.6409     
     21110   1474.7305     -5663.1248     -5370.5171     -8884.195       49784.418      270.01983    
     21120   1483.8504     -5665.875      -5371.4578     -9240.4329      49793.567      270.36857    
     21130   1435.7419     -5657.2379     -5372.3662     -9113.622       49801.555      270.68988    
     21140   1442.8805     -5659.4751     -5373.1869     -9638.0147      49808.372      270.99352    
     21150   1434.8449     -5658.613      -5373.9193     -9644.4968      49814.14       271.30794    
     21160   1423.4056     -5656.9838     -5374.5597     -9341.8756      49819.266      271.63931    
     21170   1434.5203     -5659.7106     -5375.0812     -9107.6049      49824.422      271.97297    
     21180   1438.5654     -5660.9447     -5375.5127     -8867.2483      49830.026      272.25828    
     21190   1454.5569     -5664.553      -5375.9481     -8845.4898      49836.223      272.50101    
     21200   1426.2148     -5659.3378     -5376.3563     -8714.238       49842.862      272.7422     
     21210   1406.6992     -5655.821      -5376.7118     -8700.2326      49849.864      273.00804    
     21220   1410.1709     -5656.7417     -5376.9436     -9328.4923      49857.336      273.31886    
     21230   1409.1529     -5656.6461     -5377.05       -9722.3596      49865.225      273.67624    
     21240   1404.6051     -5655.7083     -5377.0145     -9600.6673      49873.447      274.0605     
     21250   1418.2024     -5658.2476     -5376.8559     -9753.7777      49881.757      274.46501    
     21260   1429.3215     -5660.1936     -5376.5957     -9835.2059      49889.525      274.86325    
     21270   1412.2931     -5656.4788     -5376.2596     -9498.2056      49896.648      275.25541    
     21280   1426.3893     -5658.8383     -5375.8222     -9453.6154      49903.49       275.63308    
     21290   1422.7347     -5657.5741     -5375.2832     -9308.9396      49909.876      275.9531     
     21300   1421.2504     -5656.6472     -5374.6508     -9519.6799      49915.535      276.22263    
     21310   1426.6873     -5656.9849     -5373.9097     -9877.621       49920.294      276.47468    
     21320   1424.7516     -5655.7742     -5373.083      -9676.3603      49923.992      276.71898    
     21330   1423.6147     -5654.6239     -5372.1584     -9081.1262      49926.862      276.95963    
     21340   1453.5        -5659.526      -5371.1308     -8846.207       49929.278      277.22651    
     21350   1485.366      -5664.8276     -5370.1097     -8592.1877      49931.112      277.51919    
     21360   1467.9197     -5660.4324     -5369.1761     -7992.6578      49932.252      277.83954    
     21370   1458.7803     -5657.8107     -5368.3678     -7994.0834      49933.085      278.1715     
     21380   1482.8779     -5661.8522     -5367.628      -8933.6235      49933.883      278.50722    
     21390   1471.9161     -5659.0408     -5366.9915     -9513.2864      49934.359      278.818      
     21400   1454.6811     -5655.1223     -5366.4927     -9787.3733      49934.325      279.11131    
     21410   1447.5803     -5653.2667     -5366.0461     -9897.4395      49933.554      279.38954    
     21420   1455.9109     -5654.4983     -5365.6247     -9748.7446      49931.787      279.64008    
     21430   1444.9572     -5651.9557     -5365.2555     -9351.8963      49929.155      279.84626    
     21440   1442.9702     -5651.1885     -5364.8825     -9106.3649      49926.158      280.00926    
     21450   1456.8481     -5653.5762     -5364.5166     -8834.2402      49922.999      280.16044    
     21460   1470.0133     -5655.8694     -5364.1977     -8465.5881      49919.721      280.31988    
     21470   1491.631      -5659.9248     -5363.9638     -8246.9463      49916.353      280.50622    
     21480   1505.7894     -5662.7036     -5363.9334     -8099.5353      49913.289      280.70214    
     21490   1528.286      -5667.446      -5364.2122     -8520.1572      49910.902      280.88092    
     21500   1507.2605     -5663.959      -5364.8969     -9003.9225      49908.858      281.06818    
     21510   1457.1976     -5655.0981     -5365.9693     -9138.0802      49906.53       281.27805    
     21520   1458.5348     -5656.7985     -5367.4043     -9263.8457      49903.592      281.50858    
     21530   1434.02       -5653.6355     -5369.1054     -8887.58        49899.834      281.72705    
     21540   1436.1728     -5655.9738     -5371.0165     -8460.3066      49895.417      281.94484    
     21550   1448.9231     -5660.5796     -5373.0925     -8139.3983      49890.71       282.20995    
     21560   1436.3107     -5660.1775     -5375.1929     -7813.227       49886.093      282.4518     
     21570   1419.9003     -5658.8741     -5377.1456     -7859.7818      49881.811      282.65494    
     21580   1421.7125     -5660.8949     -5378.8068     -8303.1732      49877.429      282.80562    
     21590   1402.5194     -5658.4427     -5380.1628     -8253.0132      49872.452      282.91623    
     21600   1405.1348     -5659.9977     -5381.1988     -8555.4651      49867.447      283.03155    
     21610   1411.1839     -5661.9913     -5381.9922     -9262.4621      49862.541      283.16707    
     21620   1388.6207     -5658.1047     -5382.5825     -9563.7992      49857.416      283.32687    
     21630   1389.9498     -5658.7731     -5382.9871     -9776.582       49851.94       283.49398    
     21640   1383.5539     -5657.7319     -5383.215      -9657.155       49845.848      283.61879    
     21650   1383.1203     -5657.6993     -5383.2685     -9541.139       49838.879      283.67616    
     21660   1401.7487     -5661.3153     -5383.1883     -9528.0049      49831.024      283.66473    
     21670   1437.2744     -5668.2283     -5383.0524     -9600.7422      49822.254      283.60207    
     21680   1424.7844     -5665.6289     -5382.9313     -8956.3801      49812.555      283.49848    
     21690   1402.0844     -5661.0066     -5382.813      -8341.004       49802.329      283.38187    
     21700   1410.5313     -5662.5044     -5382.6348     -8319.2848      49792.617      283.30357    
     21710   1390.0526     -5658.2073     -5382.4009     -8251.9657      49783.765      283.2841     
     21720   1379.7992     -5655.8372     -5382.0652     -8499.2948      49774.966      283.32921    
     21730   1393.9725     -5658.1802     -5381.5961     -9228.1303      49765.366      283.42421    
     21740   1420.9849     -5662.9728     -5381.029      -9812.8494      49754.624      283.53803    
     21750   1400.1715     -5658.2102     -5380.3961     -9569.3801      49742.976      283.64497    
     21760   1413.4192     -5660.1621     -5379.7195     -9647.6737      49730.953      283.71015    
     21770   1430.816      -5662.894      -5378.9997     -9568.6714      49718.472      283.7138     
     21780   1451.4184     -5666.2625     -5378.2803     -9343.1752      49705.456      283.65242    
     21790   1455.0004     -5666.3566     -5377.6636     -9007.155       49692.013      283.552      
     21800   1450.7798     -5665.0082     -5377.1527     -9066.5573      49678.251      283.44729    
     21810   1476.028      -5669.6411     -5376.776      -9322.9551      49664.476      283.35152    
     21820   1465.768      -5667.3889     -5376.5596     -9104.6136      49650.882      283.27323    
     21830   1475.622      -5669.3309     -5376.5464     -8992.9206      49637.38       283.23564    
     21840   1461.6414     -5666.7458     -5376.7353     -9009.0427      49623.538      283.24737    
     21850   1423.1059     -5659.4429     -5377.0783     -8786.5816      49609.258      283.28333    
     21860   1407.4426     -5656.7596     -5377.5029     -8695.8799      49594.654      283.30941    
     21870   1399.9213     -5655.6654     -5377.901      -8962.5729      49579.78       283.30713    
     21880   1416.6216     -5659.3993     -5378.3213     -9372.6381      49564.571      283.28355    
     21890   1421.0767     -5660.7382     -5378.7762     -9326.3738      49548.924      283.26215    
     21900   1433.9776     -5663.8696     -5379.3479     -9114.4454      49532.794      283.26122    
     21910   1439.5867     -5665.6959     -5380.0613     -8992.559       49516.079      283.24807    
     21920   1416.7602     -5662.0624     -5380.9569     -8791.7125      49498.633      283.17905    
     21930   1391.2079     -5658.0377     -5382.0021     -8516.4506      49480.488      283.07284    
     21940   1397.7575     -5660.4327     -5383.0976     -8783.1375      49461.981      283.00017    
     21950   1407.3613     -5663.5375     -5384.2968     -9350.1739      49443.12       282.95435    
     21960   1383.2012     -5660.0339     -5385.587      -9239.6472      49423.983      282.91949    
     21970   1343.7872     -5653.4399     -5386.8133     -8836.6123      49404.778      282.87702    
     21980   1359.8586     -5657.7521     -5387.9367     -9154.1911      49385.498      282.79014    
     21990   1383.2147     -5663.3928     -5388.9432     -9630.356       49365.831      282.68076    
     22000   1393.4159     -5666.3892     -5389.9155     -9968.9576      49345.244      282.54296    
     22010   1418.7028     -5672.3811     -5390.8902     -10346.55       49323.469      282.35779    
     22020   1398.1421     -5669.3199     -5391.9085     -10097.904      49300.581      282.13944    
     22030   1373.6443     -5665.4301     -5392.8793     -9643.2104      49276.857      281.9302     
     22040   1382.3335     -5668.0327     -5393.758      -9542.442       49252.617      281.75921    
     22050   1395.6309     -5671.4934     -5394.5802     -9772.8155      49227.898      281.61117    
     22060   1395.8412     -5672.3031     -5395.3482     -9782.2215      49202.545      281.48328    
     22070   1394.5733     -5672.7825     -5396.0792     -9520.5447      49176.567      281.34318    
     22080   1404.2731     -5675.4207     -5396.7928     -9282.2408      49150.398      281.15294    
     22090   1379.0805     -5671.1133     -5397.484      -8635.9625      49124.066      280.91963    
     22100   1376.6112     -5671.2338     -5398.0944     -8322.2712      49097.495      280.66097    
     22110   1388.1095     -5674.0521     -5398.6313     -8389.0312      49070.705      280.35178    
     22120   1369.7399     -5670.8818     -5399.1058     -8365.4825      49043.535      279.95257    
     22130   1358.8449     -5669.1061     -5399.4918     -8699.7125      49016.019      279.47012    
     22140   1359.8986     -5669.5748     -5399.7515     -9526.2143      48988.219      278.95032    
     22150   1367.1165     -5671.1345     -5399.879      -10041.468      48959.736      278.46518    
     22160   1374.462      -5672.6345     -5399.9216     -10292.735      48929.965      278.04571    
     22170   1366.9132     -5671.0459     -5399.8307     -10159.271      48898.714      277.69251    
     22180   1394.6102     -5676.3259     -5399.6153     -9984.4144      48866.24       277.36313    
     22190   1396.5008     -5676.3384     -5399.2526     -9331.9309      48832.633      276.99017    
     22200   1394.8533     -5675.5247     -5398.7658     -8658.3696      48798.222      276.55402    
     22210   1403.6934     -5676.6255     -5398.1126     -8435.6999      48763.773      276.0871     
     22220   1398.3594     -5674.7054     -5397.2509     -8544.1564      48729.826      275.61138    
     22230   1385.3383     -5671.0254     -5396.1544     -9000.4696      48696.556      275.16003    
     22240   1404.542      -5673.4933     -5394.812      -9659.0544      48663.804      274.73322    
     22250   1394.5784     -5669.9363     -5393.2319     -9567.308       48631.3        274.33779    
     22260   1374.9207     -5664.2805     -5391.4766     -9258.6778      48598.836      273.9596     
     22270   1411.893      -5669.7279     -5389.5881     -9490.5441      48566.264      273.57341    
     22280   1426.0226     -5670.6672     -5387.7239     -9385.8939      48533.424      273.15275    
     22290   1426.7944     -5669.1204     -5386.0239     -9335.9947      48500.649      272.68613    
     22300   1459.0521     -5674.1199     -5384.623      -9530.0008      48468.3        272.2055     
     22310   1462.1805     -5673.6625     -5383.5449     -9559.8508      48436.169      271.76281    
     22320   1458.0878     -5672.1255     -5382.82       -9339.7619      48403.845      271.38375    
     22330   1458.0837     -5671.7106     -5382.4059     -9097.4215      48371.161      271.05376    
     22340   1471.035      -5674.1232     -5382.2488     -8938.6289      48338.331      270.75432    
     22350   1481.7185     -5676.3461     -5382.3519     -8708.7791      48305.887      270.46852    
     22360   1482.0968     -5676.8558     -5382.7866     -8497.7992      48274.556      270.22527    
     22370   1443.7618     -5669.9238     -5383.4608     -8331.5386      48244.483      270.02776    
     22380   1459.0436     -5673.8588     -5384.3636     -8921.6043      48215.445      269.85668    
     22390   1458.8404     -5674.9211     -5385.4663     -9369.2259      48186.962      269.69664    
     22400   1443.8582     -5673.2596     -5386.7775     -9247.5536      48158.56       269.52405    
     22410   1445.2552     -5674.9636     -5388.2043     -8932.3638      48130.143      269.35018    
     22420   1455.4229     -5678.4792     -5389.7025     -8697.1491      48102.159      269.16641    
     22430   1451.5124     -5679.2853     -5391.2844     -8052.2713      48075.155      268.96586    
     22440   1434.9349     -5677.5344     -5392.8228     -7581.3563      48049.772      268.75766    
     22450   1447.4453     -5681.5305     -5394.3366     -8078.9582      48026.539      268.55591    
     22460   1424.0371     -5678.3265     -5395.7772     -8284.4523      48005.291      268.37396    
     22470   1401.8803     -5675.224      -5397.0709     -8163.4504      47985.665      268.22709    
     22480   1417.796      -5679.5281     -5398.217      -8126.928       47967.337      268.1132     
     22490   1435.7693     -5684.1614     -5399.2842     -8552.4428      47950.25       268.0546     
     22500   1438.4382     -5685.7903     -5400.3835     -8901.5021      47934.199      268.06195    
     22510   1412.457      -5681.7224     -5401.4707     -8684.4961      47918.963      268.1089     
     22520   1427.5223     -5685.7947     -5402.5538     -8381.2406      47904.613      268.12368    
     22530   1409.1842     -5683.2253     -5403.623      -7796.9155      47890.999      268.08954    
     22540   1415.0852     -5685.4556     -5404.6824     -7811.0614      47878.229      268.04387    
     22550   1406.1591     -5684.7297     -5405.7276     -8169.7532      47866.667      268.05676    
     22560   1362.9501     -5677.1495     -5406.7207     -8316.1431      47856.538      268.171      
     22570   1340.7275     -5673.557      -5407.5375     -8749.0317      47847.544      268.33275    
     22580   1359.5504     -5677.9336     -5408.1793     -9575.7648      47838.921      268.43106    
     22590   1371.0647     -5680.7571     -5408.7182     -10031.889      47829.875      268.42671    
     22600   1352.7802     -5677.5938     -5409.1828     -9654.5099      47820.256      268.36427    
     22610   1342.5097     -5675.8828     -5409.5097     -9267.5927      47810.454      268.29916    
     22620   1355.6156     -5678.6887     -5409.7152     -8958.7402      47800.691      268.25572    
     22630   1368.8549     -5681.4185     -5409.818      -8653.7957      47791.157      268.23302    
     22640   1386.7885     -5685.0315     -5409.8728     -8607.197       47781.921      268.20128    
     22650   1392.4646     -5686.24       -5409.9551     -8536.2876      47772.835      268.1951     
     22660   1381.351      -5684.1497     -5410.0698     -8179.4438      47764.028      268.24959    
     22670   1366.3991     -5681.3027     -5410.1896     -7628.8807      47756.017      268.33852    
     22680   1370.0557     -5682.115      -5410.2763     -7674.9006      47749.34       268.45481    
     22690   1380.2803     -5684.1954     -5410.3281     -8170.0181      47743.729      268.58211    
     22700   1382.6984     -5684.7224     -5410.3752     -8251.083       47738.604      268.70304    
     22710   1382.5021     -5684.7678     -5410.4596     -7937.4636      47733.728      268.81733    
     22720   1375.6587     -5683.4854     -5410.535      -7830.117       47729.105      268.91489    
     22730   1381.4477     -5684.7308     -5410.6318     -8467.509       47724.953      268.98767    
     22740   1383.5869     -5685.2607     -5410.7373     -9187.4324      47721.319      269.02707    
     22750   1368.0758     -5682.3076     -5410.8618     -9198.7595      47718.348      269.03822    
     22760   1370.1167     -5682.8481     -5410.9974     -8720.1804      47715.967      269.05474    
     22770   1352.2418     -5679.4178     -5411.1137     -7892.7077      47714.099      269.09662    
     22780   1346.8181     -5678.3793     -5411.1513     -7462.15        47713.159      269.18018    
     22790   1353.3923     -5679.6493     -5411.1169     -7824.1844      47713.276      269.30579    
     22800   1324.3026     -5673.7123     -5410.9517     -8234.4218      47714.43       269.45705    
     22810   1332.5583     -5675.0131     -5410.6144     -8986.8377      47716.498      269.62553    
     22820   1359.7751     -5679.8928     -5410.094      -9375.5575      47718.946      269.79044    
     22830   1370.1112     -5681.2852     -5409.4355     -8926.3225      47721.573      269.91761    
     22840   1379.953      -5682.5153     -5408.7128     -8426.4151      47724.739      270.01781    
     22850   1360.6237     -5677.8669     -5407.8997     -7961.7752      47728.413      270.1025     
     22860   1367.1514     -5678.2617     -5406.9993     -7716.8879      47732.465      270.17963    
     22870   1401.047      -5683.9838     -5405.996      -7922.7209      47737.119      270.23896    
     22880   1371.7904     -5677.1444     -5404.9615     -7857.9367      47742.615      270.30739    
     22890   1406.2557     -5682.9906     -5403.9693     -8583.6215      47749.003      270.41674    
     22900   1398.1851     -5680.411      -5402.9911     -8884.9826      47756.111      270.59602    
     22910   1371.7421     -5674.2301     -5402.0568     -8531.5817      47763.784      270.85198    
     22920   1383.2724     -5675.6312     -5401.1702     -8357.3185      47772.011      271.13454    
     22930   1386.7482     -5675.424      -5400.2732     -8175.6963      47780.593      271.40869    
     22940   1394.5826     -5676.1582     -5399.453      -7946.5364      47789.409      271.64573    
     22950   1416.0154     -5679.6434     -5398.6857     -8176.6187      47798.753      271.79663    
     22960   1421.12       -5680.0488     -5398.0783     -8239.7262      47808.631      271.92679    
     22970   1393.5263     -5674.147      -5397.6514     -7920.3735      47818.991      272.13203    
     22980   1384.4328     -5672.0314     -5397.3401     -8018.6663      47830.272      272.43248    
     22990   1404.5062     -5675.7781     -5397.1039     -8588.747       47842.779      272.83512    
     23000   1378.8495     -5670.5394     -5396.9559     -8694.0602      47856          273.29807    
     23010   1379.9144     -5670.6665     -5396.8717     -8793.064       47869.452      273.74772    
     23020   1382.7653     -5671.2162     -5396.8557     -8579.486       47883.061      274.14344    
     23030   1377.8663     -5670.2714     -5396.883      -8114.0423      47896.961      274.48331    
     23040   1397.4171     -5674.2466     -5396.979      -8352.629       47911.389      274.79976    
     23050   1399.58       -5674.9296     -5397.2329     -8555.0856      47926.433      275.1507     
     23060   1387.6943     -5673.0011     -5397.6627     -8003.3864      47941.692      275.5395     
     23070   1370.5433     -5670.193      -5398.2576     -7305.8297      47957.171      275.95304    
     23080   1358.8488     -5668.6245     -5399.0094     -7012.5644      47973.723      276.38448    
     23090   1354.3195     -5668.5857     -5399.8693     -7332.1201      47992.081      276.83813    
     23100   1365.2738     -5671.771      -5400.8811     -8109.7022      48012.041      277.29493    
     23110   1368.36       -5673.5409     -5402.0387     -8601.86        48032.741      277.74943    
     23120   1374.3933     -5676.1252     -5403.4259     -8505.714       48053.782      278.19979    
     23130   1341.2291     -5671.0774     -5404.9583     -8012.2324      48075.378      278.64313    
     23140   1349.1463     -5674.2327     -5406.5427     -8152.9321      48097.958      279.08173    
     23150   1371.6378     -5680.3074     -5408.1548     -8645.1769      48121.44       279.56201    
     23160   1356.6119     -5678.9165     -5409.7453     -8691.4243      48145.16       280.09315    
     23170   1335.472      -5676.1736     -5411.1968     -8607.8959      48168.589      280.64042    
     23180   1349.7548     -5680.2909     -5412.4802     -9280.2672      48191.475      281.15465    
     23190   1343.9371     -5680.2242     -5413.5679     -9734.1356      48213.258      281.62442    
     23200   1337.9837     -5679.9712     -5414.4961     -9513.0062      48233.489      282.07557    
     23210   1314.5403     -5676.0201     -5415.1965     -9006.2497      48252.237      282.50262    
     23220   1321.5265     -5677.9222     -5415.7125     -9183.2127      48270.019      282.93925    
     23230   1321.0697     -5678.1793     -5416.0602     -9466.0813      48287.213      283.40928    
     23240   1309.5861     -5676.0762     -5416.2355     -9553.3529      48303.834      283.86556    
     23250   1331.8919     -5680.5447     -5416.2783     -9720.6009      48319.408      284.26862    
     23260   1336.519      -5681.4108     -5416.2263     -9712.5206      48333.6        284.61505    
     23270   1321.4056     -5678.3174     -5416.1316     -9280.1689      48346.434      284.9307     
     23280   1298.9602     -5673.6368     -5415.9045     -8987.0896      48357.855      285.23978    
     23290   1332.0398     -5679.8654     -5415.5696     -9503.1131      48367.976      285.53502    
     23300   1349.6431     -5682.9298     -5415.1413     -9864.4008      48376.691      285.82616    
     23310   1345.7223     -5681.7327     -5414.7221     -9518.3721      48383.903      286.16143    
     23320   1340.6228     -5680.3121     -5414.3134     -8959.4241      48390.07       286.51975    
     23330   1324.2244     -5676.6108     -5413.8658     -8538.8552      48395.634      286.79713    
     23340   1339.3963     -5679.1168     -5413.3614     -8734.0033      48400.649      286.9493     
     23350   1348.2619     -5680.3275     -5412.813      -8998.5811      48405.131      287.03089    
     23360   1347.9331     -5679.6921     -5412.2429     -9093.5987      48409.143      287.0757     
     23370   1364.038      -5682.3358     -5411.6911     -9277.2824      48412.665      287.08818    
     23380   1350.6859     -5679.1487     -5411.1533     -8935.4398      48415.795      287.0905     
     23390   1363.4403     -5681.1903     -5410.6642     -8485.8559      48418.661      287.10168    
     23400   1385.228      -5685.0688     -5410.2198     -8471.9073      48421.223      287.15541    
     23410   1389.7025     -5685.635      -5409.8981     -8849.4819      48423.389      287.27761    
     23420   1351.2647     -5677.801      -5409.6908     -8654.9509      48425.067      287.47916    
     23430   1336.6659     -5674.7465     -5409.5328     -8546.4802      48426.296      287.69469    
     23440   1313.9988     -5670.0535     -5409.3373     -8083.9052      48427.111      287.842      
     23450   1338.2927     -5674.5769     -5409.0405     -8405.7732      48427.52       287.88197    
     23460   1333.5322     -5673.2256     -5408.6337     -8639.0941      48427.328      287.86939    
     23470   1355.9049     -5677.2122     -5408.1812     -8950.2651      48426.482      287.85708    
     23480   1373.9172     -5680.2916     -5407.6868     -8998.3879      48425.244      287.87475    
     23490   1373.9972     -5679.8577     -5407.2369     -8752.2334      48423.878      287.9177     
     23500   1378.4244     -5680.307      -5406.8079     -8730.7384      48422.554      287.98263    
     23510   1387.17       -5681.6733     -5406.4389     -8875.6785      48421.323      288.04301    
     23520   1383.4456     -5680.6494     -5406.154      -9099.7985      48420.129      288.06228    
     23530   1380.5915     -5679.9042     -5405.975      -9141.7617      48418.72       288.0222     
     23540   1361.6755     -5676.0688     -5405.8929     -9018.5707      48416.874      287.97911    
     23550   1358.8974     -5675.5239     -5405.8992     -9156.6804      48414.346      287.9707     
     23560   1345.3839     -5672.9026     -5405.9591     -9149.2716      48411.173      287.96406    
     23570   1342.0992     -5672.3804     -5406.0887     -9485.1195      48407.789      287.97085    
     23580   1338.8006     -5671.8596     -5406.2224     -9882.3623      48404.113      288.00023    
     23590   1339.7847     -5672.2295     -5406.397      -10016.054      48399.727      288.05206    
     23600   1354.8936     -5675.4474     -5406.6171     -9880.1223      48394.451      288.09472    
     23610   1348.6856     -5674.4916     -5406.893      -9231.232       48388.318      288.11116    
     23620   1372.271      -5679.5636     -5407.2854     -9187.6761      48381.662      288.12415    
     23630   1372.8997     -5680.2147     -5407.8117     -9171.5797      48374.677      288.1354     
     23640   1366.8818     -5679.7328     -5408.5239     -9233.7379      48367.465      288.11066    
     23650   1338.4179     -5674.9285     -5409.3672     -9105.0014      48360.105      288.06099    
     23660   1324.3932     -5673.0417     -5410.2632     -8951.537       48352.821      288.05383    
     23670   1331.7624     -5675.4038     -5411.1631     -8774.1654      48345.745      288.10318    
     23680   1315.8952     -5673.1132     -5412.0207     -8504.1868      48338.719      288.14366    
     23690   1309.4371     -5672.6473     -5412.8363     -8826.1246      48331.896      288.09896    
     23700   1323.5359     -5676.2        -5413.5915     -9622.5804      48325.008      287.96465    
     23710   1319.4378     -5676.1238     -5414.3284     -10123.978      48317.235      287.79486    
     23720   1298.9099     -5672.7133     -5414.9909     -10151.181      48307.992      287.59522    
     23730   1324.7137     -5678.4137     -5415.5715     -10478.324      48297.088      287.31698    
     23740   1335.393      -5681.0878     -5416.1267     -10393.024      48284.459      286.98281    
     23750   1345.1064     -5683.5981     -5416.7098     -10123.564      48270.568      286.6631     
     23760   1359.6174     -5687.1042     -5417.3367     -9978.3364      48256.002      286.44409    
     23770   1358.2857     -5687.5972     -5418.0938     -9654.5477      48240.755      286.32785    
     23780   1346.3566     -5686.0734     -5418.9369     -9234.7611      48224.549      286.22914    
     23790   1363.7445     -5690.4639     -5419.8774     -9511.8423      48207.442      286.1348     
     23800   1373.5149     -5693.4595     -5420.9344     -9844.741       48189.494      286.05465    
     23810   1359.5047     -5691.8906     -5422.1454     -9870.8846      48170.817      285.89374    
     23820   1335.2304     -5688.3193     -5423.3905     -9929.6219      48151.431      285.6056     
     23830   1332.558      -5688.9979     -5424.5993     -10254.786      48131.266      285.25907    
     23840   1335.3478     -5690.7385     -5425.7864     -10255.692      48110.176      284.92228    
     23850   1320.5178     -5688.8855     -5426.8759     -9629.5221      48088.449      284.62447    
     23860   1298.8177     -5685.5105     -5427.8065     -9112.1321      48066.646      284.38907    
     23870   1302.9274     -5687.1119     -5428.5925     -9383.6532      48044.935      284.17904    
     23880   1300.8655     -5687.3295     -5429.2191     -10040.179      48022.896      283.96714    
     23890   1302.4355     -5688.1487     -5429.7268     -10644.206      48000.146      283.75045    
     23900   1292.2903     -5686.5179     -5430.109      -10776.863      47976.528      283.52083    
     23910   1272.2211     -5682.7899     -5430.363      -10376.554      47951.867      283.25117    
     23920   1282.981      -5685.0051     -5430.4433     -9844.8354      47926.072      282.93048    
     23930   1298.6551     -5688.045      -5430.3733     -9289.4889      47899.335      282.58407    
     23940   1310.2907     -5690.2002     -5430.2198     -8881.9191      47872.007      282.27039    
     23950   1304.5435     -5688.8328     -5429.9927     -8544.0893      47844.675      282.00463    
     23960   1313.404      -5690.3203     -5429.7222     -8599.8442      47818.046      281.76672    
     23970   1309.6196     -5689.2631     -5429.4158     -8789.4897      47792.158      281.53489    
     23980   1314.6016     -5689.9219     -5429.0861     -8832.9422      47766.904      281.27426    
     23990   1305.7464     -5687.8132     -5428.7344     -8853.7563      47742.189      280.94646    
     24000   1300.2901     -5686.3392     -5428.3431     -9028.4942      47718.022      280.57547    
     24010   1304.4172     -5686.7        -5427.8849     -9361.3293      47694.414      280.25518    
     24020   1302.3017     -5685.7709     -5427.3756     -9268.7623      47671.055      280.03199    
     24030   1297.4429     -5684.246      -5426.8147     -9229.6052      47647.874      279.86205    
     24040   1279.5815     -5680.0371     -5426.1498     -9366.4528      47624.919      279.69326    
     24050   1288.1269     -5680.9633     -5425.3804     -9591.3055      47601.957      279.47909    
     24060   1308.9928     -5684.22       -5424.4971     -9552.4182      47578.641      279.22308    
     24070   1340.8068     -5689.5861     -5423.5508     -9411.1519      47554.629      278.97733    
     24080   1359.1311     -5692.3264     -5422.6553     -8981.9023      47530.118      278.7662     
     24090   1352.6788     -5690.3031     -5421.9122     -8334.8646      47505.974      278.57524    
     24100   1338.2416     -5686.8142     -5421.2879     -7558.5926      47483.041      278.37687    
     24110   1354.3202     -5689.485      -5420.7685     -7310.4896      47461.866      278.16543    
     24120   1371.2902     -5692.455      -5420.3713     -7508.0007      47442.84       277.98866    
     24130   1352.075      -5688.4695     -5420.1984     -7600.6047      47425.861      277.85498    
     24140   1326.8896     -5683.4176     -5420.1437     -7929.8954      47410.836      277.75355    
     24150   1355.4544     -5689.1411     -5420.1995     -9053.3266      47397.523      277.69792    
     24160   1356.9797     -5689.6205     -5420.3763     -9588.8876      47384.991      277.66157    
     24170   1361.2495     -5690.8513     -5420.7599     -9696.3257      47372.533      277.5897     
     24180   1348.3418     -5688.8756     -5421.3453     -9347.4628      47360.023      277.45698    
     24190   1335.7639     -5687.1328     -5422.0981     -9231.7514      47347.633      277.32037    
     24200   1344.2359     -5689.7908     -5423.0751     -9438.1586      47335.257      277.23428    
     24210   1334.6871     -5689.1078     -5424.2867     -9013.7896      47322.502      277.19483    
     24220   1317.8705     -5687.2335     -5425.7491     -8248.5654      47309.621      277.19934    
     24230   1321.2786     -5689.5989     -5427.4383     -7743.9444      47297.427      277.24203    
     24240   1334.3592     -5694.1619     -5429.4059     -7616.2561      47286.722      277.31097    
     24250   1329.849      -5695.4348     -5431.5737     -8108.4831      47277.86       277.38453    
     24260   1313.5624     -5694.3717     -5433.7421     -8608.4404      47270.243      277.44199    
     24270   1295.8922     -5692.7772     -5435.6537     -8936.1534      47262.881      277.49424    
     24280   1319.0818     -5698.9036     -5437.1788     -9405.664       47255.108      277.56507    
     24290   1302.2748     -5696.6898     -5438.2999     -9515.7515      47246.443      277.63737    
     24300   1313.3959     -5699.6979     -5439.1013     -9636.5763      47236.663      277.70997    
     24310   1314.2634     -5700.479      -5439.7103     -9679.0499      47225.766      277.79833    
     24320   1291.6545     -5696.4338     -5440.1511     -9413.7559      47213.969      277.88219    
     24330   1299.5002     -5698.3136     -5440.4742     -9559.2306      47201.557      277.95151    
     24340   1304.0058     -5699.4613     -5440.7279     -9313.3639      47188.507      278.0202     
     24350   1302.905      -5699.4642     -5440.9492     -8934.6548      47174.865      278.05866    
     24360   1299.9209     -5699.0618     -5441.1388     -8955.1361      47161.115      278.04002    
     24370   1317.2387     -5702.6697     -5441.3107     -9108.5281      47147.656      277.95424    
     24380   1317.3026     -5702.9        -5441.5283     -8983.4931      47134.202      277.77351    
     24390   1312.6404     -5702.2548     -5441.8081     -8755.3028      47120.525      277.5787     
     24400   1321.2813     -5704.2861     -5442.125      -8528.9352      47106.618      277.44529    
     24410   1328.5627     -5706.1205     -5442.5146     -8212.9086      47092.485      277.34287    
     24420   1307.0188     -5702.3185     -5442.9872     -7850.5165      47078.026      277.22124    
     24430   1295.6129     -5700.5314     -5443.4632     -8307.3298      47063.413      277.08657    
     24440   1325.6261     -5707.0038     -5443.9806     -9245.6139      47048.764      276.95947    
     24450   1295.9837     -5701.7051     -5444.5633     -9285.7459      47034.003      276.87895    
     24460   1279.6395     -5699.0208     -5445.1219     -9293.006       47019.152      276.84572    
     24470   1302.0084     -5703.9943     -5445.6571     -9535.3759      47004.2        276.83948    
     24480   1308.0419     -5705.7466     -5446.2123     -9398.8774      46989.248      276.84259    
     24490   1293.794      -5703.5039     -5446.7966     -8751.1208      46974.65       276.83625    
     24500   1272.3632     -5699.7986     -5447.3435     -8272.9242      46960.723      276.76156    
     24510   1273.5542     -5700.5006     -5447.8092     -8388.5896      46947.835      276.61455    
     24520   1281.1853     -5702.4192     -5448.2137     -9167.0635      46936.089      276.42055    
     24530   1270.7731     -5700.7039     -5448.5643     -9861.1959      46925.011      276.20747    
     24540   1271.3947     -5701.1422     -5448.8793     -10397.253      46913.831      276.01649    
     24550   1251.8084     -5697.4504     -5449.0737     -9859.4671      46902.15       275.88499    
     24560   1257.2531     -5698.6066     -5449.1496     -9461.2769      46890.341      275.80572    
     24570   1254.2852     -5697.9602     -5449.0921     -9222.6122      46878.752      275.74152    
     24580   1266.2088     -5700.1165     -5448.8825     -9371.8436      46867.531      275.67542    
     24590   1289.9233     -5704.4978     -5448.5585     -9650.2884      46856.594      275.62934    
     24600   1290.5415     -5704.2671     -5448.2052     -9561.7811      46845.616      275.60804    
     24610   1266.3802     -5699.0695     -5447.8015     -8890.9609      46834.511      275.58678    
     24620   1276.288      -5700.5511     -5447.3173     -8453.8146      46823.659      275.51267    
     24630   1297.0462     -5704.0741     -5446.7216     -8319.878       46813.195      275.34658    
     24640   1291.8216     -5702.4042     -5446.0883     -7994.7196      46803.222      275.16057    
     24650   1271.2267     -5697.661      -5445.4314     -7648.3099      46794.033      275.048      
     24660   1269.5681     -5696.566      -5444.6655     -7813.3937      46785.869      274.97377    
     24670   1294.736      -5700.7068     -5443.8126     -8366.9258      46778.576      274.93143    
     24680   1294.7709     -5699.8019     -5442.9008     -8824.117       46771.703      274.91399    
     24690   1305.37       -5700.9888     -5441.9847     -9018.1093      46764.922      274.88059    
     24700   1321.3992     -5703.2908     -5441.1062     -9198.6386      46757.94       274.81758    
     24710   1316.0159     -5701.4403     -5440.3239     -9324.6666      46750.513      274.75287    
     24720   1288.7638     -5695.3085     -5439.5993     -9339.2839      46742.716      274.76795    
     24730   1307.9088     -5698.4399     -5438.9321     -9620.6116      46734.397      274.84689    
     24740   1299.9865     -5696.2368     -5438.3009     -9264.7116      46725.094      274.91028    
     24750   1295.1        -5694.6621     -5437.6957     -8726.4497      46714.936      274.92334    
     24760   1317.1516     -5698.4993     -5437.1575     -8613.5492      46704.463      274.90827    
     24770   1329.3988     -5700.4563     -5436.6845     -8795.345       46693.856      274.90709    
     24780   1322.4604     -5698.7216     -5436.3265     -8967.8996      46683.1        274.92819    
     24790   1318.6552     -5697.7551     -5436.115      -9495.516       46672.293      274.94321    
     24800   1293.9814     -5692.7662     -5436.0218     -9628.0539      46661.27       274.92338    
     24810   1290.7854     -5692.0748     -5435.9645     -9449.0824      46650.07       274.83548    
     24820   1295.7666     -5693.0123     -5435.9137     -9196.2912      46638.835      274.70454    
     24830   1309.6864     -5695.804      -5435.9434     -9027.9619      46627.591      274.59578    
     24840   1299.0082     -5693.7784     -5436.0366     -8799.607       46616.337      274.49457    
     24850   1303.1353     -5694.7738     -5436.2131     -9083.8926      46605.032      274.38779    
     24860   1345.0263     -5703.438      -5436.5655     -9792.0114      46593.346      274.30299    
     24870   1323.3944     -5699.7843     -5437.2039     -9413.2387      46580.933      274.2288     
     24880   1300.4061     -5696.1617     -5438.1426     -8713.1101      46568.062      274.14154    
     24890   1310.9039     -5699.4492     -5439.3471     -8750.0847      46555.426      274.0644     
     24900   1302.5554     -5699.3364     -5440.8908     -8965.4118      46542.986      274.00311    
     24910   1261.7207     -5692.983      -5442.6396     -8691.4354      46530.254      273.90562    
     24920   1275.4354     -5697.5229     -5444.4583     -8744.7289      46517.257      273.75536    
     24930   1277.7406     -5699.7616     -5446.2396     -8779.3666      46504.171      273.6134     
     24940   1280.2208     -5701.9076     -5447.8934     -8946.8426      46491.298      273.53319    
     24950   1286.4221     -5704.6359     -5449.3913     -9189.7012      46478.81       273.48875    
     24960   1283.9504     -5705.4346     -5450.6804     -9183.6886      46466.6        273.43812    
     24970   1299.3233     -5709.6302     -5451.8259     -9303.8736      46454.454      273.37788    
     24980   1302.3043     -5711.2584     -5452.8626     -9218.7364      46441.957      273.29625    
     24990   1262.6782     -5704.3099     -5453.7765     -8811.8679      46429.022      273.22478    
     25000   1236.1087     -5699.7371     -5454.4754     -8504.6721      46415.995      273.20649    
     25010   1239.2817     -5700.828      -5454.9368     -8680.9884      46403.311      273.15592    
     25020   1235.039      -5700.2933     -5455.2439     -9055.877       46391.221      273.02238    
     25030   1259.1399     -5705.243      -5455.4117     -9645.6953      46379.634      272.88214    
     25040   1258.6535     -5705.2269     -5455.492      -9612.1395      46368.126      272.78336    
     25050   1258.6826     -5705.2668     -5455.5262     -9303.7098      46356.925      272.75502    
     25060   1272.1749     -5707.927      -5455.5093     -9309.341       46346.644      272.76478    
     25070   1256.7003     -5704.8435     -5455.4962     -9178.0148      46337.086      272.76808    
     25080   1239.2393     -5701.3184     -5455.4355     -9341.3264      46327.547      272.7755     
     25090   1243.7668     -5702.0479     -5455.2667     -9651.9699      46317.992      272.7793     
     25100   1258.8386     -5704.7783     -5455.0067     -9936.5233      46308.713      272.77511    
     25110   1267.0016     -5706.0857     -5454.6944     -9775.1065      46299.541      272.76035    
     25120   1303.8757     -5713.0935     -5454.3859     -9655.5542      46290.371      272.73594    
     25130   1300.8502     -5712.2626     -5454.1553     -8941.3911      46281.218      272.71548    
     25140   1287.3094     -5709.4702     -5454.0496     -8493.8196      46272.219      272.68708    
     25150   1275.821      -5707.1334     -5453.9923     -8543.7953      46263.569      272.65816    
     25160   1249.4442     -5701.8567     -5453.9491     -8535.6233      46255.348      272.63312    
     25170   1224.3937     -5696.8015     -5453.8643     -8433.776       46247.362      272.63017    
     25180   1202.5832     -5692.2272     -5453.6174     -8337.2303      46239.659      272.67063    
     25190   1212.2585     -5693.658      -5453.1285     -8656.2583      46232.484      272.7244     
     25200   1254.8094     -5701.4015     -5452.4293     -9286.3668      46225.699      272.74109    
     25210   1255.3922     -5700.6738     -5451.586      -9068.5819      46218.909      272.68038    
     25220   1262.3183     -5701.1272     -5450.6652     -8679.6809      46212.119      272.57084    
     25230   1301.9977     -5708.0255     -5449.6905     -8318.8712      46205.367      272.447      
     25240   1330.7406     -5712.8112     -5448.7732     -7609.0389      46198.704      272.3343     
     25250   1323.3973     -5710.6267     -5448.0457     -6754.7903      46192.665      272.23044    
     25260   1330.2744     -5711.499      -5447.5535     -6879.4795      46187.909      272.15941    
     25270   1311.5731     -5707.4755     -5447.2406     -7565.4209      46184.565      272.16675    
     25280   1323.0371     -5709.6515     -5447.142      -8668.349       46182.557      272.27625    
     25290   1326.8933     -5710.5341     -5447.2594     -9225.9181      46181.396      272.43369    
     25300   1312.4328     -5708.0149     -5447.6094     -8953.1026      46180.672      272.59304    
     25310   1318.1209     -5709.7485     -5448.2145     -8851.016       46180.394      272.76554    
     25320   1297.416      -5706.509      -5449.0831     -8687.8974      46180.551      272.97018    
     25330   1292.943      -5706.7083     -5450.1698     -8725.2964      46181.064      273.16832    
     25340   1291.9082     -5707.7974     -5451.4643     -8975.4406      46181.874      273.35656    
     25350   1255.8242     -5702.0801     -5452.9066     -8706.9878      46183.17       273.56583    
     25360   1256.9168     -5703.7676     -5454.3773     -9033.4526      46184.944      273.78503    
     25370   1268.26       -5707.467      -5455.8261     -9384.4878      46186.819      273.96805    
     25380   1260.8486     -5707.3788     -5457.2084     -9304.581       46188.521      274.14128    
     25390   1252.5381     -5706.9844     -5458.4629     -8962.4122      46190.096      274.35218    
     25400   1241.6599     -5705.8835     -5459.5204     -8821.1759      46191.761      274.55774    
     25410   1253.2402     -5709.0238     -5460.363      -9219.7888      46193.728      274.71532    
     25420   1266.166      -5712.2937     -5461.0682     -9524.3081      46195.966      274.88593    
     25430   1225.6037     -5704.8007     -5461.6233     -8740.9717      46198.442      275.11603    
     25440   1250.7364     -5710.2026     -5462.0386     -8846.8538      46201.389      275.41688    
     25450   1266.3886     -5713.6044     -5462.3347     -8860.8147      46204.481      275.76248    
     25460   1274.3888     -5715.5054     -5462.6484     -8899.0183      46207.41       276.07754    
     25470   1247.0042     -5710.3788     -5462.9553     -8687.684       46210.088      276.3218     
     25480   1234.5692     -5708.1489     -5463.1927     -8623.8503      46212.524      276.52014    
     25490   1247.0567     -5710.8054     -5463.3715     -8743.005       46214.755      276.71296    
     25500   1213.6162     -5704.2773     -5463.4785     -8197.4929      46216.818      276.92676    
     25510   1231.1001     -5707.7615     -5463.4936     -8362.7799      46219.124      277.15982    
     25520   1241.6044     -5709.7434     -5463.3913     -8816.5647      46221.531      277.39408    
     25530   1262.7949     -5713.8523     -5463.2957     -9127.9898      46223.666      277.6221     
     25540   1240.1745     -5709.2714     -5463.203      -8834.5021      46225.526      277.8521     
     25550   1256.1685     -5712.3677     -5463.1259     -8982.2105      46227.44       278.08641    
     25560   1262.0444     -5713.4495     -5463.0418     -9069.7655      46229.319      278.28031    
     25570   1249.6133     -5710.9314     -5462.9902     -8874.2735      46230.832      278.42506    
     25580   1263.6751     -5713.6937     -5462.9625     -8727.4967      46232.028      278.56645    
     25590   1266.0026     -5714.1617     -5462.9687     -8652.2741      46233.15       278.70373    
     25600   1262.6086     -5713.571      -5463.0514     -8827.9082      46234.245      278.83869    
     25610   1251.716      -5711.525      -5463.1666     -9272.9254      46235.257      278.96869    
     25620   1247.2513     -5710.804      -5463.3314     -9560.7327      46236.109      279.09482    
     25630   1228.0445     -5707.1484     -5463.4868     -9290.8814      46236.683      279.22409    
     25640   1208.8995     -5703.4424     -5463.5794     -8909.1057      46237.079      279.37987    
     25650   1208.36       -5703.3186     -5463.5627     -8711.4615      46237.456      279.55869    
     25660   1219.7951     -5705.4434     -5463.4185     -8538.2927      46237.859      279.76359    
     25670   1225.4643     -5706.3076     -5463.1579     -8533.1774      46238.063      280.00389    
     25680   1209.0034     -5702.6587     -5462.7751     -8614.3078      46237.892      280.27407    
     25690   1242.0698     -5708.7085     -5462.2641     -9235.3637      46237.475      280.53876    
     25700   1236.3406     -5706.9155     -5461.6078     -9555.386       46236.527      280.77591    
     25710   1248.838      -5708.6774     -5460.89       -9967.199       46234.799      281.00315    
     25720   1232.542      -5704.6066     -5460.0526     -9890.756       46232.134      281.22663    
     25730   1247.4718     -5706.6288     -5459.1125     -9794.2354      46228.456      281.44738    
     25740   1250.022      -5706.0905     -5458.0682     -9477.5404      46223.599      281.67391    
     25750   1229.2238     -5700.8478     -5456.9522     -9038.5784      46217.893      281.90037    
     25760   1239.9513     -5701.7681     -5455.744      -9012.748       46212.099      282.10615    
     25770   1276.9454     -5707.8311     -5454.4668     -9366.9104      46206.676      282.29441    
     25780   1292.5839     -5709.7302     -5453.2631     -9205.3861      46201.504      282.48307    
     25790   1280.4503     -5706.2941     -5452.2344     -8668.7173      46196.614      282.72408    
     25800   1299.9321     -5709.3395     -5451.4143     -8691.844       46192.11       283.01414    
     25810   1299.459      -5708.6444     -5450.8131     -8719.6155      46187.416      283.30138    
     25820   1275.6368     -5703.5508     -5450.4462     -8649.6055      46182          283.54408    
     25830   1288.5881     -5705.9319     -5450.2576     -9153.2697      46175.905      283.76903    
     25840   1270.1514     -5702.2357     -5450.2195     -9335.7017      46169.602      284.02528    
     25850   1263.6509     -5701.0481     -5450.3217     -9338.9324      46163.628      284.30117    
     25860   1257.1922     -5699.9561     -5450.5111     -9109.0802      46157.787      284.58134    
     25870   1264.4965     -5701.6831     -5450.7889     -9336.8537      46151.948      284.85277    
     25880   1280.76       -5705.3134     -5451.1922     -9618.5917      46146.126      285.0606     
     25890   1252.5915     -5700.2677     -5451.7356     -9101.9883      46140.148      285.17847    
     25900   1235.5331     -5697.516      -5452.3685     -8398.3256      46134.081      285.26874    
     25910   1261.0996     -5703.2834     -5453.0632     -8378.111       46128.127      285.40516    
     25920   1262.7979     -5704.407      -5453.8498     -8427.9038      46122.448      285.5973     
     25930   1254.6206     -5703.7386     -5454.804      -8203.9275      46117.315      285.81298    
     25940   1239.9807     -5701.8556     -5455.8257     -7921.4192      46112.915      286.01191    
     25950   1278.6018     -5710.686      -5456.9931     -8272.1989      46109.613      286.17312    
     25960   1267.249      -5709.7617     -5458.3214     -8220.0723      46107.592      286.34071    
     25970   1255.6974     -5708.9139     -5459.7656     -8399.2727      46106.746      286.55849    
     25980   1236.3133     -5706.4768     -5461.1745     -8648.0692      46106.622      286.80217    
     25990   1217.5443     -5704.0071     -5462.4288     -8805.9545      46106.998      286.99433    
     26000   1218.2878     -5705.1812     -5463.4554     -9299.2562      46107.627      287.13762    
     26010   1211.9548     -5704.6956     -5464.2264     -9720.5448      46107.982      287.28352    
     26020   1229.4308     -5708.7272     -5464.7905     -10044.161      46107.73       287.47633    
     26030   1257.4559     -5714.7382     -5465.2409     -9960.5454      46106.952      287.72413    
     26040   1270.2157     -5717.6982     -5465.6693     -9514.6117      46105.961      287.99516    
     26050   1254.013      -5714.9491     -5466.135      -8890.8996      46104.863      288.22751    
     26060   1249.0322     -5714.3969     -5466.571      -8642.1073      46103.792      288.38528    
     26070   1287.8811     -5722.5784     -5467.0443     -9318.2195      46102.653      288.49682    
     26080   1291.7838     -5723.9557     -5467.6473     -9804.0961      46101.052      288.59255    
     26090   1250.7365     -5716.5406     -5468.3766     -9534.4795      46098.778      288.68635    
     26100   1220.5807     -5711.2555     -5469.0748     -9215.1359      46096.11       288.80103    
     26110   1241.0743     -5715.9902     -5469.7433     -9472.3049      46093.502      288.962      
     26120   1238.8008     -5716.1975     -5470.4017     -9410.7455      46091.03       289.15056    
     26130   1224.3928     -5713.9878     -5471.0507     -9239.4546      46088.658      289.32621    
     26140   1226.71       -5715.0853     -5471.6885     -9330.5075      46086.498      289.49442    
     26150   1196.0492     -5709.5815     -5472.2682     -9052.4513      46084.627      289.67166    
     26160   1185.1568     -5707.8889     -5472.7368     -9146.4097      46083.094      289.84999    
     26170   1198.3803     -5710.8625     -5473.0867     -9393.5314      46081.698      290.04183    
     26180   1206.6813     -5712.7646     -5473.3418     -9520.1501      46080.399      290.22481    
     26190   1223.4035     -5716.3092     -5473.5684     -9720.5991      46079.202      290.35162    
     26200   1194.0496     -5710.6652     -5473.7486     -9426.8084      46078.107      290.42753    
     26210   1197.2617     -5711.4305     -5473.8767     -9336.0742      46077.249      290.49206    
     26220   1204.3013     -5712.8701     -5473.9195     -9411.6532      46076.69       290.54332    
     26230   1209.8814     -5713.9636     -5473.9058     -9227.3678      46076.321      290.58927    
     26240   1209.7445     -5713.8717     -5473.8411     -8964.2015      46076.253      290.64002    
     26250   1228.2196     -5717.4701     -5473.7737     -8933.4954      46076.662      290.67446    
     26260   1219.1117     -5715.601      -5473.7117     -8833.1793      46077.396      290.71224    
     26270   1206.9449     -5713.1155     -5473.6403     -9004.7483      46078.53       290.79684    
     26280   1235.4401     -5718.6951     -5473.566      -9664.5734      46079.905      290.95597    
     26290   1237.4064     -5719.04       -5473.5209     -9987.1737      46080.935      291.19007    
     26300   1229.0035     -5717.4166     -5473.5647     -10041.272      46081.346      291.49952    
     26310   1222.6561     -5716.2338     -5473.6413     -9919.4742      46081.234      291.86278    
     26320   1222.9922     -5716.4154     -5473.7562     -10079.352      46080.729      292.18545    
     26330   1222.8235     -5716.5425     -5473.9168     -10336.611      46079.992      292.41383    
     26340   1204.4526     -5713.0723     -5474.0916     -10138.889      46079.036      292.59064    
     26350   1218.4486     -5716.0543     -5474.2967     -10030.487      46077.741      292.77189    
     26360   1206.6133     -5713.9109     -5474.5015     -9814.0876      46075.823      292.99776    
     26370   1196.2131     -5712.0637     -5474.7179     -9706.4803      46073.12       293.23213    
     26380   1209.8499     -5714.9601     -5474.9085     -10061.036      46069.688      293.39532    
     26390   1214.6152     -5716.103      -5475.106      -10370.265      46065.632      293.48393    
     26400   1246.2028     -5722.619      -5475.3545     -10743.227      46060.982      293.5418     
     26410   1250.4446     -5723.8689     -5475.7628     -10403.005      46055.464      293.61106    
     26420   1214.8918     -5717.3679     -5476.316      -9685.4402      46049.198      293.72261    
     26430   1222.5214     -5719.5688     -5477.0031     -9770.5452      46042.588      293.85966    
     26440   1201.0975     -5716.0686     -5477.7537     -9954.1013      46035.482      294.01676    
     26450   1209.0322     -5718.4724     -5478.5831     -10135.937      46027.498      294.20573    
     26460   1215.4215     -5720.6429     -5479.4859     -9752.8783      46018.486      294.36991    
     26470   1192.9042     -5717.1346     -5480.4454     -9026.3599      46008.829      294.4813     
     26480   1187.8477     -5717.0684     -5481.3824     -8653.0503      45999.224      294.56383    
     26490   1179.8337     -5716.3759     -5482.2799     -8356.8892      45990.142      294.61728    
     26500   1167.322      -5714.7004     -5483.087      -8284.6806      45981.887      294.66654    
     26510   1162.4787     -5714.4089     -5483.7565     -8518.1694      45974.477      294.75557    
     26520   1166.3427     -5715.7288     -5484.3097     -8824.708       45967.57       294.91017    
     26530   1165.7355     -5716.0049     -5484.7063     -8953.8674      45961.17       295.08439    
     26540   1193.3467     -5721.7815     -5485.0044     -8958.6152      45955.235      295.19269    
     26550   1206.82       -5724.7017     -5485.2513     -8616.7933      45949.638      295.22533    
     26560   1212.5843     -5726.1101     -5485.516      -8479.8028      45944.674      295.217      
     26570   1208.7991     -5725.6622     -5485.8192     -8578.4964      45940.724      295.23445    
     26580   1193.3475     -5722.9102     -5486.1329     -8597.837       45937.745      295.33824    
     26590   1209.6195     -5726.447      -5486.4412     -8910.7172      45935.546      295.50697    
     26600   1218.3464     -5728.567      -5486.8296     -8886.501       45933.753      295.69149    
     26610   1198.5862     -5725.0792     -5487.2626     -8812.7844      45932.165      295.86997    
     26620   1194.976      -5724.8445     -5487.7441     -9025.8824      45931.029      296.09544    
     26630   1168.5438     -5720.0706     -5488.2147     -9133.7162      45930.367      296.37612    
     26640   1162.3911     -5719.2836     -5488.6485     -9452.6873      45930.124      296.67733    
     26650   1157.6295     -5718.6691     -5488.9788     -9501.8642      45930.073      296.97082    
     26660   1148.9428     -5717.1533     -5489.1866     -9699.1627      45929.967      297.1866     
     26670   1158.8176     -5719.2107     -5489.2847     -10199.735      45929.478      297.27275    
     26680   1142.5457     -5715.9064     -5489.209      -10092.869      45928.117      297.29415    
     26690   1145.4906     -5716.2177     -5488.9359     -9699.119       45925.984      297.31169    
     26700   1161.6881     -5718.9001     -5488.4046     -9074.0809      45923.683      297.34719    
     26710   1192.4841     -5724.2369     -5487.631      -8806.8247      45921.859      297.42549    
     26720   1202.1673     -5725.1898     -5486.6626     -8776.3115      45920.486      297.53377    
     26730   1199.0482     -5723.4712     -5485.5628     -8905.2918      45919.187      297.62033    
     26740   1195.5383     -5721.5643     -5484.3524     -9356.1627      45917.962      297.69217    
     26750   1175.3092     -5716.2598     -5483.0616     -9915.6871      45916.802      297.7943     
     26760   1183.9404     -5716.5934     -5481.6827     -10681.039      45915.209      297.93322    
     26770   1183.2518     -5715.0388     -5480.2647     -10565.829      45912.489      298.0808     
     26780   1153.1701     -5707.6879     -5478.8824     -9683.3119      45908.669      298.22441    
     26790   1190.6181     -5713.7787     -5477.543      -9597.0643      45904.396      298.3247     
     26800   1196.2166     -5713.6161     -5476.2696     -9130.7085      45899.931      298.35134    
     26810   1202.6145     -5713.8168     -5475.2008     -8699.2209      45895.477      298.35653    
     26820   1205.9256     -5713.5784     -5474.3055     -8503.9559      45891.222      298.41609    
     26830   1218.2279     -5715.3098     -5473.596      -8487.14        45886.89       298.56784    
     26840   1209.6745     -5713.058      -5473.0412     -8599.0795      45882.164      298.76815    
     26850   1251.2003     -5720.8989     -5472.6429     -9326.4071      45877.332      298.9282     
     26860   1260.7961     -5722.6282     -5472.4682     -9432.2051      45872.46       299.02414    
     26870   1234.2659     -5717.4423     -5472.5462     -9033.0365      45867.371      299.09657    
     26880   1206.916      -5712.245      -5472.7756     -8986.2854      45862.139      299.14456    
     26890   1190.6186     -5709.2812     -5473.0455     -9400.2771      45856.812      299.16957    
     26900   1192.5302     -5709.9232     -5473.3081     -10189.201      45851.23       299.18243    
     26910   1196.5081     -5710.9937     -5473.5893     -10746.572      45844.811      299.16001    
     26920   1179.4303     -5707.8765     -5473.8606     -10457.061      45836.966      299.07459    
     26930   1209.5286     -5714.1387     -5474.1509     -9845.3537      45827.757      298.95437    
     26940   1223.1503     -5717.194      -5474.5034     -8846.9217      45817.838      298.83949    
     26950   1225.1514     -5718.045      -5474.9575     -8297.5738      45807.984      298.73827    
     26960   1254.4655     -5724.4933     -5475.5894     -8743.054       45798.489      298.62781    
     26970   1249.9688     -5724.4834     -5476.4717     -9250.3014      45789.098      298.51864    
     26980   1212.3928     -5718.1003     -5477.5442     -9151.6237      45779.727      298.39407    
     26990   1198.8785     -5716.5531     -5478.6784     -9429.859       45770.681      298.24784    
     27000   1197.7948     -5717.4697     -5479.8101     -9913.6325      45761.824      298.15306    
     27010   1180.2315     -5715.0802     -5480.9054     -9880.1184      45752.689      298.12165    
     27020   1170.2212     -5714.0757     -5481.887      -9822.3777      45743.236      298.10815    
     27030   1169.6525     -5714.8004     -5482.7246     -9863.9934      45733.577      298.12447    
     27040   1158.825      -5713.3414     -5483.414      -9629.5172      45723.72       298.17385    
     27050   1166.9919     -5715.5072     -5483.9593     -9383.3152      45713.971      298.22569    
     27060   1179.583      -5718.4307     -5484.3845     -9447.0361      45704.534      298.23428    
     27070   1183.101      -5719.5238     -5484.7796     -9476.1475      45695.195      298.19556    
     27080   1160.6339     -5715.4014     -5485.115      -9173.4258      45685.878      298.09756    
     27090   1166.1163     -5716.7373     -5485.3631     -9033.5008      45676.831      297.93391    
     27100   1185.9625     -5720.8641     -5485.5522     -9548.4016      45668.037      297.71387    
     27110   1204.372      -5724.7156     -5485.7509     -10030.205      45659.116      297.47516    
     27120   1202.8834     -5724.6863     -5486.017      -10094.337      45649.714      297.26731    
     27130   1179.0238     -5720.2679     -5486.3327     -9716.0366      45639.905      297.1072     
     27140   1154.0956     -5715.6006     -5486.6115     -9316.0456      45629.785      296.99915    
     27150   1178.3574     -5720.6404     -5486.8374     -9693.3032      45619.291      296.92704    
     27160   1174.4971     -5720.0691     -5487.032      -9565.6249      45608.281      296.858      
     27170   1181.3452     -5721.6211     -5487.2253     -9356.146       45596.784      296.76418    
     27180   1182.3726     -5722.0214     -5487.4217     -8983.6599      45584.819      296.68375    
     27190   1173.6721     -5720.4752     -5487.6019     -8862.1721      45572.577      296.63558    
     27200   1198.603      -5725.6366     -5487.8166     -9490.2089      45560.286      296.57219    
     27210   1180.4019     -5722.2806     -5488.072      -9495.8015      45548.084      296.48731    
     27220   1150.6997     -5716.6523     -5488.337      -9121.6193      45536.276      296.41433    
     27230   1167.5176     -5720.2115     -5488.5593     -9319.1768      45524.844      296.34293    
     27240   1180.4005     -5722.9658     -5488.7575     -9878.7454      45513.466      296.25262    
     27250   1173.826      -5721.8738     -5488.9699     -9939.15        45501.926      296.16024    
     27260   1172.3032     -5721.8005     -5489.1988     -9459.4306      45490.443      296.08725    
     27270   1184.171      -5724.416      -5489.4595     -9204.0647      45479.469      296.0225     
     27280   1188.378      -5725.5645     -5489.7732     -9190.1106      45469.184      295.95451    
     27290   1176.2629     -5723.5774     -5490.19       -9271.7259      45459.387      295.88693    
     27300   1164.2352     -5721.6665     -5490.6656     -9306.1872      45449.932      295.81105    
     27310   1168.5005     -5723.0537     -5491.2065     -9630.343       45440.6        295.70783    
     27320   1168.4354     -5723.6887     -5491.8544     -9656.361       45430.993      295.55973    
     27330   1155.8458     -5721.9368     -5492.6004     -9349.6694      45420.996      295.41859    
     27340   1162.6193     -5724.1523     -5493.472      -9138.1446      45410.881      295.33388    
     27350   1167.0069     -5726.0511     -5494.5003     -8993.9146      45400.917      295.27007    
     27360   1170.1931     -5727.8943     -5495.7112     -9162.9929      45391.215      295.16857    
     27370   1150.3866     -5725.3469     -5497.0938     -9362.2239      45381.466      295.00444    
     27380   1148.2365     -5726.3595     -5498.5329     -9958.3815      45371.056      294.80441    
     27390   1160.298      -5730.2018     -5499.982      -10647.551      45359.645      294.60958    
     27400   1172.5262     -5734.0613     -5501.4153     -10894.19       45346.958      294.43547    
     27410   1169.3348     -5734.8237     -5502.811      -10626.968      45332.622      294.27513    
     27420   1156.6758     -5733.5735     -5504.0724     -10214.072      45316.715      294.11676    
     27430   1161.5696     -5735.6301     -5505.1581     -10116.782      45299.717      293.94936    
     27440   1139.6906     -5732.2013     -5506.0704     -9746.8352      45281.88       293.77671    
     27450   1135.0302     -5731.9622     -5506.7559     -9624.7644      45263.078      293.61051    
     27460   1157.8693     -5737.025      -5507.2872     -9972.4911      45243.261      293.44753    
     27470   1123.7111     -5730.6372     -5507.6768     -9904.9973      45222.532      293.26166    
     27480   1116.2132     -5729.4203     -5507.9476     -10238.013      45200.763      293.02541    
     27490   1082.738      -5722.8245     -5507.9937     -10146.757      45177.587      292.71465    
     27500   1090.4955     -5724.1912     -5507.8212     -10253.039      45153.265      292.34659    
     27510   1096.8349     -5725.047      -5507.4193     -10226.21       45128.236      291.93736    
     27520   1085.8865     -5722.2854     -5506.83       -9898.8649      45102.845      291.49627    
     27530   1108.4968     -5726.0101     -5506.0685     -10076.867      45077.118      291.07046    
     27540   1122.9727     -5727.991      -5505.1771     -10186.787      45050.681      290.67202    
     27550   1137.8417     -5729.9938     -5504.2297     -10009.076      45023.433      290.28426    
     27560   1150.2101     -5731.5059     -5503.2877     -9679.0127      44995.592      289.88926    
     27570   1160.2482     -5732.6082     -5502.3983     -9504.1086      44967.535      289.50007    
     27580   1179.7002     -5735.6748     -5501.6054     -9635.7956      44939.538      289.11478    
     27590   1176.9493     -5734.4974     -5500.9738     -9713.6878      44911.469      288.74561    
     27600   1153.0119     -5729.2511     -5500.477      -9475.4328      44882.965      288.42071    
     27610   1146.7929     -5727.5801     -5500.0399     -9479.1722      44853.73       288.11567    
     27620   1127.8013     -5723.3635     -5499.5916     -9378.8642      44823.826      287.76165    
     27630   1116.6815     -5720.6602     -5499.0946     -9458.8092      44793.57       287.3354     
     27640   1123.2929     -5721.4043     -5498.5269     -9545.1223      44763.008      286.92849    
     27650   1137.2734     -5723.5375     -5497.8861     -9437.3517      44731.87       286.61455    
     27660   1147.2602     -5724.8492     -5497.2164     -9156.779       44700.221      286.35886    
     27670   1164.8037     -5727.6753     -5496.5615     -8857.2895      44668.33       286.08829    
[...]
     48200   1043.9755     -5768.6975     -5561.5578     -617.29303      45183.019      616.89387    
     48210   1048.348      -5769.1824     -5561.1751     -364.36009      45144.779      616.35399    
     48220   1051.8844     -5769.5109     -5560.8019     -9.0774466      45105.265      615.75983    
     48230   1053.1037     -5769.3926     -5560.4417      344.8849       45065.454      615.18861    
     48240   1060.8304     -5770.5872     -5560.1032      537.5319       45026.256      614.70493    
     48250   1053.254      -5768.7957     -5559.815       784.13004      44988.199      614.2961     
     48260   1032.1747     -5764.3125     -5559.5143      1103.8261      44952.041      613.90519    
     48270   1041.4637     -5765.825      -5559.1836      608.88818      44918.38       613.52851    
     48280   1044.6965     -5766.0956     -5558.8128      97.541541      44886.149      613.18084    
     48290   1049.5567     -5766.6899     -5558.4429     -95.130771      44854.008      612.82054    
     48300   1057.6397     -5767.9175     -5558.0666     -106.69225      44821.375      612.39754    
     48310   1064.1425     -5768.8521     -5557.7109      13.100226      44788.238      611.91146    
     48320   1074.4452     -5770.5868     -5557.4015      86.923734      44754.853      611.42775    
     48330   1071.6533     -5769.8053     -5557.1739      217.87064      44721.412      611.01616    
     48340   1072.618      -5769.8584     -5557.0356      74.000882      44688.189      610.68337    
     48350   1080.5559     -5771.3972     -5556.9994     -306.14172      44654.781      610.40001    
     48360   1068.057      -5768.9912     -5557.0734      25.901631      44620.447      610.13967    
     48370   1061.1325     -5767.7582     -5557.2143      534.11474      44585.936      609.87337    
     48380   1076.4759     -5771.0336     -5557.4453      566.82843      44552.403      609.59856    
     48390   1065.2141     -5769.1252     -5557.7715      757.30921      44520.117      609.34704    
     48400   1067.3162     -5770.0016     -5558.2308      631.75993      44489.44       609.15175    
     48410   1077.9085     -5772.7126     -5558.8402      503.30845      44460.203      609.01113    
     48420   1054.6672     -5768.885      -5559.6239      913.1656       44432.198      608.9013     
     48430   1038.8183     -5766.6508     -5560.5343      1470.625       44406.453      608.84526    
     48440   1047.563      -5769.3882     -5561.5367      1615.528       44384.254      608.89552    
     48450   1056.2067     -5772.2362     -5562.6697      1893.8126      44366.199      609.04461    
     48460   1045.558      -5771.3782     -5563.9245      2159.4188      44353.019      609.22868    
     48470   1059.0624     -5775.4036     -5565.2704      1625.9027      44345.266      609.42464    
     48480   1064.2626     -5777.8608     -5566.6959      772.34796      44341.686      609.65949    
     48490   1059.5277     -5778.375      -5568.1495      112.01587      44340.171      609.93087    
     48500   1051.8389     -5778.2424     -5569.5425     -130.21351      44339.047      610.18325    
     48510   1027.5484     -5774.6484     -5570.7681      261.20355      44337.768      610.3594     
     48520   1016.3066     -5773.3846     -5571.7349      529.67188      44337.115      610.46468    
     48530   1009.8576     -5772.8013     -5572.4311      987.81319      44337.909      610.56554    
     48540   986.99697     -5768.6949     -5572.8606      1581.2598      44341.375      610.73677    
     48550   970.45157     -5765.5573     -5573.0058      1715.2649      44348.996      611.00219    
     48560   989.54872     -5769.2212     -5572.8806      1235.1864      44361.144      611.30832    
     48570   995.53385     -5770.0657     -5572.5375      906.03312      44376.832      611.63085    
     48580   1014.9321     -5773.4374     -5572.0603      650.24269      44395.196      611.97758    
     48590   1022.0618     -5774.2815     -5571.4898      721.18426      44415.682      612.35707    
     48600   1027.3505     -5774.7275     -5570.8865      762.23427      44438.429      612.76846    
     48610   1035.3509     -5775.687      -5570.2586      480.81529      44463.51       613.20691    
     48620   1032.6421     -5774.5239     -5569.6329      221.60955      44490.325      613.66976    
     48630   1028.7502     -5773.1111     -5568.9923     -66.437149      44518.201      614.12654    
     48640   1018.3347     -5770.3744     -5568.3222      23.661435      44546.536      614.52707    
     48650   1022.0801     -5770.4095     -5567.6142      31.511889      44575.432      614.87127    
     48660   1038.9993     -5773.01       -5566.8577     -103.58634      44604.926      615.18747    
     48670   1047.2869     -5773.9017     -5566.105      -315.89761      44634.684      615.50719    
     48680   1054.0491     -5774.543      -5565.4045     -560.93705      44664.133      615.84643    
     48690   1050.1987     -5773.1396     -5564.7652     -699.64229      44692.638      616.15884    
     48700   1048.7689     -5772.2622     -5564.1714     -915.88249      44719.774      616.40947    
     48710   1056.9068     -5773.3242     -5563.6188     -1248.8798      44744.913      616.62378    
     48720   1063.1602     -5774.0782     -5563.132      -1250.944       44767.278      616.83554    
     48730   1061.313      -5773.296      -5562.7163     -1198.1717      44786.701      617.02908    
     48740   1049.4168     -5770.5894     -5562.37       -1260.8658      44803.217      617.1454     
     48750   1045.0639     -5769.4028     -5562.0472     -1280.4347      44816.701      617.15007    
     48760   1039.8839     -5768.0442     -5561.7163     -1063.8831      44827.039      617.09683    
     48770   1036.2445     -5766.969      -5561.3632     -781.68465      44834.693      617.04979    
     48780   1037.7725     -5766.8767     -5560.9678     -685.367        44840.315      616.99653    
     48790   1050.2983     -5768.9385     -5560.5443     -778.41222      44844.106      616.89599    
     48800   1043.6282     -5767.1865     -5560.1157     -696.83552      44845.932      616.72344    
     48810   1035.1556     -5765.0702     -5559.6805     -879.7694       44845.822      616.45852    
     48820   1046.7807     -5766.8965     -5559.2002     -1276.3197      44843.231      616.06559    
     48830   1047.7698     -5766.5848     -5558.6923     -1198.04        44837.236      615.51178    
     48840   1041.7103     -5764.8567     -5558.1664     -957.52674      44827.876      614.85617    
     48850   1038.3409     -5763.6346     -5557.6129     -855.52215      44815.649      614.22005    
     48860   1045.7853     -5764.519      -5557.0203     -767.99186      44800.818      613.66087    
     48870   1044.3202     -5763.6134     -5556.4053     -271.07415      44783.703      613.18922    
     48880   1042.2506     -5762.5474     -5555.7499      473.7326       44765.573      612.77384    
     48890   1064.4395     -5766.2637     -5555.0636      814.48645      44748.274      612.34778    
     48900   1078.4796     -5768.3979     -5554.4121      969.93958      44732.843      611.87372    
     48910   1079.3429     -5768.0222     -5553.8651      863.20239      44719.703      611.39174    
     48920   1076.4153     -5767.0239     -5553.4477      495.34177      44708.59       610.93754    
     48930   1069.066      -5765.2603     -5553.1422      208.39194      44698.648      610.50003    
     48940   1050.198      -5761.2821     -5552.9078      245.51072      44689.143      610.08445    
     48950   1045.69       -5760.1428     -5552.663       439.56807      44680.148      609.69134    
     48960   1082.5571     -5767.199      -5552.4041      157.17611      44672.03       609.32471    
     48970   1096.1086     -5769.7222     -5552.2385      277.03311      44664.337      608.99903    
     48980   1069.6955     -5764.4487     -5552.2058      886.51072      44657.435      608.73129    
     48990   1079.1722     -5766.4314     -5552.3082      947.56949      44652.675      608.5437     
     49000   1101.7766     -5771.1932     -5552.585       898.088        44650.387      608.44222    
     49010   1097.1796     -5770.8292     -5553.1331      1271.7195      44650.601      608.38668    
     49020   1100.5976     -5772.42       -5554.0457      1534.5684      44654.261      608.33169    
     49030   1113.7588     -5776.4524     -5555.4667      1356.1077      44662.039      608.24739    
     49040   1098.6981     -5775.4889     -5557.4915      1236.8861      44673.606      608.1394     
     49050   1057.2913     -5769.6874     -5559.9056      1225.5563      44688.671      608.07772    
     49060   1022.0342     -5765.0175     -5562.2312      834.07095      44707.136      608.11826    
     49070   1020.7221     -5766.6409     -5564.115      -77.820111      44728.003      608.21635    
     49080   1038.6947     -5771.6085     -5565.5166     -1030.9635      44748.978      608.30243    
     49090   1036.1199     -5772.1187     -5566.5376     -1278.4551      44767.624      608.34173    
     49100   1017.1084     -5769.052      -5567.2431     -930.99441      44783.186      608.36177    
     49110   1011.4966     -5768.3818     -5567.6864     -747.98555      44796.345      608.42369    
     49120   1020.3418     -5770.3748     -5567.9243     -616.32951      44807.629      608.5248     
     49130   1031.3888     -5772.6647     -5568.0224     -452.89221      44817.37       608.60101    
     49140   1029.3758     -5772.293      -5568.0501     -271.94469      44825.996      608.60765    
     49150   1022.0317     -5770.7849     -5567.9992     -159.40849      44833.97       608.55822    
     49160   990.25666     -5764.2993     -5567.8182     -19.668309      44841.646      608.5169     
     49170   1007.4116     -5767.3517     -5567.4668     -646.7366       44849.153      608.4964     
     49180   1018.7268     -5769.0634     -5566.9334     -1100.9425      44855.021      608.43423    
     49190   1006.2959     -5765.9377     -5566.2742     -722.00382      44858.166      608.30687    
     49200   1015.4696     -5766.9518     -5565.4681     -493.93056      44859.299      608.13495    
     49210   1021.5794     -5767.2242     -5564.5283     -177.56917      44859.134      607.93172    
     49220   1009.9532     -5763.873      -5563.4839      294.62663      44858.544      607.69348    
     49230   1031.8342     -5767.0924     -5562.3617      330.23967      44858.644      607.43577    
     49240   1046.7023     -5768.8674     -5561.1867      422.65417      44859.682      607.19885    
     49250   1044.5684     -5767.3396     -5560.0823      475.26715      44861.866      607.02202    
     49260   1042.2425     -5765.8466     -5559.0507      362.27689      44865.331      606.84389    
     49270   1039.7926     -5764.3938     -5558.0841      297.38609      44869.816      606.60084    
     49280   1041.911      -5763.8965     -5557.1664      339.09524      44875.197      606.36548    
     49290   1049.7739     -5764.5861     -5556.2959      401.62127      44881.58       606.1854     
     49300   1051.8706     -5764.1957     -5555.4895      560.67415      44889.175      606.03785    
     49310   1059.042      -5764.8842     -5554.7551      473.20237      44898.354      605.93774    
     49320   1075.0118     -5767.4106     -5554.1129      113.86756      44908.835      605.88299    
     49330   1061.7299     -5764.2371     -5553.5746      186.14427      44919.849      605.83445    
     49340   1071.2974     -5765.7001     -5553.1393      53.602055      44931.407      605.80019    
     49350   1076.6071     -5766.4102     -5552.7959     -43.353688      44943.246      605.78793    
     49360   1062.3478     -5763.3483     -5552.5632     -155.04591      44955.067      605.80632    
     49370   1057.0274     -5762.1193     -5552.3899     -298.36724      44966.583      605.84926    
     49380   1058.6056     -5762.2885     -5552.2459     -355.81898      44977.413      605.88615    
     49390   1055.9981     -5761.6655     CHGNet v0.3.0 initialized with 412,525 parameters
CHGNet will run on cuda:0
CHGNet will run on cuda:0
-5552.1404     -188.13081      44987.444      605.9015     
     49400   1049.4144     -5760.267      -5552.0481     -46.101507      44997.068      605.88717    
     49410   1056.8183     -5761.6523     -5551.9645     -204.24951      45006.561      605.84459    
     49420   1051.6457     -5760.5431     -5551.8815     -246.81119      45015.651      605.79794    
     49430   1062.2163     -5762.5807     -5551.8218     -546.61752      45024.099      605.80434    
     49440   1061.2751     -5762.3723     -5551.8001     -741.44312      45031.204      605.86303    
     49450   1057.4384     -5761.6443     -5551.8334     -714.64871      45036.388      605.92977    
     49460   1054.3001     -5761.0869     -5551.8987     -544.92835      45039.662      606.00751    
     49470   1063.1892     -5762.9399     -5551.988      -302.98954      45041.499      606.12116    
     49480   1073.8696     -5765.2141     -5552.143      -204.68189      45042.48       606.21257    
     49490   1053.7464     -5761.4714     -5552.393       190.7624       45043.018      606.24572    
     49500   1043.8351     -5759.8081     -5552.6963      527.34361      45044.091      606.22932    
     49510   1052.6547     -5761.8948     -5553.033       500.33483      45046.538      606.1822     
     49520   1031.9474     -5758.1514     -5553.3982      488.62341      45050.408      606.14102    
     49530   1027.0672     -5757.5017     -5553.7169     -45.896954      45055.55       606.12271    
     49540   1051.856      -5762.7063     -5554.003      -917.13056      45060.55       606.09985    
     49550   1055.6344     -5763.7723     -5554.3194     -1269.5042      45063.202      606.06458    
     49560   1044.1567     -5761.8699     -5554.6942     -1122.1352      45062.491      606.01961    
     49570   1054.4601     -5764.3323     -5555.1123     -1090.74        45058.632      605.97686    
     49580   1072.294      -5768.3851     -5555.6267     -1008.489       45051.733      605.94318    
     49590   1077.0686     -5770.0115     -5556.3056     -462.90592      45042.104      605.91782    
     49600   1077.6718     -5771.027      -5557.2015      21.314855      45031.094      605.91471    
     49610   1065.525      -5769.7123     -5558.2969      185.25675      45019.981      605.9225     
     49620   1071.2613     -5772.1124     -5559.5588     -387.05685      45009.098      605.86829    
     49630   1067.7475     -5772.8331     -5560.9767     -913.87905      44997.084      605.70262    
     49640   1040.2384     -5768.825      -5562.4267     -888.65882      44982.597      605.46147    
     49650   1031.0915     -5768.3544     -5563.771      -536.41242      44965.625      605.16867    
     49660   1019.3528     -5767.1836     -5564.9294      172.0694       44947.134      604.84218    
     49670   1013.2415     -5766.8811     -5565.8395      747.5317       44928.914      604.52964    
     49680   1034.6826     -5771.8528     -5566.5569      901.82507      44912.447      604.27358    
     49690   1036.1699     -5772.7167     -5567.1257      1032.9509      44898.282      604.07607    
     49700   1039.1152     -5773.7571     -5567.5817      780.54774      44886.666      603.94487    
     49710   1033.4431     -5772.9939     -5567.944       544.43937      44877.095      603.91661    
     49720   1025.4431     -5771.6726     -5568.21        324.59575      44868.903      604.02059    
     49730   1037.864      -5774.3053     -5568.3782      54.720955      44861.487      604.19356    
     49740   1057.5246     -5778.3318     -5568.5038     -57.079252      44854.204      604.33198    
     49750   1054.5855     -5777.8901     -5568.6453      221.96571      44846.78       604.40131    
     49760   1025.8736     -5772.3182     -5568.7702      784.58664      44839.982      604.44091    
     49770   1020.8188     -5771.3661     -5568.821       900.26905      44835.158      604.50827    
     49780   1017.0231     -5770.5502     -5568.7582      641.68924      44832.645      604.62726    
     49790   1007.392      -5768.4371     -5568.5561      436.14483      44831.893      604.82306    
     49800   1008.6901     -5768.3357     -5568.1971     -4.3893851      44832.249      605.07793    
     49810   1007.2411     -5767.5183     -5567.6673     -259.69755      44832.697      605.33998    
     49820   1013.0262     -5767.972      -5566.9731     -557.71535      44832.401      605.57906    
     49830   1026.7597     -5769.8698     -5566.1459     -793.6878       44830.583      605.77752    
     49840   1034.5166     -5770.493      -5565.2301     -678.54027      44826.636      605.93552    
     49850   1030.4428     -5768.7389     -5564.2843     -87.448164      44820.898      606.05331    
     49860   1032.9305     -5768.2646     -5563.3164      297.30252      44814.79       606.13253    
     49870   1043.2547     -5769.3442     -5562.3476      355.95917      44809.311      606.2072     
     49880   1050.1        -5769.7694     -5561.4145      347.1859       44804.74       606.30599    
     49890   1057.7633     -5770.4524     -5560.577       248.56654      44801.019      606.43114    
     49900   1051.9616     -5768.573      -5559.8488      409.21833      44797.991      606.61422    
     49910   1062.1914     -5769.988      -5559.2341      384.26966      44795.994      606.8736     
     49920   1077.5416     -5772.5588     -5558.7591      51.013619      44794.909      607.1947     
     49930   1061.1005     -5768.9685     -5558.431      -171.83798      44793.957      607.53974    
     49940   1071.2226     -5770.7695     -5558.2236     -514.48772      44792.455      607.86645    
     49950   1073.9933     -5771.2017     -5558.106      -548.53079      44789.575      608.15886    
     49960   1073.2301     -5771.0435     -5558.0992     -255.01212      44785.217      608.42803    
     49970   1072.6954     -5771.0277     -5558.1896      176.69956      44780.108      608.7072     
     49980   1057.3965     -5768.1368     -5558.3342      754.12103      44775.441      609.0011     
     49990   1056.9248     -5768.2181     -5558.5091      1093.1803      44772.69       609.29776    
     50000   1057.2324     -5768.4562     -5558.6861      1100.5975      44772.844      609.58485    
Loop time of 9094.23 on 1 procs for 20000 steps with 1536 atoms

Performance: 0.190 ns/day, 126.309 hours/ns, 2.199 timesteps/s, 3.378 katom-step/s
119.7% CPU use with 1 MPI tasks x 1 OpenMP threads

MPI task timing breakdown:
Section |  min time  |  avg time  |  max time  |%varavg| %total
---------------------------------------------------------------
Pair    | 8939.8     | 8939.8     | 8939.8     |   0.0 | 98.30
Bond    | 0.021228   | 0.021228   | 0.021228   |   0.0 |  0.00
Neigh   | 6.314      | 6.314      | 6.314      |   0.0 |  0.07
Comm    | 0.81483    | 0.81483    | 0.81483    |   0.0 |  0.01
Output  | 145.53     | 145.53     | 145.53     |   0.0 |  1.60
Modify  | 1.5859     | 1.5859     | 1.5859     |   0.0 |  0.02
Other   |            | 0.1509     |            |       |  0.00

Nlocal:           1536 ave        1536 max        1536 min
Histogram: 1 0 0 0 0 0 0 0 0 0
Nghost:           2981 ave        2981 max        2981 min
Histogram: 1 0 0 0 0 0 0 0 0 0
Neighs:              0 ave           0 max           0 min
Histogram: 1 0 0 0 0 0 0 0 0 0
FullNghs:        54036 ave       54036 max       54036 min
Histogram: 1 0 0 0 0 0 0 0 0 0

Total # of neighbors = 54036
Ave neighs/atom = 35.179688
Ave special neighs/atom = 0
Neighbor list builds = 2000
Dangerous builds = 2000
System init for write_data ...
System init for write_restart ...
Total wall time: 3:50:59
