LAMMPS (29 Sep 2021 - Update 3)
OMP_NUM_THREADS environment is not set. Defaulting to 1 thread. (src/comm.cpp:98)
  using 1 OpenMP thread(s) per MPI task
Reading data file ...
  orthogonal box = (0.0000000 0.0000000 0.0000000) to (18.492711 18.368364 83.044081)
  2 by 1 by 8 MPI processor grid
  reading atoms ...
  864 atoms
Finding 1-2 1-3 1-4 neighbors ...
  special bond factors lj:    0        0        0       
  special bond factors coul:  0        0        0       
     0 = max # of 1-2 neighbors
     0 = max # of 1-3 neighbors
     0 = max # of 1-4 neighbors
     1 = max # of special neighbors
  special bonds CPU = 0.001 seconds
  read_data CPU = 0.009 seconds
Neighbor list info ...
  update every 1 steps, delay 10 steps, check yes
  max neighbors/atom: 2000, page size: 100000
  master list distance cutoff = 6.22
  ghost atom cutoff = 6.22
  binsize = 3.11, bins = 6 6 27
  1 neighbor lists, perpetual/occasional/extra = 1 0 0
  (1) pair quip, perpetual
      attributes: full, newton on
      pair build: full/bin
      stencil: full/bin/3d
      bin: standard
Setting up Verlet run ...
  Unit style    : metal
  Current step  : 0
  Time step     : 0.001
Per MPI rank memory allocation (min/avg/max) = 8.888 | 8.895 | 8.900 Mbytes
Step Temp PotEng TotEng Press Volume c_msd[4] 
       0            0   -7973.6696   -7973.6696   -2874.2394    28208.484            0 
      10    41.278351   -7978.2784   -7973.6737   -2959.4518    28208.484 0.00023887099 
      20    117.01377   -7986.7312   -7973.6782   -2971.9336    28208.484 0.0029537371 
      30    174.81925   -7993.1785   -7973.6771   -2824.2466    28208.484  0.010160551 
      40    218.44962    -7998.045   -7973.6766   -2720.6333    28208.484  0.020641735 
      50    256.00476   -8002.2349   -7973.6771   -2700.3711    28208.484  0.032489043 
      60    281.23595   -8005.0509   -7973.6786   -2720.3164    28208.484  0.045481137 
      70    279.84796   -8004.8936   -7973.6762   -2497.2427    28208.484  0.060875411 
      80    275.57271   -8004.4166   -7973.6761   -2346.6282    28208.484  0.078472831 
      90    275.14134   -8004.3684    -7973.676   -2375.5075    28208.484  0.097756432 
     100    277.97329   -8004.6843   -7973.6759   -2450.2098    28208.484   0.11838341 
     110    284.32121   -8005.3929   -7973.6764   -2585.3887    28208.484    0.1397563 
     120    288.42818   -8005.8514   -7973.6768   -2555.7238    28208.484   0.16133553 
     130    287.27066   -8005.7216   -7973.6761   -2379.8786    28208.484   0.18293983 
     140    286.58177   -8005.6454   -7973.6767   -2199.4073    28208.484   0.20440576 
     150    283.09159    -8005.256   -7973.6767   -2058.8623    28208.484   0.22545748 
     160    281.87093     -8005.12   -7973.6769   -2002.9487    28208.484   0.24504756 
     170    281.00839    -8005.024   -7973.6771   -2057.3307    28208.484   0.26222423 
     180    282.68046     -8005.21   -7973.6765   -2118.7926    28208.484   0.27648184 
     190    291.53832   -8006.1995   -7973.6779   -2237.0667    28208.484   0.28923786 
     200    293.64302   -8006.4325   -7973.6762   -2373.3356    28208.484   0.30372277 
     210    298.64228   -8006.9936   -7973.6796   -2435.1957    28208.484   0.32052492 
     220    292.65421   -8006.3221   -7973.6761   -2273.8456    28208.484   0.33666335 
     230    296.18967   -8006.7198   -7973.6794   -2277.4624    28208.484   0.34931106 
     240    282.07352   -8005.1401   -7973.6743   -2198.7147    28208.484   0.36070053 
     250    293.47873    -8006.417    -7973.679   -2346.9356    28208.484   0.37209929 
     260    294.86866   -8006.5718   -7973.6788   -2406.0825    28208.484   0.38456478 
     270    292.66954   -8006.3399   -7973.6921   -2371.6679    28208.484   0.39632792 
     280    288.22645   -8005.8424   -7973.6903   -2343.9303    28208.484   0.40740341 
     290    280.03766   -8004.9272   -7973.6886   -2399.6918    28208.484   0.41930862 
     300    280.42672   -8004.9707   -7973.6886   -2493.7264    28208.484   0.43203295 
     310    287.66524   -8005.7795     -7973.69   -2540.7382    28208.484   0.44617059 
     320    287.59248   -8005.7709   -7973.6895   -2479.6365    28208.484   0.46153129 
     330    287.30367   -8005.7384   -7973.6892   -2430.7941    28208.484   0.47558463 
     340      291.107   -8006.1632   -7973.6897   -2433.3574    28208.484   0.48761679 
     350    290.07985   -8006.0486   -7973.6898   -2407.8749    28208.484   0.49931209 
     360    283.46216   -8005.3096    -7973.689    -2324.857    28208.484   0.51138392 
     370    283.31611   -8005.2933    -7973.689   -2223.9029    28208.484   0.52363749 
     380    293.81781   -8006.4657   -7973.6899   -2201.7975    28208.484   0.53571675 
     390    300.79692   -8007.2454   -7973.6911   -2203.1603    28208.484   0.54763687 
     400    296.63974     -8006.78   -7973.6894   -2207.2978    28208.484   0.55946952 
     410     295.9675   -8006.7055   -7973.6899    -2389.454    28208.484   0.57119336 
     420    296.34311   -8006.7466   -7973.6891   -2528.2941    28208.484   0.58115249 
     430    302.08464   -8007.3879   -7973.6899   -2546.6384    28208.484   0.58802692 
     440    300.89773   -8007.2566    -7973.691   -2408.1467    28208.484   0.59313659 
     450    295.75798   -8006.6815   -7973.6893   -2201.4544    28208.484   0.59704421 
     460    298.71554   -8007.0127   -7973.6905   -2097.6901    28208.484   0.60034051 
     470    293.57038   -8006.4367   -7973.6885   -1853.8963    28208.484   0.60455383 
     480    299.68957   -8007.1205   -7973.6897   -1687.1392    28208.484   0.60898733 
     490    304.28303    -8007.634   -7973.6908   -1569.5251    28208.484   0.61372446 
     500    297.76534   -8006.9049   -7973.6887   -1520.9163    28208.484   0.61909997 
     510     298.0343    -8006.936   -7973.6898   -1578.3555    28208.484     0.624484 
     520    298.51386   -8006.9892   -7973.6895   -1617.2528    28208.484   0.63055005 
     530    299.67651    -8007.119   -7973.6896   -1583.6011    28208.484   0.63765456 
     540    301.93935   -8007.3714   -7973.6896    -1486.536    28208.484   0.64551302 
     550    304.04909   -8007.6074   -7973.6903   -1392.2763    28208.484    0.6536082 
     560    304.32541   -8007.6381   -7973.6901   -1287.1967    28208.484   0.66116979 
     570    303.65289   -8007.5627   -7973.6898   -1155.3607    28208.484   0.66831766 
     580    306.61685   -8007.8931   -7973.6895   -1197.3354    28208.484   0.67540713 
     590    314.13334   -8008.7329   -7973.6909   -1349.2051    28208.484   0.68183493 
     600    314.58012   -8008.7816   -7973.6897   -1383.1623    28208.484   0.68848067 
     610    313.36382   -8008.6461   -7973.6899   -1339.6031    28208.484   0.69624527 
     620     312.9428   -8008.5985   -7973.6893   -1300.0364    28208.484   0.70606469 
     630    317.72028    -8009.132   -7973.6899   -1341.7477    28208.484   0.71807814 
     640    322.57063   -8009.6733   -7973.6901   -1410.5145    28208.484   0.73069429 
     650    323.60168   -8009.7886   -7973.6903   -1540.2113    28208.484   0.74223138 
     660    318.39172   -8009.2068   -7973.6897   -1568.6259    28208.484   0.75263353 
     670    316.27474   -8008.9702   -7973.6892   -1586.0839    28208.484    0.7619451 
     680    320.95534   -8009.4935   -7973.6904   -1558.4885    28208.484   0.77150239 
     690    319.85933   -8009.3708     -7973.69    -1459.468    28208.484   0.78296875 
     700    315.81982   -8008.9199   -7973.6897   -1330.2989    28208.484   0.79605918 
     710    316.18394   -8008.9601   -7973.6893   -1285.6029    28208.484   0.80930055 
     720    321.99795   -8009.6098   -7973.6904   -1374.2337    28208.484   0.82124899 
     730    320.60154   -8009.4538   -7973.6902   -1440.5044    28208.484   0.83277534 
     740    316.58517   -8009.0043   -7973.6888   -1452.0725    28208.484    0.8439361 
     750    321.27163   -8009.5293    -7973.691   -1655.1798    28208.484     0.854338 
     760    314.38368   -8008.7598   -7973.6899   -1838.5562    28208.484   0.86584884 
     770     305.9368   -8007.8166   -7973.6889   -1999.9526    28208.484   0.87941766 
     780    305.71483   -8007.7927   -7973.6897   -2140.7584    28208.484   0.89394007 
     790    305.84031   -8007.8065   -7973.6896   -2209.2571    28208.484   0.90782838 
     800    306.48205   -8007.8784   -7973.6899   -2275.1918    28208.484   0.92026204 
     810    304.33355   -8007.6388   -7973.6899   -2343.4421    28208.484   0.93178116 
     820    297.82924   -8006.9125   -7973.6892   -2314.2529    28208.484    0.9431626 
     830    296.11711   -8006.7216   -7973.6893   -2340.1192    28208.484   0.95457823 
     840    299.50491   -8007.0998   -7973.6896   -2406.4366    28208.484   0.96506277 
     850    304.52466   -8007.6597   -7973.6895   -2460.7845    28208.484   0.97329313 
     860     310.8399   -8008.3649   -7973.6902   -2449.0401    28208.484   0.97916609 
     870    310.67413   -8008.3459   -7973.6897   -2327.6881    28208.484   0.98350092 
     880    309.42712   -8008.2065   -7973.6894   -2225.4629    28208.484   0.98651824 
     890    311.26126   -8008.4116   -7973.6899    -2248.854    28208.484   0.98981853 
     900    313.26109   -8008.6341   -7973.6893   -2271.1415    28208.484     0.995508 
     910    320.18937   -8009.4082   -7973.6906   -2399.0494    28208.484    1.0049166 
     920    319.06768   -8009.2826   -7973.6901    -2517.896    28208.484    1.0179539 
     930    311.48412   -8008.4358   -7973.6893   -2630.8665    28208.484    1.0322955 
     940    307.33364   -8007.9728   -7973.6893   -2692.4224    28208.484    1.0452919 
     950    306.79072   -8007.9125   -7973.6895   -2690.0291    28208.484    1.0559933 
     960    307.40028   -8007.9805   -7973.6895    -2685.778    28208.484    1.0648912 
     970    308.12458   -8008.0613   -7973.6895   -2650.3957    28208.484    1.0729687 
     980    308.40186   -8008.0924   -7973.6897   -2580.8757    28208.484    1.0808973 
     990    307.35297   -8007.9752   -7973.6895    -2481.356    28208.484    1.0887898 
    1000    307.21435     -8007.96   -7973.6898   -2353.6684    28208.484    1.0961224 
    1010    306.76152   -8007.9091   -7973.6894   -2248.7956    28208.484    1.1027335 
    1020    309.26646    -8008.189   -7973.6898   -2286.0041    28208.484    1.1099454 
    1030    310.25342   -8008.2989   -7973.6897   -2305.1256    28208.484    1.1183111 
    1040    307.62812   -8008.0062   -7973.6898    -2294.831    28208.484    1.1271276 
    1050    300.85261   -8007.2498   -7973.6892   -2274.7356    28208.484    1.1353455 
    1060    298.03491   -8006.9356   -7973.6894   -2274.0022    28208.484    1.1412949 
    1070     298.1827   -8006.9525   -7973.6898   -2240.2755    28208.484    1.1449307 
    1080    298.32389   -8006.9674   -7973.6889   -2186.0158    28208.484    1.1478628 
    1090    304.12167   -8007.6156   -7973.6903   -2224.5843    28208.484    1.1507358 
    1100    303.21342   -8007.5135   -7973.6896   -2273.1413    28208.484    1.1542182 
    1110    302.55349   -8007.4391   -7973.6888   -2350.8777    28208.484    1.1583885 
    1120    311.89752   -8008.4827   -7973.6901   -2437.4889    28208.484     1.162828 
    1130    317.78566     -8009.14   -7973.6905   -2446.8483    28208.484     1.167408 
    1140    311.56568   -8008.4454   -7973.6898   -2410.0182    28208.484    1.1717043 
    1150    303.07264   -8007.4971   -7973.6889   -2380.3816    28208.484    1.1751291 
    1160    303.70308   -8007.5677   -7973.6892    -2470.872    28208.484    1.1775178 
    1170    310.51899   -8008.3284   -7973.6895   -2617.7569    28208.484    1.1788381 
    1180    316.91994   -8009.0426   -7973.6898   -2682.3818    28208.484    1.1790698 
    1190    320.34041   -8009.4241   -7973.6896   -2666.8258    28208.484    1.1789053 
    1200    321.06279   -8009.5055   -7973.6905   -2603.0061    28208.484    1.1796194 
    1210    314.26027   -8008.7456   -7973.6894   -2485.4053    28208.484    1.1821764 
    1220    309.32884    -8008.196   -7973.6899    -2464.998    28208.484    1.1865082 
    1230    306.19371   -8007.8458   -7973.6895   -2530.8384    28208.484    1.1911967 
    1240    306.63151   -8007.8948   -7973.6896   -2616.4378    28208.484    1.1944331 
    1250    309.06475   -8008.1663   -7973.6897   -2607.8093    28208.484    1.1957913 
    1260    312.48643   -8008.5482   -7973.6898    -2462.899    28208.484    1.1957707 
    1270    312.94072   -8008.5995   -7973.6905   -2234.5909    28208.484    1.1949586 
    1280    309.44145   -8008.2076   -7973.6889   -2027.1289    28208.484    1.1941489 
    1290    314.87458   -8008.8149   -7973.6902   -1974.2087    28208.484    1.1943163 
    1300    319.36818   -8009.3159   -7973.6899   -1982.4404    28208.484     1.195877 
    1310    321.84143   -8009.5922   -7973.6903   -1943.5386    28208.484    1.1987306 
    1320    321.73486     -8009.58     -7973.69    -1845.706    28208.484    1.2036004 
    1330    320.53672   -8009.4466   -7973.6902   -1700.8294    28208.484    1.2106875 
    1340    314.45984   -8008.7682   -7973.6898   -1509.1942    28208.484    1.2186301 
    1350    308.88407   -8008.1459   -7973.6894   -1443.5528    28208.484    1.2257175 
    1360    308.85021   -8008.1421   -7973.6894   -1546.3935    28208.484    1.2310073 
    1370    314.64585   -8008.7893   -7973.6901   -1721.3694    28208.484     1.234708 
    1380    316.29012   -8008.9734   -7973.6908   -1817.9195    28208.484    1.2377498 
    1390    307.32275   -8007.9718   -7973.6895   -1803.5548    28208.484    1.2409119 
    1400    301.76471   -8007.3515   -7973.6892   -1859.1426    28208.484    1.2443267 
    1410    303.86241   -8007.5861   -7973.6897   -1936.9087    28208.484    1.2481193 
    1420    306.88628   -8007.9231   -7973.6894   -1917.1497    28208.484    1.2526965 
    1430    311.21927   -8008.4068   -7973.6898   -1887.7633    28208.484    1.2583105 
    1440    313.42496   -8008.6528   -7973.6898   -1851.4527    28208.484    1.2642026 
    1450     313.3569   -8008.6451   -7973.6897   -1798.7574    28208.484     1.269636 
    1460    313.21275   -8008.6295   -7973.6901   -1825.1156    28208.484    1.2754342 
    1470    309.64761   -8008.2313   -7973.6896   -1804.0626    28208.484    1.2823313 
    1480    309.40126   -8008.2029   -7973.6887   -1783.0935    28208.484    1.2890305 
    1490    320.42565   -8009.4341   -7973.6901   -1893.3186    28208.484    1.2938055 
    1500    328.10175   -8010.2905   -7973.6903   -1974.4184    28208.484    1.2976917 
    1510    327.81197   -8010.2577   -7973.6898    -1937.058    28208.484    1.3022885 
    1520     324.2243   -8009.8576   -7973.6899   -1828.5619    28208.484    1.3070588 
    1530    318.99753   -8009.2739   -7973.6893   -1744.3097    28208.484    1.3111416 
    1540    315.99968   -8008.9401   -7973.6899   -1679.5222    28208.484    1.3147163 
    1550    311.82694   -8008.4737   -7973.6889   -1676.3191    28208.484     1.318865 
    1560    315.99733   -8008.9396   -7973.6896   -1782.1266    28208.484    1.3245612 
    1570    321.70035   -8009.5765   -7973.6904   -1943.6277    28208.484    1.3315419 
    1580    318.91113   -8009.2648   -7973.6898   -1980.5418    28208.484     1.338424 
    1590    316.40503   -8008.9842   -7973.6888   -1871.1257    28208.484    1.3448929 
    1600    323.69059   -8009.7984   -7973.6903   -1863.2593    28208.484    1.3517889 
    1610    324.55521    -8009.895   -7973.6903   -1926.3043    28208.484    1.3589892 
    1620    317.22283   -8009.0757    -7973.689    -2033.451    28208.484    1.3640281 
    1630    315.56944   -8008.8917   -7973.6895   -2189.5743    28208.484    1.3650114 
    1640          316   -8008.9396   -7973.6894   -2246.5115    28208.484     1.363698 
    1650     317.3618   -8009.0917   -7973.6895   -2167.3771    28208.484    1.3628757 
    1660    317.92845   -8009.1553   -7973.6899   -2101.0814    28208.484    1.3639966 
    1670    314.61233   -8008.7852   -7973.6897   -2010.9785    28208.484    1.3669961 
    1680    312.18324   -8008.5133   -7973.6888   -2055.2147    28208.484     1.371293 
    1690    317.45918   -8009.1028   -7973.6897    -2191.224    28208.484    1.3761955 
    1700    321.08797   -8009.5076   -7973.6898   -2266.1824    28208.484    1.3813209 
    1710    322.36089   -8009.6492   -7973.6893   -2262.0514    28208.484    1.3861808 
    1720    325.18317   -8009.9643   -7973.6896   -2258.3202    28208.484    1.3904451 
    1730    326.15411   -8010.0728   -7973.6898    -2317.316    28208.484     1.394947 
    1740     323.8725   -8009.8181   -7973.6896   -2287.8062    28208.484    1.4007384 
    1750    320.41839   -8009.4325   -7973.6894   -2200.4994    28208.484    1.4075406 
    1760     319.2517   -8009.3028   -7973.6898   -2148.7833    28208.484     1.414045 
    1770    317.70647   -8009.1306     -7973.69    -2060.265    28208.484    1.4199919 
    1780    313.91842   -8008.7076   -7973.6895   -1900.1987    28208.484    1.4259827 
    1790    313.00692   -8008.6058   -7973.6894   -1752.6987    28208.484    1.4322179 
    1800     316.3606   -8008.9805     -7973.69   -1656.4741    28208.484    1.4376798 
    1810    317.06323    -8009.059   -7973.6901   -1611.9912    28208.484    1.4414287 
    1820    314.75826    -8008.801   -7973.6892    -1594.078    28208.484    1.4434919 
    1830    319.39788   -8009.3191   -7973.6898   -1580.2478    28208.484    1.4448335 
    1840    326.94741   -8010.1618   -7973.6903   -1586.0007    28208.484    1.4478206 
    1850     328.2751   -8010.3099   -7973.6903   -1510.9657    28208.484    1.4534245 
    1860    325.54844   -8010.0044    -7973.689   -1434.8489    28208.484    1.4597334 
    1870    330.22766   -8010.5276   -7973.6902   -1485.8246    28208.484    1.4649668 
    1880    331.47708   -8010.6665   -7973.6897   -1548.2944    28208.484    1.4702024 
    1890    330.21474   -8010.5256   -7973.6896   -1516.0861    28208.484    1.4764703 
    1900    331.58833   -8010.6782    -7973.689   -1442.8287    28208.484    1.4834549 
    1910    337.92691   -8011.3872    -7973.691   -1475.0881    28208.484    1.4904186 
    1920     332.3277   -8010.7614   -7973.6897   -1417.3686    28208.484    1.4973123 
    1930    326.40875   -8010.1005   -7973.6891    -1294.946    28208.484    1.5028962 
    1940    327.61985   -8010.2367   -7973.6902   -1344.4187    28208.484    1.5071937 
    1950    326.33555   -8010.0933   -7973.6901   -1454.2005    28208.484    1.5117741 
    1960    320.98412   -8009.4961   -7973.6898    -1539.947    28208.484    1.5179832 
    1970    316.38994    -8008.983   -7973.6892   -1494.5471    28208.484    1.5266599 
    1980    318.66568   -8009.2379   -7973.6903    -1430.619    28208.484     1.537506 
    1990    319.09324   -8009.2848   -7973.6895   -1383.3475    28208.484     1.548395 
    2000    324.20331   -8009.8559   -7973.6905   -1553.3118    28208.484     1.556546 
Loop time of 1181.9 on 16 procs for 2000 steps with 864 atoms

Performance: 0.146 ns/day, 164.153 hours/ns, 1.692 timesteps/s
97.5% CPU use with 16 MPI tasks x 1 OpenMP threads

MPI task timing breakdown:
Section |  min time  |  avg time  |  max time  |%varavg| %total
---------------------------------------------------------------
Pair    | 644.35     | 936.33     | 1178.6     | 513.3 | 79.22
Bond    | 0.00018239 | 0.00049151 | 0.0011604  |   0.0 |  0.00
Neigh   | 0.020975   | 0.024988   | 0.029453   |   1.8 |  0.00
Comm    | 1.9927     | 240.96     | 534.84     |1014.0 | 20.39
Output  | 1.1803     | 4.5017     | 12.605     | 178.9 |  0.38
Modify  | 0.0090525  | 0.0099132  | 0.012211   |   0.8 |  0.00
Other   |            | 0.07668    |            |       |  0.01

Nlocal:        54.0000 ave          63 max          48 min
Histogram: 5 0 1 2 2 1 1 2 0 2
Nghost:        409.688 ave         449 max         386 min
Histogram: 3 3 1 3 2 1 1 0 0 2
Neighs:         0.00000 ave           0 max           0 min
Histogram: 16 0 0 0 0 0 0 0 0 0
FullNghs:      1604.62 ave        2106 max        1301 min
Histogram: 5 0 2 2 2 0 2 1 1 1

Total # of neighbors = 25674
Ave neighs/atom = 29.715278
Ave special neighs/atom = 0.0000000
Neighbor list builds = 199
Dangerous builds = 198
Setting up Verlet run ...
  Unit style    : metal
  Current step  : 2000
  Time step     : 0.001
Per MPI rank memory allocation (min/avg/max) = 8.893 | 8.897 | 8.900 Mbytes
Step Temp PotEng TotEng Press Volume c_msd[4] 
    2000          450   -8009.8559   -7959.6577   -1021.9578    28208.484     1.556546 
    2010    435.42978   -8008.2276   -7959.6547   -982.53631    28206.247    1.5559478 
    2020    414.54949   -8005.8679   -7959.6243    -914.0806    28199.667    1.5542686 
    2030    402.63501   -8004.4418   -7959.5273   -698.57101    28189.105    1.5519158 
    2040    397.59714   -8003.6887   -7959.3362   -384.15971    28175.491    1.5508076 
    2050    395.97543   -8003.2089   -7959.0373    -153.9693    28160.134    1.5530472 
    2060    397.15675   -8002.9356   -7958.6322    8.9930449    28144.071    1.5591912 
    2070    395.19926   -8002.2271   -7958.1421    41.457261    28127.993    1.5676714 
    2080    399.09777   -8002.1304   -7957.6105   -158.48206    28112.003    1.5759387 
    2090    399.60066   -8001.6642   -7957.0881   -388.33326    28095.302    1.5834994 
    2100    391.60617   -8000.3029   -7956.6186   -441.32114     28076.94    1.5913636 
    2110    387.25356   -7999.3967    -7956.198   -314.08786      28056.7    1.5992721 
    2120    387.50771   -7999.0255   -7955.7984    -154.1326    28035.094    1.6067999 
    2130    391.67621   -7999.0917   -7955.3996   -121.20808    28012.742    1.6143242 
    2140    393.49208    -7998.881   -7954.9863   -165.65481    27989.839    1.6219117 
    2150    402.06609   -7999.4021    -7954.551   -253.54212    27966.208    1.6282594 
    2160    415.69902   -8000.4616   -7954.0897   -316.08904    27941.491    1.6326962 
    2170     426.0288   -8001.1446   -7953.6204   -330.65721    27915.441    1.6365445 
    2180    430.91293   -8001.2295   -7953.1606   -334.55184    27887.977    1.6419113 
    2190    426.95185   -8000.3421   -7952.7149   -166.43828     27859.18    1.6504032 
    2200     418.8264   -7998.9905   -7952.2698     16.96668    27829.715     1.661557 
    2210    419.79674     -7998.64   -7951.8111    -7.328827    27800.297    1.6729881 
    2220    421.29621   -7998.3285   -7951.3322   -32.391941     27770.94    1.6825708 
    2230    425.41599   -7998.2982   -7950.8424    45.729595     27741.57    1.6895459 
    2240    429.73953   -7998.2845   -7950.3464     256.9414    27712.546    1.6957875 
    2250    432.26544    -7998.075   -7949.8551    535.64491    27684.759     1.704084 
    2260    430.70074   -7997.4203    -7949.375    792.96371    27659.366    1.7156047 
    2270    425.27479   -7996.3464   -7948.9064    985.57801    27637.435    1.7301967 
    2280    424.74602   -7995.8207   -7948.4397    1058.9311    27619.737    1.7470686 
    2290    434.79557   -7996.4696   -7947.9675    1078.5922    27606.591    1.7646962 
    2300    438.35639   -7996.3978   -7947.4984    1084.3143     27598.08    1.7811996 
    2310    434.79009   -7995.5485    -7947.047    1030.4288    27594.173    1.7940554 
    2320    444.20409   -7996.1601   -7946.6084    941.17178    27594.651    1.8017191 
    2330    453.42116    -7996.765   -7946.1852     693.7638    27599.076    1.8055574 
    2340     451.9479   -7996.2111   -7945.7957    453.60257    27606.465    1.8073528 
    2350    447.23493   -7995.3289   -7945.4392     330.3109    27615.823    1.8075824 
    2360    446.74449   -7994.9366   -7945.1016    268.25772     27626.61    1.8069405 
    2370     448.5593   -7994.8128   -7944.7754     243.0777    27638.556    1.8067021 
    2380     446.4929   -7994.2672   -7944.4602    301.29851    27651.582     1.807376 
    2390    446.29584   -7993.9397   -7944.1547    275.73705    27665.857    1.8080133 
    2400     445.5048   -7993.5489   -7943.8522    253.63784    27681.312    1.8075401 
    2410    448.86634   -7993.6237    -7943.552    240.49495    27697.867    1.8058698 
    2420    455.84645   -7994.1069   -7943.2565    189.70261    27715.447    1.8040731 
    2430    454.87458   -7993.7185   -7942.9766     234.0943     27733.91      1.80269 
    2440    453.84759   -7993.3448   -7942.7174    177.76956    27753.376    1.8003607 
    2450    461.70323   -7993.9783   -7942.4746   -53.704413    27773.552    1.7968841 
    2460    462.06179   -7993.8002   -7942.2565   -116.32611    27793.596    1.7946655 
    2470    459.59542   -7993.3381   -7942.0695   -127.16789    27813.176    1.7951282 
    2480    462.11828   -7993.4589   -7941.9089   -192.26866     27832.21    1.7979215 
    2490    461.07819   -7993.2047   -7941.7707    -382.4529    27850.391      1.80158 
    2500    462.39358   -7993.2375   -7941.6568   -641.92781    27866.925    1.8044318 
    2510    470.99572   -7994.1137   -7941.5734   -807.61157    27880.739    1.8061212 
    2520    473.02231   -7994.3048   -7941.5384   -695.01412    27891.172    1.8080316 
    2530    463.12171    -7993.217   -7941.5551   -499.02731     27898.62    1.8117935 
    2540    457.59947   -7992.6479    -7941.602    -428.5738    27903.879    1.8173831 
    2550    465.85334   -7993.6378   -7941.6711   -528.53399    27907.225    1.8235026 
    2560    468.79079   -7994.0699   -7941.7756   -514.21292    27908.327    1.8295239 
    2570    469.22686    -7994.271    -7941.928   -406.41381    27907.243     1.834302 
    2580    467.23997   -7994.2539   -7942.1325   -303.99373    27904.399    1.8369287 
    2590    455.59379   -7993.2011   -7942.3789   -198.85086    27900.232    1.8380764 
    2600    442.82953   -7992.0367   -7942.6384      -196.16     27895.16    1.8388893 
    2610    433.22758   -7991.2031   -7942.8759   -205.46233    27889.242    1.8407398 
    2620    433.51187   -7991.4325   -7943.0736   -306.67892      27882.4    1.8442673 
    2630    437.24535   -7992.0086   -7943.2333   -499.91903    27874.204    1.8495752 
    2640    439.32861   -7992.3727   -7943.3649   -729.18542    27863.837    1.8564926 
    2650     440.1439   -7992.5763   -7943.4776   -1002.3142     27850.29    1.8641352 
    2660    443.29626   -7993.0268   -7943.5765    -1230.143    27832.412     1.871255 
    2670    447.51125   -7993.5872   -7943.6667   -1302.1028    27809.276    1.8775757 
    2680    450.14253   -7993.9662   -7943.7521   -1236.6969    27780.597    1.8836739 
    2690    450.91256   -7994.1398   -7943.8398    -1078.987    27746.674    1.8895215 
    2700    445.54961   -7993.6265   -7943.9248   -843.36031    27708.231    1.8945637 
    2710    449.17796   -7994.1104   -7944.0039   -734.72258    27666.248    1.8984671 
    2720    450.60822   -7994.3498   -7944.0838   -693.24171    27621.277    1.9027863 
    2730    446.68058    -7993.996   -7944.1681   -678.84607    27573.558    1.9096293 
    2740    447.77523   -7994.2058   -7944.2558   -622.56537    27523.234    1.9204673 
    2750    445.24857   -7994.0064   -7944.3383   -360.84125    27470.674     1.934785 
    2760    443.54081   -7993.8848   -7944.4072   -63.507303    27416.988    1.9493081 
    2770     442.0851    -7993.771   -7944.4557    193.64919    27363.468    1.9620775 
    2780    441.17377   -7993.6935   -7944.4799    400.70683    27311.213    1.9730221 
    2790    439.99055   -7993.5596    -7944.478     589.7512    27261.134    1.9829979 
    2800    440.04613   -7993.5369   -7944.4491    794.00815     27214.05    1.9936029 
    2810    441.95651   -7993.6947   -7944.3938    1001.9438    27170.784    2.0066065 
    2820     443.9427   -7993.8374    -7944.315    1135.8521    27132.124    2.0226422 
    2830    447.06249   -7994.0901   -7944.2196    1108.7268    27098.544    2.0407339 
    2840    450.07035   -7994.3213   -7944.1153    1050.7921    27069.913    2.0587754 
    2850    452.44646   -7994.4769   -7944.0058    1104.6802     27045.97    2.0745238 
    2860    454.53797    -7994.601   -7943.8966    1222.0758    27026.836    2.0876189 
    2870    454.59621   -7994.5045   -7943.7936    1338.2673    27012.904     2.098641 
    2880    449.30615   -7993.8178   -7943.6971    1382.0712    27004.554    2.1074432 
    2890    445.97744   -7993.3457   -7943.5963    1344.9865    27001.883    2.1131352 
    2900    451.78555   -7993.8824    -7943.485    1298.9658    27004.689     2.115644 
    2910    457.15588   -7994.3632   -7943.3668    1265.2714    27012.748    2.1163022 
    2920    468.56795   -7995.5295   -7943.2601    1063.3014    27025.782      2.11641 
    2930    473.08231   -7995.9559   -7943.1828    866.10198    27043.013      2.11634 
    2940    474.92022   -7996.1305   -7943.1524    637.32033    27063.558     2.115059 
    2950    478.59284    -7996.569   -7943.1812    430.13966    27086.486    2.1128183 
    2960    472.83488   -7996.0252   -7943.2798    366.37175    27110.972    2.1115667 
    2970    458.94167   -7994.6372   -7943.4415    430.28693    27136.735    2.1126392 
    2980    448.67922   -7993.6915   -7943.6407    407.89408    27163.953    2.1159886 
    2990    441.27811   -7993.0748   -7943.8495    252.46034    27192.501    2.1205794 
    3000    435.39335   -7992.6195   -7944.0507    148.05366    27221.793    2.1241943 
    3010    429.69112   -7992.1641   -7944.2314    130.00401    27251.375    2.1250648 
    3020     431.9469   -7992.5696   -7944.3853    207.16377    27281.164    2.1226547 
    3030    443.81383   -7994.0265   -7944.5184    191.87407    27311.409    2.1180005 
    3040    450.71736   -7994.9267   -7944.6485    48.867149    27342.002    2.1140505 
    3050    440.99107   -7993.9714   -7944.7782    26.544818    27372.441    2.1132424 
    3060    441.75204   -7994.1778   -7944.8997   -110.60642    27402.512    2.1156287 
    3070    444.26845   -7994.5709   -7945.0121   -142.85975    27431.737    2.1202314 
    3080    439.18497   -7994.1144   -7945.1227   -48.495641    27459.988    2.1247969 
    3090    434.83973   -7993.7311   -7945.2241   -52.405956    27487.573    2.1264593 
    3100    432.29814   -7993.5257   -7945.3022   -54.295146    27514.562    2.1240188 
    3110    440.57111   -7994.4971   -7945.3507   -297.30001    27540.836    2.1193413 
    3120    451.09227   -7995.7006   -7945.3806   -558.49128    27565.451    2.1165347 
    3130    452.70887   -7995.9144    -7945.414   -591.92742    27587.422    2.1181359 
    3140    451.73325   -7995.8544   -7945.4629   -515.22778    27606.607    2.1231765 
    3150    450.19962   -7995.7458   -7945.5254   -476.44905    27623.301    2.1292045 
    3160    448.37301   -7995.6149   -7945.5983   -489.51347    27637.701    2.1339654 
    3170    443.52434   -7995.1505   -7945.6747   -502.37035    27649.814    2.1362135 
    3180    441.30755   -7994.9761   -7945.7476   -608.24313     27659.58    2.1355686 
    3190    442.63974   -7995.1882   -7945.8111   -792.13104    27666.578     2.132912 
    3200    444.96333   -7995.5053   -7945.8689   -795.31928    27670.185    2.1304705 
    3210    445.66701   -7995.6394   -7945.9246   -640.25178    27670.419    2.1297609 
    3220     443.7698   -7995.4811   -7945.9779   -394.40729    27667.962     2.130194 
    3230    437.05744   -7994.7735    -7946.019    -180.7933    27663.857    2.1301226 
    3240    439.03288    -7995.012   -7946.0372   -209.60859    27658.953    2.1277762 
    3250    450.39428   -7996.2789   -7946.0367   -461.48367     27653.16    2.1236786 
    3260    450.85789   -7996.3262   -7946.0323   -678.59334    27645.508    2.1201429 
    3270    444.46219   -7995.6085    -7946.028   -676.63543      27635.2    2.1182262 
    3280    441.45908   -7995.2567   -7946.0113   -631.60276    27622.205    2.1175747 
    3290    443.01628   -7995.3921   -7945.9729   -481.44204    27606.804    2.1172638 
    3300    442.40778   -7995.2642    -7945.913   -187.11838    27589.675    2.1166502 
    3310    431.64669   -7993.9721   -7945.8213    208.36096    27572.093    2.1145727 
    3320    430.51841   -7993.7088   -7945.6838    377.89247    27555.584    2.1091887 
    3330    435.68871   -7994.0913   -7945.4896    360.95379    27540.871    2.1013038 
    3340    437.36755   -7994.0328   -7945.2438    280.36672    27527.868    2.0938092 
    3350    441.62715    -7994.217   -7944.9529    340.20445    27516.298     2.089051 
    3360     448.8665   -7994.6957    -7944.624    434.96842    27506.352    2.0879453 
    3370    455.14016   -7995.0502   -7944.2786    485.40242    27498.377    2.0898622 
    3380    459.40621    -7995.186   -7943.9385    479.24052    27492.537    2.0940329 
    3390    464.24337   -7995.4097   -7943.6227    453.47226    27488.784     2.099553 
    3400    466.33684   -7995.3671   -7943.3465    438.92126    27486.994    2.1048865 
    3410    462.20301   -7994.6775   -7943.1181    476.89781    27487.104     2.108433 
    3420    461.47129   -7994.4092   -7942.9314    398.38182    27489.156    2.1102163 
    3430    458.82133   -7993.9566   -7942.7744    340.15266    27492.871    2.1124826 
    3440    456.69935    -7993.585   -7942.6395    326.25854    27498.003    2.1164804 
    3450    456.10112   -7993.3996   -7942.5208    211.49266    27504.399    2.1221648 
    3460    452.76152   -7992.9205   -7942.4143    21.995998    27511.564    2.1292502 
    3470    453.23782    -7992.875   -7942.3156   -74.167563    27518.769    2.1366077 
    3480    455.74503   -7993.0609   -7942.2218   -46.294801    27525.617    2.1425476 
    3490    457.12997   -7993.1313   -7942.1377    101.68129    27532.227    2.1457154 
    3500    462.59227   -7993.6739   -7942.0711    347.67735     27539.21     2.145234 
    3510     467.4894   -7994.1821   -7942.0329    630.33323    27547.596    2.1415242 
    3520    469.54577   -7994.4156   -7942.0371    712.03761    27558.466    2.1362286 
    3530    472.55464   -7994.8057   -7942.0915    621.50806    27572.145    2.1317095 
    3540     471.0122   -7994.7461   -7942.2039    534.44011    27588.287    2.1302369 
    3550    465.25051   -7994.2721   -7942.3727    381.84528    27606.469    2.1316972 
    3560     463.2126   -7994.2642   -7942.5922    114.76682    27626.007    2.1338531 
    3570    455.51929   -7993.6675   -7942.8536   -207.31217    27645.773    2.1355357 
    3580    447.73222   -7993.0892    -7943.144   -382.17762     27664.49    2.1360041 
    3590    448.00527    -7993.431   -7943.4553   -419.06997    27681.401    2.1347231 
    3600    448.12624   -7993.7789   -7943.7897   -256.75306    27696.415    2.1319636 
    3610    441.58919   -7993.3985   -7944.1386   -108.64136    27710.139    2.1283411 
    3620    434.37455   -7992.9365   -7944.4814    28.181192    27723.239     2.124508 
    3630    431.12729   -7992.8879    -7944.795    83.258281    27736.297     2.120533 
    3640    440.58287   -7994.2231   -7945.0754   -145.78356    27749.454     2.115592 
    3650    452.35374   -7995.8024   -7945.3416   -412.66719    27761.839    2.1105691 
    3660    449.79093   -7995.7822   -7945.6073   -493.40109    27772.402    2.1066625 
    3670    440.83902   -7995.0401   -7945.8638   -489.22441    27780.765    2.1034988 
    3680    437.69286   -7994.9163    -7946.091   -530.67168    27786.935    2.0998757 
    3690    442.63091   -7995.6645   -7946.2883   -569.78056    27790.767    2.0950598 
    3700    441.55967   -7995.7156    -7946.459   -422.10874    27792.198    2.0896321 
    3710    439.90296   -7995.6747   -7946.6029   -275.11096    27791.801    2.0836064 
    3720    434.35964   -7995.1683   -7946.7148   -158.85217    27790.217    2.0766112 
    3730    425.54997    -7994.255   -7946.7843   -99.217069    27787.958    2.0689933 
    3740    420.57613   -7993.7179    -7946.802   -124.88665    27785.263    2.0620811 
    3750    418.26184   -7993.4166   -7946.7589   -145.78748    27782.057    2.0573277 
    3760    425.73531   -7994.1518   -7946.6604   -192.90323    27778.237    2.0544768 
    3770    429.98187    -7994.481   -7946.5159   -110.17356    27773.678    2.0521736 
    3780    445.11153   -7996.0001   -7946.3472   -3.4917538     27768.72    2.0486591 
    3790    458.18173    -7997.292   -7946.1812    86.837071    27763.794     2.043663 
    3800    455.74785   -7996.8874   -7946.0481    263.19058    27759.321    2.0377795 
    3810    451.23623   -7996.2838   -7945.9477     443.4654    27756.027    2.0314406 
    3820    455.63996   -7996.6991   -7945.8718    611.91981    27754.677    2.0257045 
    3830    456.03449    -7996.691   -7945.8197    760.22191    27755.956    2.0215456 
    3840    453.44985    -7996.375    -7945.792    845.53643     27760.46    2.0186374 
    3850    452.33592   -7996.2393   -7945.7805     819.4026    27768.518    2.0150988 
    3860    452.66189   -7996.2747   -7945.7796    660.65358    27779.975     2.009461 
    3870     449.2332   -7995.8974   -7945.7848     521.7393    27794.181    2.0032426 
    3880    442.20309   -7995.1158   -7945.7874    487.42754    27810.569    1.9988999 
    3890    436.07109   -7994.4193   -7945.7749    380.95555    27828.916    1.9966286 
    3900    428.31007   -7993.5122   -7945.7336    209.09787    27848.766    1.9959319 
    3910    429.46591   -7993.5616    -7945.654   -37.798995    27869.363    1.9969255 
    3920    436.08938   -7994.1823   -7945.5359    -358.6242     27889.63    2.0001556 
    3930    439.34944   -7994.4015   -7945.3914   -645.98496    27908.224    2.0057356 
    3940    437.50591   -7994.0349   -7945.2305   -799.71538    27923.959    2.0126742 
    3950    433.05585   -7993.3607   -7945.0526   -947.43747    27936.124    2.0187811 
    3960    432.45084   -7993.0932   -7944.8527   -1102.5508    27944.098    2.0215873 
    3970    429.29299   -7992.5143    -7944.626    -993.4987    27947.358    2.0201788 
    3980    430.13358   -7992.3528   -7944.3707   -745.21036    27946.344    2.0159109 
    3990    438.28877   -7992.9786   -7944.0869   -569.50564    27942.083    2.0123617 
    4000    445.78347   -7993.5177   -7943.7899    -442.0706    27935.369    2.0125707 
    4010    444.39922   -7993.0717   -7943.4983   -282.83896    27926.804    2.0162068 
    4020    444.50841   -7992.8054   -7943.2198   -231.56649    27917.025    2.0191889 
    4030    447.79612   -7992.9039   -7942.9516   -256.96461    27906.278    2.0185686 
    4040     452.6354   -7993.1916   -7942.6994   -149.67651    27894.547     2.014516 
    4050    456.03736   -7993.3399   -7942.4683    94.153868    27882.296    2.0083173 
    4060    461.45321     -7993.74   -7942.2642     355.9353     27870.55    2.0017984 
    4070    471.01105   -7994.6422   -7942.1002    435.11921    27860.359    1.9971562 
    4080    468.08087   -7994.2027   -7941.9876     359.4664    27852.071    1.9959284 
    4090    462.65546   -7993.5345   -7941.9246    89.878308     27845.31    1.9971999 
    4100    461.98884   -7993.4323   -7941.8967   -161.56662    27838.981    1.9982898 
    4110    465.07582   -7993.7788   -7941.8989   -155.15063     27832.09    1.9972862 
    4120    464.39185   -7993.7383   -7941.9347    62.487217    27824.644    1.9946176 
    4130    453.32522   -7992.5633   -7941.9942    395.42778     27817.58    1.9925562 
    4140    453.27602    -7992.628   -7942.0644    510.11938    27812.174     1.992523 
    4150    460.15454   -7993.4756   -7942.1447    577.18237    27809.007    1.9943391 
    4160    463.47338    -7993.951   -7942.2498    542.08047    27808.307    1.9974591 
    4170     462.4287   -7993.9719   -7942.3873     445.1462    27809.941    2.0009374 
    4180    464.65958   -7994.3924    -7942.559    229.42385    27813.441    2.0028452 
    4190    461.92315   -7994.2925   -7942.7643    96.889823    27817.961    2.0022676 
    4200    451.51865   -7993.3631   -7942.9955    139.75133    27822.955    2.0006865 
    4210    444.70669   -7992.8411   -7943.2334    132.74479    27828.512      2.00043 
    4220    441.59756   -7992.7229    -7943.462    1.0850299    27834.588    2.0030143 
    4230    437.17731   -7992.4363   -7943.6685   -262.93861    27840.598    2.0085305 
    4240    437.83982   -7992.6896   -7943.8479   -521.69528    27845.444    2.0154169 
    4250    441.83216   -7993.2923   -7944.0052   -599.76999    27848.089    2.0219159 
    4260    447.60257   -7994.0831   -7944.1524   -450.00748    27848.224     2.027206 
    4270    449.79369   -7994.4739   -7944.2987   -193.03782    27846.466    2.0314631 
    4280     452.9118   -7994.9762   -7944.4532    -21.74565    27843.853    2.0353542 
    4290    454.07075   -7995.2747   -7944.6224    66.997367    27841.137    2.0396184 
    4300    459.26398   -7996.0461   -7944.8145    31.887332    27838.691    2.0442183 
    4310    464.22922   -7996.8317   -7945.0463   -71.701693    27836.362    2.0486458 
    4320    455.99423   -7996.1899   -7945.3231   -32.923813    27833.789    2.0524045 
    4330    447.70292   -7995.5761   -7945.6342    94.664397    27831.134    2.0549151 
    4340    438.31358   -7994.8534   -7945.9589    189.65452    27828.889    2.0566973 
    4350    427.47446   -7993.9585    -7946.273    173.48731    27827.424    2.0596935 
    4360     423.2341   -7993.7655   -7946.5531   -72.741155    27826.642    2.0654359 
    4370     431.6619   -7994.9525      -7946.8   -470.70228    27825.502     2.073319 
    4380    440.13433   -7996.1296    -7947.032   -787.87734    27822.372    2.0816992 
    4390     435.8844   -7995.8851   -7947.2616   -913.14356    27815.922    2.0892471 
    4400    429.44227    -7995.385   -7947.4801   -853.03406    27805.626    2.0946565 
    4410    435.47467   -7996.2629   -7947.6851   -801.62758    27791.656    2.0976579 
    4420    435.35875   -7996.4504   -7947.8854   -645.49438    27774.306    2.0994932 
    4430    422.69817   -7995.2292   -7948.0766   -502.95223    27754.207    2.1008752 
    4440    416.02461   -7994.6509   -7948.2427     -501.006    27731.916    2.1017818 
    4450    419.93666    -7995.218   -7948.3734   -531.49892     27707.51    2.1027243 
    4460    427.75215   -7996.1901   -7948.4737   -568.59697    27680.863    2.1040064 
    4470     431.7127   -7996.7085   -7948.5503   -456.91384    27651.893    2.1046249 
    4480    432.23573   -7996.8168   -7948.6002   -345.11122    27621.019    2.1019144 
    4490    438.15433   -7997.4974   -7948.6206   -387.30052    27588.681    2.0937829 
    4500    448.33572   -7998.6302   -7948.6177   -434.83262    27554.777      2.08162 
    4510    450.10925    -7998.811   -7948.6006   -310.09403    27519.195    2.0698604 
    4520     451.1296   -7998.8989   -7948.5747   -112.15475    27482.435    2.0617876 
    4530    447.63405   -7998.4742     -7948.54    199.98643    27445.371    2.0571791 
    4540     434.2084   -7996.9213   -7948.4847    564.52062    27409.306    2.0538515 
    4550    432.14163   -7996.5969   -7948.3908     804.1006    27375.706    2.0502918 
    4560    435.44317    -7996.821   -7948.2466    985.38322    27345.609    2.0473475 
    4570    441.01378   -7997.2532   -7948.0574    1087.1012    27319.738    2.0463851 
    4580    451.35701   -7998.1841   -7947.8345    1120.4702    27298.515    2.0473665 
    4590     458.3862   -7998.7319   -7947.5983    1071.3083     27282.03    2.0490031 
    4600    457.62999   -7998.4205   -7947.3712    961.22007    27270.042     2.050463 
    4610    453.04255   -7997.6947   -7947.1572    966.79507    27262.149    2.0519011 
    4620    455.65073   -7997.7804   -7946.9518    988.28974    27258.316    2.0534055 
    4630    455.40391    -7997.556    -7946.755    968.92383    27258.582    2.0553606 
    4640    452.13329   -7997.0055   -7946.5693    840.63897    27262.829    2.0571531 
    4650    456.88353   -7997.3601   -7946.3941    524.96379    27270.467    2.0583386 
    4660    453.06919   -7996.7698   -7946.2292    232.90306    27280.266    2.0599035 
    4670    445.17152   -7995.7304   -7946.0708   -5.0855296    27291.008    2.0621759 
    4680    442.92849   -7995.3127   -7945.9034   -166.83708    27301.731      2.06518 
    4690    444.48773   -7995.3024   -7945.7191   -317.48271     27311.73    2.0685499 
    4700    444.67564   -7995.1236   -7945.5193   -450.60714    27320.385    2.0719028 
    4710    445.47083   -7995.0007   -7945.3078   -447.30436    27327.202    2.0751442 
    4720    448.83475   -7995.1522    -7945.084   -392.87606    27332.146    2.0783707 
    4730    459.89161   -7996.1595   -7944.8579   -389.68212    27335.404    2.0816828 
    4740    462.18911   -7996.2029    -7944.645   -289.28375    27337.069    2.0849079 
    4750    461.67099    -7995.957   -7944.4569   -174.15579    27337.535    2.0871229 
    4760     467.0486   -7996.3949    -7944.295   -176.46935    27337.243    2.0877209 
    4770    470.89761   -7996.6983   -7944.1689    -209.7467    27336.191    2.0880831 
    4780    466.91105   -7996.1709   -7944.0863   -70.307302    27334.327    2.0903986 
    4790    467.37519   -7996.1813   -7944.0449    150.76893    27332.196    2.0950075 
    4800    466.06196   -7996.0312   -7944.0413    484.05883    27330.749    2.1009455 
    4810    465.13872   -7995.9623   -7944.0753    811.21738    27331.328    2.1079716 
    4820    469.57546   -7996.5375   -7944.1557    867.96575     27335.17    2.1166444 
    4830     458.5108   -7995.4287   -7944.2812    850.64359    27342.592    2.1255587 
    4840    446.96588   -7994.2948   -7944.4351    814.09395    27353.541    2.1324702 
    4850    438.10978   -7993.4645   -7944.5927    884.37486    27367.927    2.1378164 
    4860     425.9411   -7992.2465   -7944.7321    981.89772    27385.994    2.1433263 
    4870       424.22   -7992.1521   -7944.8298    867.07366    27408.066    2.1500893 
    4880    444.09297   -7994.4237   -7944.8845    443.37904    27433.627    2.1582213 
    4890    450.43531   -7995.1633   -7944.9166    118.78847    27461.053    2.1672676 
    4900    441.21432   -7994.1587   -7944.9405   -119.90546    27488.971    2.1756029 
    4910    446.55256   -7994.7646    -7944.951   -580.99515    27516.242     2.181296 
    4920    442.52197   -7994.3076   -7944.9436   -944.44873    27541.051      2.18547 
    4930    431.61322   -7993.0632   -7944.9161   -1182.5571    27561.854    2.1893556 
    4940    432.98036   -7993.1504   -7944.8507   -1363.9313    27577.622    2.1928956 
    4950    441.57061   -7993.9988   -7944.7409   -1473.2505     27587.59    2.1962245 
    4960    442.06999   -7993.9065   -7944.5929   -1361.1763    27591.381    2.2005253 
    4970    442.08512   -7993.7232   -7944.4079   -1154.6984    27589.427      2.20504 
    4980     448.8381   -7994.2467   -7944.1781    -965.9009    27582.573    2.2090718 
    4990    451.07388   -7994.2266   -7943.9086   -726.68784    27571.657    2.2127024 
    5000    447.70314   -7993.5491   -7943.6072   -495.35152     27557.68    2.2140196 
Loop time of 1867.01 on 16 procs for 3000 steps with 864 atoms

Performance: 0.139 ns/day, 172.871 hours/ns, 1.607 timesteps/s
97.4% CPU use with 16 MPI tasks x 1 OpenMP threads

MPI task timing breakdown:
Section |  min time  |  avg time  |  max time  |%varavg| %total
---------------------------------------------------------------
Pair    | 1149.1     | 1514.8     | 1840.2     | 632.6 | 81.14
Bond    | 0.00022793 | 0.00051376 | 0.0016153  |   0.0 |  0.00
Neigh   | 0.03294    | 0.03804    | 0.044415   |   1.6 |  0.00
Comm    | 0.24896    | 322.07     | 704.09     |1381.7 | 17.25
Output  | 0.23532    | 0.23919    | 0.29431    |   2.9 |  0.01
Modify  | 4.9836     | 29.818     | 97.134     | 502.0 |  1.60
Other   |            | 0.01443    |            |       |  0.00

Nlocal:        54.0000 ave          63 max          47 min
Histogram: 2 3 1 2 2 2 1 0 0 3
Nghost:        410.438 ave         445 max         390 min
Histogram: 2 2 3 2 2 1 2 1 0 1
Neighs:         0.00000 ave           0 max           0 min
Histogram: 16 0 0 0 0 0 0 0 0 0
FullNghs:      1653.62 ave        2133 max        1329 min
Histogram: 3 2 2 1 2 3 0 1 1 1

Total # of neighbors = 26458
Ave neighs/atom = 30.622685
Ave special neighs/atom = 0.0000000
Neighbor list builds = 300
Dangerous builds = 300
Setting up Verlet run ...
  Unit style    : metal
  Current step  : 5000
  Time step     : 0.001
Per MPI rank memory allocation (min/avg/max) = 8.897 | 8.899 | 8.900 Mbytes
Step Temp PotEng TotEng Press Volume c_msd[4] 
    5000    447.70314   -7993.5491   -7943.6072   -495.35152     27557.68    2.2140196 
    5010    441.76891   -7992.8825   -7943.6025   -373.92803    27556.732    2.2134884 
    5020    441.07055    -7992.783   -7943.5809   -261.65921    27554.192    2.2110189 
    5030    450.32666   -7993.7781   -7943.5435   -45.815101    27550.578    2.2093226 
    5040    455.38082   -7994.2991   -7943.5007    219.10401    27546.808    2.2099726 
    5050    464.12069   -7995.2436   -7943.4702    226.42568    27543.844    2.2126735 
    5060        469.6   -7995.8523   -7943.4677    183.49654    27541.829    2.2166235 
    5070     469.6334   -7995.9006   -7943.5123    269.77479    27540.651    2.2210347 
    5080    467.20259   -7995.7244   -7943.6073     382.8592    27540.622    2.2239573 
    5090    467.49423   -7995.9063   -7943.7566    422.35607    27542.187    2.2248644 
    5100    464.53793   -7995.7822   -7943.9623    490.28965     27545.56    2.2258753 
    5110     467.0387   -7996.3293   -7944.2304    575.83969    27551.042    2.2288422 
    5120    466.74468   -7996.6389   -7944.5728    656.88493    27559.002    2.2349458 
    5130    458.32651   -7996.1099   -7944.9829    641.21048    27569.774    2.2439716 
    5140    455.58674   -7996.2604   -7945.4391    346.11123    27583.209    2.2532836 
    5150    455.81973   -7996.7674     -7945.92   -21.066598    27598.151    2.2621714 
    5160    450.50753   -7996.6556   -7946.4009   -290.64639    27613.117    2.2722097 
    5170    442.27794   -7996.1804   -7946.8437   -509.77621     27626.93    2.2836529 
    5180    435.11525   -7995.7545   -7947.2167   -642.40728    27638.678    2.2948783 
    5190     430.8859     -7995.57    -7947.504   -795.53073    27647.719    2.3036754 
    5200    432.09967   -7995.9162   -7947.7149   -799.07916    27653.472    2.3094198 
    5210    424.66386   -7995.2296   -7947.8578   -590.16473    27655.933    2.3131352 
    5220    418.69892   -7994.6392   -7947.9327    -398.1676     27655.87    2.3146266 
    5230    420.24248   -7994.8154   -7947.9368   -254.49703    27654.079     2.314525 
    5240    419.03905   -7994.6165   -7947.8721   -21.546085    27651.232    2.3145322 
    5250    421.79399   -7994.8022   -7947.7504    188.21515    27648.276    2.3151898 
    5260    428.74077    -7995.415   -7947.5883    277.00884    27646.058    2.3165571 
    5270    430.13246   -7995.3815   -7947.3995     322.1032    27645.007    2.3191813 
    5280    435.55622   -7995.7809    -7947.194    301.15521    27645.296    2.3232034 
    5290    437.08289   -7995.7356   -7946.9783    401.64308    27646.935    2.3282767 
    5300    432.28619   -7994.9786   -7946.7564    534.21734    27650.329    2.3322654 
    5310    440.55096   -7995.6681    -7946.524      416.688    27655.927    2.3335503 
    5320    452.44714   -7996.7564   -7946.2852     219.4466    27663.316    2.3335104 
    5330    452.26784   -7996.5152   -7946.0641    236.74028    27671.773     2.333566 
    5340    444.60233    -7995.463    -7945.867      386.006    27681.344    2.3339155 
    5350    442.99304   -7995.0998   -7945.6832    411.52886    27692.585    2.3345016 
    5360    445.56307   -7995.2059   -7945.5027    315.71956    27705.624    2.3358061 
    5370    449.32185   -7995.4478   -7945.3253    186.64202    27720.083    2.3383235 
    5380     453.1865   -7995.7106    -7945.157    19.330682    27735.436    2.3420942 
    5390    452.36795    -7995.465   -7945.0027   -235.21896    27750.945    2.3465826 
    5400    445.83848   -7994.5941   -7944.8602   -415.91369    27765.575    2.3504615 
    5410    445.55504    -7994.422   -7944.7196   -528.95522    27778.548    2.3526008 
    5420    453.45284   -7995.1595   -7944.5762   -679.16828    27789.299    2.3534722 
    5430    462.99601   -7996.0922   -7944.4443    -743.8099    27797.225    2.3544821 
    5440    460.59972   -7995.7213   -7944.3407   -684.01212    27802.046    2.3569134 
    5450    451.48389   -7994.6292   -7944.2654   -585.99467    27803.958    2.3604714 
    5460    442.00355   -7993.5018   -7944.1956   -462.88986    27803.371     2.364473 
    5470     441.0524    -7993.313   -7944.1129    -337.0178    27800.776    2.3684273 
    5480    438.20312   -7992.8863   -7944.0041   -247.81009    27796.693    2.3716451 
    5490    440.57588   -7993.0166   -7943.8697   -383.18105    27791.416    2.3738932 
    5500     444.7545   -7993.3245   -7943.7114   -522.66658    27784.465    2.3762809 
    5510    448.99668   -7993.6263     -7943.54   -620.29926    27775.232    2.3797095 
    5520    449.91796    -7993.549     -7943.36   -653.04046    27763.312    2.3842266 
    5530    451.87103   -7993.5814   -7943.1746    -720.6974    27748.503     2.389412 
    5540    454.79574   -7993.7203   -7942.9871   -752.43366    27730.528    2.3958187 
    5550    456.92932   -7993.7767   -7942.8056   -690.50376    27709.265    2.4038868 
    5560    453.42466   -7993.2118   -7942.6316   -485.27722    27685.006    2.4120101 
    5570    449.29732   -7992.5777   -7942.4579   -244.54492    27658.563    2.4185476 
    5580    453.54429   -7992.8676   -7942.2741      18.5609    27630.992    2.4243038 
    5590    458.12587    -7993.185   -7942.0803    288.42825     27603.42    2.4321396 
    5600    460.59427   -7993.2663   -7941.8863    517.48886    27576.991    2.4430134 
    5610    465.26375   -7993.6005   -7941.6997     643.4739    27552.648    2.4549759 
    5620    469.81931   -7993.9382   -7941.5291    761.64986    27530.985    2.4661403 
    5630    475.81577   -7994.4665   -7941.3885     807.4372    27512.482    2.4755738 
    5640    480.96251   -7994.9464   -7941.2943    709.31975    27497.291     2.483393 
    5650     482.5987   -7995.0982   -7941.2636    586.96495    27485.048    2.4898406 
    5660    485.12856   -7995.4336   -7941.3167    532.56519     27475.27    2.4944149 
    5670    478.95446   -7994.9044   -7941.4763    668.41814    27467.805     2.498407 
    5680    469.11323   -7994.0858   -7941.7556    814.57194     27463.15    2.5030261 
    5690     465.4198   -7994.0768   -7942.1585     868.0853     27461.88    2.5084937 
    5700    459.31673   -7993.9168   -7942.6793    921.38772    27464.278    2.5148396 
    5710     452.3769   -7993.7474   -7943.2841    921.16049    27470.563    2.5208993 
    5720    452.26277   -7994.3689   -7943.9183    672.71467    27480.673    2.5250757 
    5730    453.30069   -7995.0932   -7944.5269    306.46231    27493.623    2.5285096 
    5740    451.07457   -7995.3837   -7945.0657    67.821455    27507.966    2.5342287 
    5750    447.69455   -7995.4525   -7945.5115   -94.202098    27522.665     2.543171 
    5760     449.7639   -7996.0415   -7945.8697   -357.20453    27536.951    2.5536528 
    5770    447.67519   -7996.0985   -7946.1597   -565.53655    27549.798    2.5641775 
    5780    435.62839   -7994.9802   -7946.3852    -660.7155    27560.335    2.5742146 
    5790    434.66757   -7995.0332   -7946.5454   -770.29743    27568.091    2.5829265 
    5800    442.49688   -7996.0186   -7946.6574   -903.53165    27572.586    2.5904646 
    5810    441.77457   -7996.0207   -7946.7401    -1082.093    27573.238    2.5978772 
    5820    444.94066   -7996.4406   -7946.8068    -1355.605    27569.267    2.6052592 
    5830    442.82184   -7996.2598   -7946.8623   -1510.1469    27559.587    2.6136098 
    5840     439.4259   -7995.9227   -7946.9041     -1376.62    27543.613    2.6245627 
    5850    443.31687   -7996.3792   -7946.9265   -1071.9668     27521.85    2.6387694 
    5860    442.10624   -7996.2468   -7946.9292   -689.99463    27495.577    2.6558923 
    5870    434.20171   -7995.3415   -7946.9057   -332.67101     27466.39    2.6747027 
    5880    433.75476   -7995.2344   -7946.8484   -161.01773    27435.733    2.6939659 
    5890    439.55212   -7995.7926   -7946.7599   -127.64006    27404.384    2.7134712 
    5900    439.90762   -7995.7216   -7946.6492   -107.09416    27372.535    2.7327176 
    5910    436.41739   -7995.2003   -7946.5173   -166.22492    27340.229    2.7501431 
    5920    435.44194   -7994.9309   -7946.3567   -143.17802    27307.311    2.7650802 
    5930    439.98477   -7995.2413   -7946.1603   -5.3604891    27273.887    2.7787355 
    5940    449.21935   -7996.0465   -7945.9354     133.7233    27240.499    2.7930039 
    5950     449.7529   -7995.8667   -7945.6961    419.41583    27207.795     2.808747 
    5960    445.71213    -7995.166   -7945.4461    820.18427    27176.965    2.8246399 
    5970    450.29421   -7995.4155   -7945.1845     1032.671    27149.533    2.8391996 
    5980       458.41   -7996.0556   -7944.9193    1128.1987    27126.418    2.8527502 
    5990    466.63326   -7996.7293   -7944.6757    1135.3603    27108.002     2.866653 
    6000    470.30516   -7996.9382   -7944.4749    1118.1996    27094.318    2.8814898 
    6010     472.3251   -7997.0166    -7944.328    1094.3733    27085.272    2.8959201 
    6020    473.63112    -7997.069   -7944.2348    1223.0919    27080.825    2.9081908 
    6030    471.60839    -7996.803   -7944.1944    1267.4488    27081.365    2.9173498 
    6040    465.52491   -7996.1314   -7944.2014    1221.6496    27087.045    2.9234986 
    6050    465.58608   -7996.1793   -7944.2425    1137.7759    27097.661    2.9268072 
    6060    473.54555   -7997.1515   -7944.3267    925.23312    27112.796    2.9273407 
    6070    465.97903    -7996.445   -7944.4644    715.96717    27131.603     2.926276 
    6080    456.43521   -7995.5612   -7944.6452    508.64909    27153.194      2.92454 
    6090    451.77511   -7995.2416   -7944.8454    246.20002    27176.648     2.922608 
    6100    446.64458   -7994.8736   -7945.0497   -35.304211    27200.843    2.9210409 
    6110    444.05662   -7994.7855   -7945.2503   -214.80444    27224.673    2.9205842 
    6120    443.16488    -7994.881   -7945.4453   -407.56588    27247.329    2.9222909 
    6130     442.7409   -7995.0226   -7945.6342   -526.90625    27268.056    2.9267638 
    6140    442.66518   -7995.1964   -7945.8164   -530.78691    27286.385    2.9336776 
    6150    444.99938   -7995.6365   -7945.9961   -404.78111    27302.325     2.941581 
    6160    447.68477   -7996.1208   -7946.1809   -276.15111     27316.37    2.9481953 
    6170    451.69857   -7996.7697    -7946.382   -263.58346     27329.02    2.9521978 
    6180     454.3184   -7997.2907   -7946.6108   -184.65413    27340.428    2.9543408 
    6190    457.49239   -7997.9134   -7946.8795   -10.825417    27350.941     2.956144 
    6200    460.49791   -7998.5703   -7947.2011    236.09515    27361.311    2.9592922 
    6210    459.59256   -7998.8513   -7947.5831    403.56244    27372.497    2.9642875 
    6220    453.37234   -7998.5902   -7948.0158    480.76103     27385.19    2.9690839 
    6230    446.94175   -7998.3285   -7948.4715    373.03008    27399.627    2.9707604 
    6240    446.73062   -7998.7582   -7948.9248    160.58234    27415.363    2.9674338 
    6250    444.32434   -7998.9201    -7949.355     -69.4083    27431.553    2.9597978 
    6260    434.27241   -7998.1728   -7949.7291   -284.74068    27447.246    2.9500501 
    6270    433.09709   -7998.3379   -7950.0252   -599.90403    27461.492    2.9393704 
    6280    433.65542   -7998.6192   -7950.2443   -931.68384    27473.008    2.9287483 
    6290    423.84315    -7997.669   -7950.3887   -1012.3507    27480.556    2.9188267 
    6300    419.85499   -7997.2948   -7950.4593   -975.56897      27483.8    2.9091359 
    6310    422.31665   -7997.5754   -7950.4653   -867.29157    27482.928    2.8994552 
    6320    420.73395   -7997.3533   -7950.4198   -669.78309    27478.484    2.8897463 
    6330     425.0005   -7997.7416   -7950.3322   -571.59592    27471.289    2.8793641 
    6340    435.85426    -7998.832   -7950.2118   -573.10295    27461.785    2.8684176 
    6350    445.28816   -7999.7501   -7950.0776   -481.24933    27450.105    2.8575176 
    6360    447.67386   -7999.8874   -7949.9487   -333.31525    27436.646    2.8469885 
    6370    445.07404   -7999.4775   -7949.8288   -121.80481    27422.066    2.8374189 
    6380     444.3151   -7999.2743   -7949.7103    180.68577    27407.292    2.8293591 
    6390    443.76419   -7999.0892   -7949.5867    494.69304    27393.558    2.8230067 
    6400     442.6216    -7998.832   -7949.4569    667.58456    27382.083     2.818656 
    6410    439.83133   -7998.3808    -7949.317    752.11904    27373.561    2.8164359 
    6420    445.36265   -7998.8495   -7949.1686    857.31503    27368.325    2.8152037 
    6430    453.81863   -7999.6445   -7949.0203    922.09025     27366.74    2.8135542 
    6440    454.49876    -7999.588   -7948.8879    773.56446    27368.915    2.8108336 
    6450    451.82177   -7999.1731   -7948.7717    619.52434    27374.263     2.806977 
    6460    456.68413   -7999.6113   -7948.6675    513.30984    27382.088    2.8019965 
    6470    456.08006   -7999.4547   -7948.5783    570.64261    27391.965    2.7964752 
    6480    451.55172   -7998.8771   -7948.5058    571.30382    27404.003    2.7913621 
    6490    448.35182   -7998.4539   -7948.4396    568.64815      27418.2    2.7878314 
    6500    449.06021   -7998.4648   -7948.3714    635.07235     27434.53    2.7862842 
    6510    449.28262   -7998.4192   -7948.3011    683.07703    27453.203    2.7862764 
    6520    444.41934   -7997.8012   -7948.2256    619.63471     27474.34    2.7867339 
    6530    446.08378   -7997.8998   -7948.1385    393.71555    27497.632    2.7865989 
    6540    451.17642    -7998.365   -7948.0356   -68.806333    27522.057    2.7859085 
    6550    450.15973   -7998.1411   -7947.9251   -438.31459    27545.786    2.7855482 
    6560    439.36832   -7996.8192    -7947.807   -514.66263    27567.347    2.7856457 
    6570    434.54368   -7996.1386   -7947.6646   -439.67384    27586.405    2.7854044 
    6580     436.2759   -7996.1463    -7947.479   -360.78172    27603.261    2.7850224 
    6590    435.22995   -7995.7948   -7947.2443   -263.76879    27618.293     2.784021 
    6600    437.48243   -7995.7596   -7946.9578   -145.45181    27631.942    2.7801907 
    6610    444.04024   -7996.1532   -7946.6198   -136.25571    27644.657    2.7730642 
    6620    446.04824   -7996.0004   -7946.2431    -161.1574    27656.537    2.7648147 
    6630    456.93856   -7996.8202    -7945.848   -268.34046    27667.467    2.7572981 
    6640    467.85993   -7997.6514   -7945.4609   -453.21383    27676.994    2.7519569 
    6650    463.48261   -7996.8205   -7945.1183   -506.41665    27684.461    2.7494022 
    6660     453.3329    -7995.399    -7944.829   -486.63974    27689.669    2.7485773 
    6670     444.2837   -7994.1323   -7944.5717   -496.33202    27692.708    2.7484527 
    6680    446.07232   -7994.0892   -7944.3292   -542.76643    27693.571    2.7480122 
    6690    450.99434    -7994.411   -7944.1019   -491.07475    27692.161    2.7462212 
    6700    448.10873   -7993.8878   -7943.9006   -309.08868    27688.764    2.7429276 
    6710    449.40776   -7993.8566   -7943.7245   -227.19435    27684.085    2.7391193 
    6720    458.51669   -7994.7218   -7943.5736   -152.73998    27678.523    2.7364907 
    6730    456.92691   -7994.4258    -7943.455    115.06193    27672.506    2.7363737 
    6740    450.61604   -7993.6327   -7943.3658    274.93979    27667.057    2.7384099 
    6750    450.27828   -7993.5221   -7943.2929    122.94717    27662.753    2.7409219 
    6760    454.71042   -7993.9561   -7943.2325   -28.150459     27659.06    2.7422771 
    6770    456.19706   -7994.0786   -7943.1891    25.733722    27655.416    2.7420205 
    6780    455.97209   -7994.0282   -7943.1639    134.42497    27651.971    2.7402762 
    6790    456.45358   -7994.0708   -7943.1527    224.98062    27649.136    2.7372086 
    6800    460.83383   -7994.5646   -7943.1579    285.39218     27647.29    2.7338707 
    6810    462.58377   -7994.7869    -7943.185    241.66855    27646.646    2.7314101 
    6820    465.22268   -7995.1347   -7943.2384    84.769468    27646.993    2.7287022 
    6830    474.35925   -7996.2436   -7943.3281    11.096855    27647.741    2.7238151 
    6840    478.00566   -7996.7894   -7943.4671     119.9047    27648.592    2.7171425 
    6850    476.90845    -7996.859   -7943.6591    289.37679    27649.967    2.7108414 
    6860    479.40706   -7997.3777   -7943.8992    407.31208    27652.527    2.7065494 
    6870    483.61099   -7998.1427   -7944.1951    496.51284    27656.762    2.7047681 
    6880    472.84311   -7997.2853   -7944.5389    572.96765    27663.044    2.7050488 
    6890    455.83328   -7995.7364   -7944.8875    562.41977    27671.652    2.7052439 
    6900    451.99083   -7995.6247   -7945.2044    299.79309    27682.417    2.7035844 
    6910    452.88427   -7996.0013   -7945.4813    43.785589    27694.316    2.7014384 
    6920    447.41523   -7995.6304   -7945.7205   -146.76166     27706.26    2.7013003 
    6930    442.13505   -7995.2368   -7945.9159    -307.3089    27717.423    2.7033063 
    6940    447.55313   -7996.0007   -7946.0755   -400.10074     27727.14    2.7058242 
    6950    445.46479    -7995.901   -7946.2087   -322.35799    27735.095     2.707783 
    6960     441.8591    -7995.608   -7946.3179   -366.12948    27741.523    2.7079456 
    6970    443.23003   -7995.8422   -7946.3992   -526.77546    27746.275    2.7058213 
    6980    448.72276   -7996.5173   -7946.4616   -656.21817    27748.718    2.7016687 
    6990    449.54799   -7996.6642   -7946.5165   -577.73756    27748.412    2.6964405 
    7000    447.75916    -7996.516   -7946.5677   -416.16335     27745.68    2.6918428 
    7010    448.21124   -7996.6129   -7946.6143   -295.48535    27741.203    2.6894149 
    7020    446.91698   -7996.5088   -7946.6546   -283.91301    27735.477       2.6897 
    7030    444.75763   -7996.3007   -7946.6874   -363.30965    27728.572    2.6915018 
    7040    448.92208     -7996.79   -7946.7121   -507.17262    27720.182    2.6929901 
    7050    455.96453   -7997.6031   -7946.7395   -645.01794    27709.728    2.6932786 
    7060    451.74212   -7997.1719   -7946.7794   -684.85215    27696.672    2.6930036 
    7070    443.04103   -7996.2468    -7946.825   -548.50545    27680.931    2.6929915 
    7080    435.42005   -7995.4274   -7946.8557   -344.23889    27663.084    2.6940486 
    7090    426.19118   -7994.3946   -7946.8524   -234.91913    27643.954    2.6959407 
    7100    422.43986   -7993.9223   -7946.7985   -266.33537    27623.987    2.6975661 
    7110     429.9157   -7994.6437   -7946.6859   -341.79484    27603.124    2.6985637 
    7120    437.87023   -7995.3619   -7946.5168   -372.66148    27581.096    2.6994491 
    7130    447.94625    -7996.272   -7946.3029    -298.8137    27557.815    2.7007418 
    7140    456.60868   -7996.9959   -7946.0605   -200.94003    27533.573    2.7032376 
    7150    453.18852   -7996.3592   -7945.8053   -71.047746    27508.827    2.7068811 
    7160    451.03506   -7995.8548   -7945.5411   -29.521495    27484.099    2.7105317 
    7170    460.37073   -7996.6203   -7945.2652    -212.9988    27459.491    2.7130438 
    7180    466.88146   -7997.0744   -7944.9931   -263.28471    27434.402    2.7144522 
    7190    465.95642   -7996.7202    -7944.742    10.456568    27408.705     2.715378 
    7200    463.11671   -7996.1734   -7944.5121    323.70938    27383.446    2.7161444 
    7210    464.82471   -7996.1527   -7944.3008    520.70787    27359.869    2.7157875 
    7220    467.62686   -7996.2758   -7944.1113    652.59604    27338.774    2.7143153 
    7230    463.94212   -7995.6976   -7943.9442    799.60774    27320.711    2.7132022 
    7240    465.48978   -7995.7238   -7943.7977    858.98989    27306.182     2.713092 
    7250    467.66427   -7995.8408   -7943.6721    824.27732    27295.372    2.7149248 
    7260     465.9394   -7995.5524   -7943.5761    829.22025    27288.152    2.7195654 
    7270    460.94208   -7994.9262   -7943.5074    748.43361    27284.432    2.7264032 
    7280    465.14281   -7995.3526   -7943.4653    467.01202    27283.778    2.7339659 
    7290    464.31247   -7995.2475   -7943.4528    253.73014    27285.094    2.7416124 
    7300    460.44173   -7994.8403   -7943.4774     222.1388     27287.53    2.7476813 
    7310    462.09645   -7995.0888   -7943.5413    217.36821    27290.864    2.7511099 
    7320    465.25765   -7995.5561    -7943.656    309.27781    27295.102    2.7530419 
    7330    465.72618   -7995.7925   -7943.8401    369.45526    27300.568    2.7550125 
    7340    465.65804   -7996.0519   -7944.1071    310.22667    27307.465    2.7576654 
    7350    465.48854   -7996.3873   -7944.4614    306.34162      27315.6    2.7618362 
    7360    461.87361   -7996.4179   -7944.8952    346.78913    27324.938    2.7678343 
    7370    453.93036   -7996.0163   -7945.3797    324.56888    27335.593    2.7741616 
    7380     444.4957    -7995.455   -7945.8708    331.29786    27347.504    2.7792482 
    7390    436.42823   -7995.0088   -7946.3246    353.66472    27360.683    2.7816182 
    7400     437.4582     -7995.52   -7946.7209    214.92235    27375.127    2.7810989 
    7410    438.36908   -7995.9559   -7947.0552   -51.519281    27390.264    2.7796918 
    7420     436.4247   -7996.0132   -7947.3294   -342.08405    27405.017    2.7796337 
    7430    432.71111   -7995.8155   -7947.5459    -542.2093    27418.215    2.7820881 
    7440    431.55299   -7995.8488   -7947.7085   -644.39735    27429.041    2.7867742 
    7450    437.67333   -7996.6511   -7947.8279   -756.22599    27437.033    2.7925475 
    7460    440.28739    -7997.032   -7947.9172   -692.95788    27441.867    2.7985741 
    7470    437.55437   -7996.7902   -7947.9803   -543.25641    27443.786    2.8035261 
    7480    440.48355   -7997.1549   -7948.0183   -325.97313    27443.448    2.8054243 
    7490      443.496    -7997.509   -7948.0364   -126.53612     27441.75    2.8050893 
    7500     443.2863   -7997.4892     -7948.04   -24.319125    27439.507    2.8052809 
    7510    447.75489   -7997.9779   -7948.0301   -1.3531945    27437.163    2.8076976 
    7520     451.8897   -7998.4202   -7948.0112     65.90844    27434.862    2.8133431 
    7530    455.71154   -7998.8302   -7947.9949    133.79223     27432.85    2.8219419 
    7540    456.77559   -7998.9442   -7947.9902    185.96754    27431.412    2.8324308 
    7550     453.3945   -7998.5755   -7947.9987    224.64337    27430.763    2.8427318 
    7560    452.02256   -7998.4428    -7948.019    186.32099     27431.03    2.8506522 
    7570    444.73339   -7997.6546   -7948.0439    136.89802    27432.072     2.856057 
    7580    435.81146   -7996.6752   -7948.0598     29.93213    27433.652    2.8600812 
    7590    431.77806   -7996.2114   -7948.0459   -1.0379983    27435.396    2.8642846 
    7600    440.70507    -7997.157   -7947.9957    10.497544    27437.151    2.8691791 
    7610    447.07819   -7997.7893   -7947.9171    26.600903    27438.925    2.8744009 
    7620    442.51961   -7997.1829   -7947.8191    128.81283    27440.844    2.8792095 
    7630    449.62815   -7997.8574   -7947.7007    12.631161    27443.202    2.8827655 
    7640    457.62975   -7998.6144   -7947.5651   -123.23244    27445.617    2.8858744 
    7650    450.78269   -7997.7124   -7947.4269   -158.96028    27447.554    2.8894453 
    7660    441.39188   -7996.5157   -7947.2778   -217.47162    27448.809    2.8927337 
    7670    442.52874   -7996.4621   -7947.0974   -453.12284    27449.066    2.8948988 
    7680    445.26073   -7996.5474   -7946.8779   -624.25742    27447.451    2.8970226 
    7690    439.86796   -7995.6889    -7946.621   -483.46075     27443.35    2.9008954 
    7700    433.05738   -7994.6271   -7946.3189   -152.10618    27437.311    2.9065924 
    7710    427.89515     -7993.69   -7945.9576    75.165429    27430.619    2.9138269 
    7720    428.50345   -7993.3335   -7945.5333    238.32466    27424.272    2.9231872 
    7730    432.76085   -7993.3336   -7945.0585    328.11187    27418.929    2.9346112 
    7740    437.18242   -7993.3328   -7944.5645    340.06474    27414.966    2.9465041 
    7750    449.37892   -7994.2166   -7944.0877    260.98406    27412.396    2.9574617 
    7760    454.31946   -7994.3447   -7943.6647    375.19791    27411.011    2.9663816 
    7770    457.46622   -7994.3531    -7943.322    614.73271    27411.253    2.9722707 
    7780    453.42302   -7993.6356   -7943.0555    906.58994    27414.119    2.9756121 
    7790    454.93527    -7993.599   -7942.8503    1013.5809    27420.712    2.9780159 
    7800    459.89156    -7993.993   -7942.6914    1062.0584    27431.548    2.9823753 
    7810    460.15633   -7993.9061   -7942.5749    988.57338    27446.789    2.9894301 
    7820    467.06134   -7994.6019   -7942.5005    816.92981     27466.15    2.9964853 
    7830    469.89319   -7994.8877   -7942.4704    578.94804    27488.919    3.0016869 
    7840    469.16229   -7994.8194   -7942.4836    235.92565    27514.083    3.0043301 
    7850    473.50617   -7995.3573    -7942.537   -144.55107    27540.232    3.0037626 
    7860    471.55497   -7995.2376   -7942.6349   -391.45585    27565.807    3.0002301 
    7870      457.385   -7993.7913   -7942.7693   -385.44699    27589.826    2.9955351 
    7880    447.44507    -7992.826   -7942.9129   -456.24616     27612.16    2.9925452 
    7890    447.56464   -7992.9737   -7943.0471   -560.09781     27632.55    2.9932694 
    7900    452.92805   -7993.7008    -7943.176   -594.31442    27650.585     2.997635 
    7910    457.48459   -7994.3455   -7943.3124    -615.4468    27666.082    3.0037434 
    7920    461.24606   -7994.9209   -7943.4682   -658.94774    27678.943     3.008754 
    7930     464.1576   -7995.4302   -7943.6527   -832.22707    27688.926    3.0108604 
    7940     462.8199   -7995.4966   -7943.8683   -956.10913    27695.384    3.0101682 
    7950    460.74234   -7995.5124   -7944.1159    -1010.897    27697.762     3.007611 
    7960    457.05033     -7995.37   -7944.3853   -913.00838    27695.881    3.0043391 
    7970    458.44761   -7995.8138   -7944.6733    -820.1084    27690.083     3.001544 
    7980    452.03738   -7995.3971   -7944.9717   -697.16054    27680.785    3.0005354 
    7990    447.42956   -7995.1738   -7945.2623   -606.02157    27668.502    3.0002882 
    8000    455.27285   -7996.3318   -7945.5455   -653.66613    27653.578    2.9988157 
    8010    457.16868   -7996.8249   -7945.8271   -658.56663    27635.872    2.9961489 
    8020     458.9859   -7997.3088   -7946.1083   -552.64409    27615.403    2.9932148 
    8030    462.41415    -7997.975    -7946.392   -450.21131     27592.56    2.9916874 
    8040    460.82202   -7998.0836   -7946.6783   -198.50708    27567.863    2.9934844 
    8050     452.2397   -7997.4011   -7946.9531    126.80256     27542.36    2.9981223 
    8060    443.82326   -7996.7038   -7947.1946    408.42304    27517.384    3.0029146 
    8070    443.64543   -7996.8818   -7947.3925    520.95226    27494.069    3.0059891 
    8080    444.01678   -7997.0812   -7947.5505    524.26339    27472.925    3.0078442 
    8090    440.82819   -7996.8506   -7947.6755    555.02569    27454.011    3.0098643 
    8100    440.45538    -7996.902   -7947.7685    624.45787    27437.455    3.0125097 
    8110    452.61691   -7998.3308   -7947.8407    610.96971      27423.5    3.0149953 
    8120    457.45167   -7998.9431   -7947.9137    612.50369    27412.116    3.0179688 
    8130    444.06058   -7997.5235   -7947.9878    798.30384    27403.374    3.0223929 
    8140    435.24366   -7996.5952   -7948.0431    942.35086    27397.953     3.028287 
    8150    437.93546   -7996.9178   -7948.0654     1057.099    27396.484    3.0358748 
    8160    446.06284   -7997.8226   -7948.0636    977.46985    27399.359    3.0446124 
    8170    448.61498   -7998.0945   -7948.0508    680.51258    27406.263    3.0529379 
    8180    450.02199   -7998.2389   -7948.0383    387.04558    27416.036     3.060337 
    8190    443.68876   -7997.5165   -7948.0224    269.57829    27427.519    3.0685985 
    8200    447.80554   -7997.9518   -7947.9984    128.01244     27440.15    3.0786238 
    8210     458.5344   -7999.1225   -7947.9723   -37.788728    27453.346    3.0907698 
    8220     454.6651   -7998.6775   -7947.9589   -90.434511    27466.466    3.1048019 
    8230    447.05961   -7997.8254   -7947.9552   -137.37664     27479.24     3.118541 
    8240    447.11669   -7997.8238   -7947.9473   -306.83079    27491.396    3.1306114 
    8250    446.32155   -7997.7182   -7947.9304    -416.6481    27502.295    3.1413587 
    8260    442.26167    -7997.239   -7947.9041   -378.14219    27511.497    3.1509478 
    8270    438.99824   -7996.8312   -7947.8603    -334.0685    27519.109    3.1594001 
    8280    443.90226   -7997.3112   -7947.7932   -341.03831    27525.321    3.1671996 
    8290    451.49228   -7998.0715   -7947.7068   -379.53953    27530.101    3.1754923 
    8300    455.35211   -7998.4085   -7947.6132   -490.09539    27533.255    3.1853232 
    8310       458.47   -7998.6672   -7947.5242   -553.55209    27534.376    3.1968881 
    8320    461.81275   -7998.9638   -7947.4479   -526.99492    27533.201    3.2096532 
    8330    462.54222   -7998.9885   -7947.3913   -265.57032    27529.884    3.2226261 
    8340     458.1178   -7998.4585   -7947.3547    79.727846    27525.463     3.234716 
    8350    454.97531   -7998.0854   -7947.3322      192.656    27521.285    3.2456631 
    8360    456.41444   -7998.2331   -7947.3194    103.73437    27517.856    3.2561673 
    8370    457.74983   -7998.3821   -7947.3194   -115.72562    27514.817    3.2672914 
    8380    459.15843   -7998.5607   -7947.3409   -223.41018    27511.316    3.2791926 
    8390    458.52457   -7998.5396   -7947.3905   -1.7578461    27506.978    3.2914814 
    8400    459.04352   -7998.6822   -7947.4752    274.41972     27502.63    3.3040271 
    8410    457.72704   -7998.6613   -7947.6012    382.90209    27499.357    3.3168294 
    8420    452.43851   -7998.2393   -7947.7691     363.9125     27497.65    3.3298215 
    8430    443.84555   -7997.4791   -7947.9675    232.14148    27497.449    3.3428256 
    8440    433.23217   -7996.4999   -7948.1722    126.34109    27498.246    3.3547181 
    8450     428.0382   -7996.1053    -7948.357    142.78062    27499.632    3.3643192 
    8460    432.42426    -7996.746   -7948.5084     144.6498    27501.633    3.3720739 
    8470    443.38049   -7998.0928    -7948.633    142.38333    27504.275    3.3788197 
    8480    453.10743   -7999.2954   -7948.7506     154.4977    27507.556    3.3850842 
    8490    459.50073   -8000.1432   -7948.8852    185.05026     27511.53    3.3924489 
    8500    457.22071    -8000.051   -7949.0474    122.30697    27516.267    3.4031731 
    8510     452.2897   -7999.6876    -7949.234    26.714368    27521.544    3.4168599 
    8520    446.88085   -7999.2831   -7949.4328   -45.825428    27526.983     3.430141 
    8530    439.17226   -7998.6187   -7949.6284   -22.887244    27532.313    3.4399288 
    8540    428.68288   -7997.6206   -7949.8004    48.637264    27537.605    3.4455041 
    8550    421.93433    -7996.993   -7949.9256    32.289617    27543.116    3.4481872 
    8560    429.46302   -7997.9055   -7949.9982   -121.12648    27548.752    3.4504809 
    8570    434.69508   -7998.5162   -7950.0254   -178.16881    27553.962    3.4551031 
[...]
   22890    440.68339   -8001.6454   -7952.4865   -678.75871    28054.743    6.6078851 
   22900    437.33896   -8001.3765   -7952.5907   -633.98636    28038.076     6.623274 
   22910    438.48805    -8001.579    -7952.665   -539.65218    28018.751    6.6370335 
   22920     441.8628   -8002.0044    -7952.714   -534.29492     27997.15    6.6492584 
   22930    437.87302   -8001.5863   -7952.7409   -454.24848    27973.375    6.6623392 
   22940    441.75907   -8002.0231   -7952.7442   -337.07239    27947.772    6.6777255 
   22950    449.23895   -8002.8417   -7952.7284   -160.25743    27920.885    6.6959156 
   22960    452.31476    -8003.161   -7952.7046    28.949324    27893.472    6.7173744 
   22970    457.67221   -8003.7378   -7952.6837    135.89238    27866.336    6.7412576 
   22980    463.29943   -8004.3616   -7952.6798    226.10015    27839.962      6.76637 
   22990    459.89241   -8004.0027    -7952.701    360.69159    27814.736    6.7924853 
   23000    455.08789   -8003.5104   -7952.7446    441.25179    27791.181    6.8191022 
   23010    450.67264   -8003.0748   -7952.8016    500.27032    27769.676    6.8457738 
   23020    446.78322   -8002.7049   -7952.8656    521.80378    27750.428    6.8721435 
   23030    442.06136   -8002.2403   -7952.9277     641.9909    27733.586    6.8979363 
   23040    441.31965    -8002.211   -7952.9812     689.4578    27719.551    6.9224561 
   23050    440.65557   -8002.1813   -7953.0255    745.87634    27708.559     6.945279 
   23060    438.04919   -8001.9223   -7953.0573    851.75551    27700.846    6.9660487 
   23070    440.75736   -8002.2431    -7953.076     863.5109    27696.773    6.9826336 
   23080    441.55678   -8002.3374   -7953.0811    810.26707    27696.402    6.9916308 
   23090     439.3576     -8002.08    -7953.069    803.18807    27699.522    6.9911808 
   23100    438.56955    -8001.955   -7953.0319    885.10796    27706.111     6.981483 
   23110    439.45783   -8001.9784   -7952.9562    809.41062    27716.426    6.9642272 
   23120    448.55353   -8002.8755   -7952.8387    520.33143    27730.109    6.9420486 
   23130    450.28842   -8002.9119   -7952.6816    254.76404    27746.017    6.9172632 
   23140      447.684   -8002.4357   -7952.4959    99.536339    27763.037      6.89187 
   23150    436.05802   -8000.9201   -7952.2772    169.20953    27780.556     6.868196 
   23160    426.41711   -7999.5816   -7952.0142    293.47576     27798.81    6.8454375 
   23170    430.86564   -7999.7524   -7951.6887    196.92956    27818.231    6.8211259 
   23180    439.42447   -8000.3205    -7951.302   -118.61433    27838.403    6.7953203 
   23190     447.5034   -8000.8025   -7950.8828   -462.47339    27858.041    6.7690574 
   23200    456.00979   -8001.3338   -7950.4652   -775.31939     27875.66    6.7431707 
   23210    458.75548   -8001.2533   -7950.0784   -865.17726     27889.99    6.7187378 
   23220    460.72426   -8001.1346   -7949.7401   -803.48748    27900.601    6.6961862 
   23230    464.84787   -8001.3065    -7949.452   -743.65132    27907.718    6.6751895 
   23240    474.00289   -8002.0936   -7949.2179   -637.69115    27911.623    6.6547558 
   23250    481.20985   -8002.7282   -7949.0485   -467.44079    27912.778    6.6337965 
   23260    483.04518    -8002.839   -7948.9546   -237.74229    27911.943    6.6122041 
   23270     484.3252   -8002.9702    -7948.943   -56.592869    27910.065    6.5912083 
   23280    477.24897    -8002.246   -7949.0081    -6.718585    27907.907    6.5739622 
   23290    473.22976   -8001.9293   -7949.1398   -202.23457    27905.615    6.5627881 
   23300    465.26131   -8001.2202   -7949.3196    -296.2833    27902.496    6.5582837 
   23310    454.88569   -8000.2678   -7949.5246   -217.15834    27898.184    6.5589775 
   23320     454.9542    -8000.491   -7949.7401   -193.06559    27892.919     6.561677 
   23330    454.60657   -8000.6754   -7949.9634   -86.526923    27886.883    6.5638131 
   23340    450.81079   -8000.4777    -7950.189   -9.6542363    27880.504    6.5641124 
   23350    452.84281   -8000.9329   -7950.4176   -125.42528    27874.034    6.5621183 
   23360    451.79781   -8001.0488     -7950.65   -262.58412    27867.056    6.5585542 
   23370    450.73368   -8001.1639   -7950.8839   -431.04446    27858.952    6.5546818 
   23380    451.46642   -8001.4789   -7951.1171   -597.37266     27849.02    6.5513095 
   23390    447.84526    -8001.304   -7951.3462   -714.73956    27836.557    6.5479467 
   23400    439.90082    -8000.635   -7951.5634     -645.025    27821.114    6.5448988 
   23410    431.13617   -7999.8432   -7951.7493   -481.12059    27802.976    6.5435235 
   23420    426.49005   -7999.4671   -7951.8915   -373.92297    27782.804    6.5438594 
   23430    427.28751   -7999.6465    -7951.982   -306.44117    27761.084    6.5467233 
   23440    436.61685   -8000.7326   -7952.0273   -241.34461    27738.119    6.5528899 
   23450    442.89974   -8001.4451    -7952.039   -57.250189    27714.243    6.5623083 
   23460    447.96596   -8002.0041   -7952.0328    114.18673    27690.191    6.5747384 
   23470    448.15215   -8002.0102   -7952.0182      360.477     27666.74    6.5892831 
   23480    447.72473   -8001.9427   -7951.9983    638.12128    27644.912    6.6039344 
   23490    446.24481   -8001.7492   -7951.9699    824.68175    27625.835    6.6155916 
   23500    451.76555   -8002.3296   -7951.9345    860.48241    27610.255    6.6216748 
   23510    461.29487    -8003.363   -7951.9049    785.35498     27598.33    6.6228485 
   23520    463.01562   -8003.5478   -7951.8977    733.74876    27589.797    6.6235516 
   23530    466.48748   -8003.9636   -7951.9262    564.08849    27584.353    6.6270399 
   23540    468.56803   -8004.2705   -7952.0011    382.10537    27581.309    6.6332107 
   23550     460.1577   -8003.4583    -7952.127    424.25438    27579.979    6.6401971 
   23560    458.18811   -8003.4098   -7952.2982    525.31031    27580.479    6.6449233 
   23570    462.23122   -8004.0835   -7952.5209    494.30702    27583.153    6.6451623 
   23580    456.85717   -8003.7691    -7952.806    445.23556    27587.916    6.6421173 
   23590    449.51767   -8003.2934   -7953.1491    393.03767    27594.561    6.6381629 
   23600    443.15633   -8002.9705   -7953.5357    396.35286      27602.9    6.6354648 
   23610    434.43237   -8002.4044   -7953.9428    344.07684    27612.886    6.6359059 
   23620    429.19778   -8002.2176   -7954.3399    262.23017    27624.334    6.6393702 
   23630    434.02874   -8003.1261   -7954.7096    80.347034    27636.852    6.6436348 
   23640    440.27678   -8004.1654   -7955.0519   -131.79346    27649.686     6.647345 
   23650    438.68052   -8004.3003   -7955.3649   -256.13205    27661.985    6.6502935 
   23660    437.61746   -8004.4599    -7955.643   -315.37372    27673.199    6.6527168 
   23670    438.79003   -8004.8322   -7955.8845    -280.6011    27683.098    6.6559875 
   23680    437.02096   -8004.8398   -7956.0894   -166.02488    27691.828    6.6599254 
   23690    437.96942   -8005.1159   -7956.2597   -79.091521    27699.844    6.6632816 
   23700    432.45736   -8004.6344   -7956.3931    55.838196    27707.557    6.6668302 
   23710    425.06642   -8003.8979   -7956.4811    220.02756    27715.539    6.6718506 
   23720    423.70026   -8003.7813   -7956.5169    285.12376    27724.433     6.679124 
   23730    420.40675    -8003.392    -7956.495    324.42253    27734.562    6.6890356 
   23740    424.44664    -8003.764   -7956.4163    157.49947    27746.004    6.7008934 
   23750    432.52781   -8004.5352   -7956.2861   -108.38776    27758.107    6.7145053 
   23760    437.71094   -8004.9466   -7956.1193   -320.84812    27769.797    6.7297678 
   23770    441.38358   -8005.1675   -7955.9305    -442.4873     27780.16    6.7452176 
   23780    445.95198    -8005.478   -7955.7314   -488.96524    27788.656    6.7607304 
   23790    449.65176   -8005.6916   -7955.5323   -407.16177    27795.112    6.7790696 
   23800    454.48747   -8006.0444   -7955.3457   -249.29952    27799.851    6.8024388 
   23810    455.31158   -8005.9713   -7955.1806   -91.198662    27803.533    6.8304371 
   23820    452.97628   -8005.5714   -7955.0412    37.982334     27806.82    6.8620765 
   23830    443.88916   -8004.4345    -7954.918    93.274253    27810.251    6.8962528 
   23840    443.20185    -8004.238   -7954.7981   -75.050684    27814.006    6.9307304 
   23850    444.53032   -8004.2652   -7954.6772   -274.70211    27817.442    6.9650104 
   23860    430.66255   -8002.5945   -7954.5535   -368.47087    27819.752    7.0007715 
   23870    421.83999    -8001.469   -7954.4121   -510.04618    27820.445    7.0388827 
   23880    424.52206    -8001.595   -7954.2389   -563.94179    27818.973    7.0786627 
   23890    429.37421   -8001.9392   -7954.0419   -566.33913    27815.066    7.1186931 
   23900    432.52025   -8002.0864   -7953.8381   -547.32744    27808.711    7.1582875 
   23910    437.35684   -8002.4277   -7953.6399   -572.46611    27799.956    7.1982483 
   23920    445.06462   -8003.1043   -7953.4567   -495.64358    27788.731     7.240503 
   23930    444.77784   -8002.9108   -7953.2952   -197.26686    27775.412    7.2864899 
   23940    438.25537   -8002.0373   -7953.1492    125.69461    27761.213    7.3348046 
   23950    439.35674   -8002.0167   -7953.0057    310.97605     27747.46    7.3814402 
   23960    447.81199   -8002.8188   -7952.8647    396.71147    27734.961    7.4259032 
   23970     448.7126   -8002.7905   -7952.7359    510.84087    27724.143    7.4717377 
   23980    443.12434    -8002.051   -7952.6198     550.5005    27715.463    7.5170875 
   23990    441.43201   -8001.7458   -7952.5034    532.43966    27709.112    7.5556354 
   24000    444.13117   -8001.9228   -7952.3793    487.34239    27705.016    7.5868934 
   24010    446.90161   -8002.1036    -7952.251    464.30313    27703.013    7.6155953 
   24020    447.80232   -8002.0759   -7952.1229    510.66284    27703.032    7.6438322 
   24030    453.60923   -8002.5987   -7951.9979    584.35898    27705.257    7.6699055 
   24040    456.81812   -8002.8416   -7951.8829    556.38854    27709.948     7.692656 
   24050    450.76187   -8002.0654   -7951.7823    540.45088    27717.068    7.7091193 
   24060    448.63864   -8001.7359   -7951.6896    454.86236    27726.513    7.7149725 
   24070    449.35289   -8001.7227   -7951.5967    334.61739    27737.944    7.7115351 
   24080    447.10372   -8001.3749   -7951.4998    220.99493    27750.871    7.7056732 
   24090    448.81523    -8001.463    -7951.397    136.73805    27764.837    7.7031051 
   24100    447.32849   -8001.1874   -7951.2873    120.52926    27779.486    7.7039573 
   24110    446.44137   -8000.9714   -7951.1702    74.786021    27794.729    7.7038582 
   24120    451.19451   -8001.3734    -7951.042   -129.59925    27810.298    7.6997384 
   24130    459.35916   -8002.1524   -7950.9102   -285.31197    27825.417    7.6908063 
   24140     468.5266   -8003.0583   -7950.7934   -357.78473    27839.417      7.67821 
   24150     471.6776   -8003.3297   -7950.7133   -350.11423    27851.982    7.6661818 
   24160    468.31508   -8002.9214   -7950.6801   -412.43142    27863.083    7.6593102 
   24170    463.63539    -8002.407   -7950.6878   -493.39004    27872.471    7.6602681 
   24180     462.4446   -8002.3178   -7950.7314    -578.3528     27879.77    7.6678711 
   24190    454.20665   -8001.4695   -7950.8021   -557.50098    27884.651    7.6776759 
   24200    454.20277     -8001.56    -7950.893   -517.14024    27887.139    7.6852283 
   24210    460.30478   -8002.3547    -7951.007   -440.59865    27887.401    7.6894275 
   24220    462.01247   -8002.6983   -7951.1601   -398.90488    27885.718    7.6912637 
   24230    456.62482   -8002.2971   -7951.3599   -310.61734    27882.308    7.6918027 
   24240    451.15453   -8001.9264   -7951.5994   -251.25461    27877.506    7.6931829 
   24250    449.86691   -8002.0552   -7951.8718   -221.74224    27871.581    7.6985779 
   24260    446.92478   -8002.0287   -7952.1736   -163.22023    27864.675    7.7085265 
   24270    439.90883   -8001.5636   -7952.4911   -90.509034    27857.022    7.7182028 
   24280    442.36372   -8002.1592   -7952.8128   -59.306929    27848.914    7.7209588 
   24290    449.30232   -8003.2649   -7953.1446   -45.960408    27840.476    7.7157783 
   24300    450.90626   -8003.7926   -7953.4933   -18.450801    27831.766    7.7058084 
   24310    445.77896   -8003.5796   -7953.8523   -6.7434057    27822.886    7.6925072 
   24320    437.49624   -8003.0004    -7954.197   -18.645741    27813.879    7.6766895 
   24330    440.02037   -8003.5956   -7954.5107   -76.624189    27804.695    7.6610541 
   24340    448.91373   -8004.8796   -7954.8026   -93.338839    27795.123    7.6467363 
   24350    444.98632    -8004.717   -7955.0781    33.002332    27785.124    7.6320328 
   24360    436.08138   -8003.9625    -7955.317    173.59129    27775.208    7.6138937 
   24370    438.88192   -8004.4687   -7955.5108    81.986659     27765.88    7.5897923 
   24380    441.12901   -8004.8735   -7955.6649   -153.39694    27756.785    7.5615978 
   24390    436.30482   -8004.4559   -7955.7855   -265.78017    27747.016    7.5357281 
   24400    425.71892    -8003.352   -7955.8624   -231.02317    27736.084    7.5170137 
   24410    426.16241   -8003.4238   -7955.8848   -192.27597    27724.095    7.5048304 
   24420    434.98585   -8004.3818   -7955.8585   -178.39058     27711.19    7.4965166 
   24430    438.66223   -8004.7335      -7955.8   -16.463048    27697.494    7.4891464 
   24440    440.32198     -8004.84   -7955.7214    131.06973    27683.614    7.4808093 
   24450    443.24322   -8005.0724   -7955.6279    265.97221    27670.203    7.4715461 
   24460     445.8326   -8005.2608   -7955.5275    410.42861    27657.857     7.462011 
   24470    442.75497   -8004.8136   -7955.4236    465.95547    27647.167    7.4526071 
   24480    443.52374   -8004.7919   -7955.3161    339.29134    27638.341    7.4411379 
   24490     445.8452   -8004.9385   -7955.2038    136.84368    27630.887    7.4244884 
   24500    448.86605   -8005.1635   -7955.0919    89.473627    27624.042    7.4020929 
   24510    451.50208   -8005.3515   -7954.9857    220.17468    27617.621    7.3765187 
   24520    450.19911   -8005.1091   -7954.8888    368.01078    27612.127     7.352793 
   24530    447.26712    -8004.692   -7954.7987    405.72073    27608.137    7.3338721 
   24540    442.58385     -8004.08   -7954.7091    391.38148    27605.848    7.3187572 
   24550    442.60839   -8003.9894   -7954.6158    381.92432    27605.211    7.3055244 
   24560    439.43297   -8003.5345   -7954.5151    521.16256    27606.265    7.2931986 
   24570    436.85546   -8003.1369    -7954.405    662.84398    27609.554    7.2792462 
   24580    447.73031   -8004.2321   -7954.2871    657.62741    27615.635     7.262203 
   24590    459.57161    -8005.444   -7954.1781    616.28904    27624.563    7.2444827 
   24600     462.9165   -8005.7432   -7954.1041    548.60704    27636.153    7.2279355 
   24610    455.57584   -8004.8886   -7954.0684     548.9591    27650.179    7.2119678 
   24620    453.44964   -8004.6376   -7954.0546    580.18022    27666.643     7.194223 
   24630    459.65104   -8005.3287   -7954.0539    457.90216    27685.589     7.174562 
   24640    457.49023   -8005.1001   -7954.0663    249.32468    27706.556    7.1564473 
   24650    451.58286     -8004.46   -7954.0852     5.977578     27728.67    7.1429907 
   24660    446.55205   -8003.9103   -7954.0968   -160.33346    27750.939     7.135306 
   24670    444.76632   -8003.7104   -7954.0961   -285.12906    27772.621    7.1326555 
   24680    444.70346   -8003.6917   -7954.0843   -370.80694    27793.175    7.1337047 
   24690     445.2274   -8003.7283   -7954.0625   -429.28759    27812.212    7.1371867 
   24700    445.04739   -8003.6791   -7954.0334    -486.8847    27829.457    7.1422297 
   24710    439.03064   -8002.9685    -7953.994   -486.24085    27844.686     7.149325 
   24720    436.48603   -8002.6302   -7953.9395    -523.2777    27857.843    7.1579988 
   24730    432.26608    -8002.081   -7953.8611   -583.61803    27868.763    7.1664888 
   24740    429.89201   -8001.7068   -7953.7517   -655.25892    27877.195    7.1720667 
   24750    439.16382   -8002.5989   -7953.6095   -916.12648    27882.742    7.1743239 
   24760    449.22993   -8003.5607   -7953.4485   -1139.3984    27884.344    7.1760185 
   24770    448.14033   -8003.2818   -7953.2911   -998.47731    27881.139    7.1800398 
   24780    440.67202    -8002.296   -7953.1384   -581.94523    27873.689    7.1864779 
   24790    441.91932   -8002.2731   -7952.9763   -224.59351    27863.656    7.1946796 
   24800     450.8137   -8003.0908   -7952.8018   -17.951983    27852.569    7.2053331 
   24810     456.9478   -8003.6023    -7952.629    123.31708    27841.356    7.2188631 
   24820    462.21206   -8004.0343   -7952.4738    223.55784    27830.633    7.2347741 
   24830    465.17327   -8004.2365   -7952.3457    231.20106    27820.807    7.2527127 
   24840    462.10226   -8003.8006   -7952.2524     259.0174    27811.945    7.2716302 
   24850    450.25328   -8002.4114    -7952.185    484.05303    27804.254    7.2895512 
   24860    447.01517   -8001.9872    -7952.122    744.94564    27798.649    7.3040384 
   24870    459.32868   -8003.2966   -7952.0578    822.15295    27796.166    7.3134469 
   24880    461.15735   -8003.4542   -7952.0114    815.39638    27797.197    7.3183946 
   24890    452.21813   -8002.4372   -7951.9916    861.71331     27801.79    7.3206205 
   24900    448.60325   -8002.0261   -7951.9837    882.66002    27810.135    7.3204919 
   24910     442.5407   -8001.3372   -7951.9711    786.22376    27822.305    7.3172795 
   24920    436.34208   -8000.6146     -7951.94     488.1396    27837.866     7.312027 
   24930     437.5094   -8000.6781   -7951.8733    12.095233    27855.559    7.3054838 
   24940    439.84214   -8000.8262   -7951.7612   -370.37343    27873.439    7.2966715 
   24950    439.26429    -8000.605   -7951.6044   -578.74054    27889.855     7.285242 
   24960    439.89714   -8000.4697   -7951.3985   -647.13122    27903.885    7.2718988 
   24970    446.54401    -8000.944   -7951.1313   -709.64712    27915.166    7.2578737 
   24980    462.39913   -8002.3782   -7950.7969   -881.95414    27923.357    7.2444436 
   24990    475.11699   -8003.4134   -7950.4134   -939.67387    27927.774    7.2338334 
   25000    474.48695   -8002.9492   -7950.0195    -880.3957    27928.148    7.2284362 
Loop time of 12287.6 on 16 procs for 20000 steps with 864 atoms

Performance: 0.141 ns/day, 170.660 hours/ns, 1.628 timesteps/s
97.1% CPU use with 16 MPI tasks x 1 OpenMP threads

MPI task timing breakdown:
Section |  min time  |  avg time  |  max time  |%varavg| %total
---------------------------------------------------------------
Pair    | 7609.8     | 10011      | 12068      |1583.7 | 81.47
Bond    | 0.0018172  | 0.0045838  | 0.008914   |   3.0 |  0.00
Neigh   | 0.20825    | 0.23751    | 0.256      |   2.8 |  0.00
Comm    | 203.46     | 2013.4     | 4574.6     |3547.5 | 16.39
Output  | 1.6668     | 1.6921     | 2.0606     |   7.3 |  0.01
Modify  | 14.529     | 261.38     | 650.31     |1392.8 |  2.13
Other   |            | 0.09223    |            |       |  0.00

Nlocal:        54.0000 ave          64 max          47 min
Histogram: 2 1 4 2 2 1 2 0 1 1
Nghost:        415.188 ave         456 max         387 min
Histogram: 4 3 1 0 1 1 1 4 0 1
Neighs:         0.00000 ave           0 max           0 min
Histogram: 16 0 0 0 0 0 0 0 0 0
FullNghs:      1625.25 ave        2023 max        1262 min
Histogram: 1 1 3 2 3 1 0 3 0 2

Total # of neighbors = 26004
Ave neighs/atom = 30.097222
Ave special neighs/atom = 0.0000000
Neighbor list builds = 2000
Dangerous builds = 2000
Total wall time: 4:15:42
