LAMMPS (2 Aug 2023)
OMP_NUM_THREADS environment is not set. Defaulting to 1 thread. (src/comm.cpp:98)
  using 1 OpenMP thread(s) per MPI task
Reading restart file ...
  restart file = 2 Aug 2023, LAMMPS = 2 Aug 2023
  restoring atom style full from restart
  orthogonal box = (-0.38706367 -0.34859865 -23.970409) to (20.724042 20.685577 84.981345)
  1 by 1 by 1 MPI processor grid
  pair style chgnet/gpu stores no restart info
  1536 atoms
Finding 1-2 1-3 1-4 neighbors ...
  special bond factors lj:    0        0        0       
  special bond factors coul:  0        0        0       
     0 = max # of 1-2 neighbors
     0 = max # of 1-3 neighbors
     0 = max # of 1-4 neighbors
     1 = max # of special neighbors
  special bonds CPU = 0.001 seconds
  read_restart CPU = 0.085 seconds
Resetting peratom fix info from restart file:
  fix style: STORE/ATOM, fix ID: msd_COMPUTE_STORE
All restart file peratom fix info was re-assigned
Neighbor list info ...
  update: every = 1 steps, delay = 10 steps, check = yes
  max neighbors/atom: 2000, page size: 100000
  master list distance cutoff = 6.3
  ghost atom cutoff = 6.3
  binsize = 3.15, bins = 7 7 35
  1 neighbor lists, perpetual/occasional/extra = 1 0 0
  (1) pair chgnet/gpu, perpetual
      attributes: full, newton on
      pair build: full/bin
      stencil: full/bin/3d
      bin: standard
Setting up Verlet run ...
  Unit style    : metal
  Current step  : 20000
  Time step     : 0.001
Per MPI rank memory allocation (min/avg/max) = 6.575 | 6.575 | 6.575 Mbytes
   Step          Temp          PotEng         TotEng         Press          Volume        c_msd[4]   
     20000   1521.5156     -5661.2351     -5359.3446     -7767.4199      48380.541      223.43501    
     20010   1539.1875     -5664.8119     -5359.415      -7909.2262      48380.82       223.68597    
     20020   1530.8063     -5663.3328     -5359.5989     -7978.3395      48381.535      223.94995    
     20030   1522.4447     -5661.9723     -5359.8975     -7872.5631      48382.571      224.22609    
     20040   1502.7973     -5658.4479     -5360.2714     -7566.6062      48384.128      224.51771    
     20050   1477.7232     -5653.8831     -5360.6816     -7575.2882      48386.607      224.83234    
     20060   1494.288      -5657.5616     -5361.0735     -8286.3075      48390.146      225.17374    
     20070   1491.4566     -5657.3903     -5361.4639     -8564.375       48394.182      225.55329    
     20080   1468.7675     -5653.2656     -5361.8411     -7970.7793      48398.405      225.93135    
     20090   1485.1978     -5656.8655     -5362.181      -7682.7401      48403.222      226.2826     
     20100   1509.6313     -5662.0638     -5362.5314     -8107.8863      48408.781      226.60389    
     20110   1507.7182     -5662.1151     -5362.9622     -8549.0808      48414.962      226.92308    
     20120   1533.0023     -5667.7068     -5363.5372     -8761.8559      48421.601      227.25605    
     20130   1528.8903     -5667.6812     -5364.3274     -8394.5877      48428.776      227.61513    
     20140   1510.5721     -5665.1052     -5365.3861     -7928.3869      48436.794      228.01191    
     20150   1503.796      -5665.0378     -5366.6632     -7590.6944      48445.699      228.44046    
     20160   1487.5669     -5663.306      -5368.1514     -7439.1118      48455.237      228.88816    
     20170   1486.2435     -5664.6782     -5369.7862     -7751.5825      48465.275      229.33307    
     20180   1505.1823     -5670.23       -5371.5803     -8522.1285      48475.868      229.75275    
     20190   1495.0581     -5670.1194     -5373.4784     -8716.408       48486.923      230.15515    
     20200   1497.0978     -5672.4573     -5375.4116     -8725.1412      48498.38       230.57285    
     20210   1469.5392     -5668.7673     -5377.1897     -8366.5389      48510.009      230.99838    
     20220   1448.6536     -5666.1222     -5378.6886     -8194.2763      48521.445      231.45856    
     20230   1470.6616     -5671.7249     -5379.9245     -8465.3073      48532.478      231.95159    
     20240   1456.5552     -5669.889      -5380.8876     -8876.176       48543.39       232.4101     
     20250   1443.8665     -5668.0906     -5381.6068     -9359.6031      48554.428      232.8038     
     20260   1459.7392     -5671.7274     -5382.0942     -10003.047      48565.321      233.17423    
     20270   1444.4474     -5668.9962     -5382.3972     -10071.452      48575.63       233.52484    
     20280   1432.2621     -5666.7338     -5382.5524     -9652.1013      48585.291      233.84518    
     20290   1418.5467     -5663.9641     -5382.5041     -9175.9234      48594.366      234.16929    
     20300   1423.3883     -5664.6914     -5382.2708     -8832.5833      48602.804      234.48805    
     20310   1452.8781     -5670.1384     -5381.8666     -8671.1593      48610.728      234.80105    
     20320   1455.8595     -5670.252      -5381.3886     -8079.8212      48618.255      235.14286    
     20330   1445.7657     -5667.7196     -5380.859      -7884.8453      48625.739      235.50535    
     20340   1448.1756     -5667.6079     -5380.2691     -8217.0972      48633.618      235.86798    
     20350   1445.2934     -5666.3866     -5379.6197     -8352.5382      48642.256      236.23331    
     20360   1463.5132     -5669.2727     -5378.8907     -8788.5453      48651.821      236.6286     
     20370   1477.9398     -5671.3792     -5378.1347     -9225.8314      48661.81       237.05151    
     20380   1460.7745     -5667.2417     -5377.4031     -9045.2999      48671.651      237.48623    
     20390   1456.5752     -5665.6692     -5376.6638     -8763.5737      48681.534      237.9154     
     20400   1449.118      -5663.4126     -5375.8868     -8497.23        48691.853      238.32105    
     20410   1468.547      -5666.4565     -5375.0758     -8735.1929      48702.831      238.69773    
     20420   1463.7186     -5664.6749     -5374.2522     -8746.4981      48714.267      239.04053    
     20430   1456.5543     -5662.4377     -5373.4365     -8775.9733      48726.245      239.35021    
     20440   1474.6908     -5665.2239     -5372.6241     -8631.0509      48739.023      239.62297    
     20450   1446.1448     -5658.7566     -5371.8207     -8038.1681      48752.624      239.87923    
     20460   1487.038      -5666.0768     -5371.0271     -8518.6382      48767.091      240.15306    
     20470   1499.5998     -5667.8324     -5370.2903     -9030.8929      48781.954      240.4816     
     20480   1483.9869     -5664.1143     -5369.67       -9165.2159      48796.789      240.86768    
     20490   1481.8123     -5663.1735     -5369.1607     -9143.0703      48811.484      241.30053    
     20500   1470.0144     -5660.3727     -5368.7008     -9250.7866      48826.559      241.77782    
     20510   1496.5282     -5665.2649     -5368.3323     -9626.5126      48842.515      242.27604    
     20520   1473.9874     -5660.4767     -5368.0165     -9057.8218      48859.118      242.78378    
     20530   1442.8204     -5654.0233     -5367.7471     -8085.6794      48876.025      243.29461    
     20540   1448.8908     -5654.9044     -5367.4237     -7518.4676      48893.404      243.81909    
     20550   1487.1322     -5662.1375     -5367.0691     -7493.7127      48911.652      244.37138    
     20560   1496.1762     -5663.6349     -5366.7721     -7221.8924      48930.877      244.91129    
     20570   1499.4881     -5664.1307     -5366.6108     -7038.5655      48951.185      245.43233    
     20580   1481.8672     -5660.5602     -5366.5365     -7198.7864      48972.835      245.9859     
     20590   1468.2827     -5657.8773     -5366.549      -7984.3797      48995.814      246.57335    
     20600   1477.0004     -5659.6187     -5366.5606     -8819.8679      49019.355      247.16958    
     20610   1480.0545     -5660.2727     -5366.6087     -8804.3243      49042.65       247.75009    
     20620   1484.7697     -5661.3102     -5366.7106     -8562.9065      49065.588      248.31932    
     20630   1490.7529     -5662.7095     -5366.9227     -8324.5834      49088.356      248.89408    
     20640   1465.7812     -5658.0476     -5367.2156     -8052.023       49111.358      249.49243    
     20650   1468.4456     -5658.9349     -5367.5743     -8405.829       49135.247      250.10201    
     20660   1469.1002     -5659.4678     -5367.9773     -8627.994       49160.099      250.70902    
     20670   1431.2594     -5652.3904     -5368.408      -8383.9163      49185.267      251.3017     
     20680   1453.3925     -5657.1841     -5368.8102     -8610.2041      49210.496      251.89182    
     20690   1518.7847     -5670.6588     -5369.3102     -9437.9975      49235.651      252.48679    
     20700   1488.7973     -5665.4821     -5370.0834     -9245.1002      49260.349      253.08021    
     20710   1472.7596     -5663.4327     -5371.2161     -8993.4364      49284.856      253.66039    
     20720   1460.1159     -5662.3978     -5372.6899     -8927.3962      49309.354      254.21224    
     20730   1418.689      -5655.98       -5374.4918     -8876.6979      49333.574      254.72112    
     20740   1382.4947     -5650.7047     -5376.398      -8846.0768      49357.108      255.1974     
     20750   1386.1895     -5653.3711     -5378.3312     -9043.2767      49379.569      255.67202    
     20760   1396.6637     -5657.2899     -5380.1718     -9129.4336      49400.901      256.18628    
     20770   1395.2817     -5658.6486     -5381.8047     -9046.051       49421.308      256.74336    
     20780   1408.3084     -5662.6439     -5383.2154     -9106.0357      49441.035      257.32552    
     20790   1397.8548     -5661.7723     -5384.4179     -9164.5516      49460.484      257.93119    
     20800   1388.1578     -5660.7444     -5385.314      -9169.1839      49479.997      258.52503    
     20810   1417.8705     -5667.252      -5385.9261     -9455.192       49499.302      259.07261    
     20820   1448.4726     -5673.7917     -5386.394      -9731.9987      49517.933      259.57825    
     20830   1421.5408     -5668.8212     -5386.7671     -9301.771       49535.963      260.05855    
     20840   1441.204      -5673.015      -5387.0595     -9534.543       49553.879      260.51165    
     20850   1461.9652     -5677.3627     -5387.2878     -9808.1516      49571.485      260.93706    
     20860   1450.8464     -5675.387      -5387.5183     -9511.1189      49588.196      261.3499     
     20870   1423.8127     -5670.2531     -5387.7482     -8991.4705      49604.127      261.74319    
     20880   1395.047      -5664.6885     -5387.8912     -8299.6612      49619.846      262.10162    
     20890   1394.0714     -5664.4647     -5387.861      -8136.858       49635.822      262.43911    
     20900   1413.0495     -5668.0496     -5387.6803     -8801.5218      49652.286      262.76099    
     20910   1403.8073     -5665.9211     -5387.3857     -9440.2839      49669.153      263.11473    
     20920   1386.5683     -5662.0452     -5386.9302     -9897.6054      49686.081      263.53511    
     20930   1372.2769     -5658.5845     -5386.3051     -10136.554      49702.613      264.00601    
     20940   1375.0735     -5658.3259     -5385.4917     -10233.96       49718.278      264.50281    
     20950   1401.2904     -5662.5385     -5384.5024     -10660.453      49733.015      264.99219    
     20960   1407.1924     -5662.6208     -5383.4137     -10423.986      49746.657      265.44264    
     20970   1400.022      -5660.0775     -5382.2931     -9832.4076      49759.189      265.83337    
     20980   1397.8711     -5658.5222     -5381.1646     -9751.0504      49770.838      266.17856    
     20990   1423.5861     -5662.5004     -5380.0405     -10319.218      49781.683      266.52349    
     21000   1450.5874     -5666.8561     -5379.0388     -10848.923      49791.282      266.87251    
     21010   1400.4149     -5656.0448     -5378.1824     -10065.748      49799.524      267.1994     
     21020   1395.3245     -5654.2899     -5377.4375     -9199.7587      49807.611      267.51829    
     21030   1414.4737     -5657.3698     -5376.7179     -8940.7788      49816.543      267.8427     
     21040   1404.6852     -5654.7305     -5376.0208     -8743.1541      49826.38       268.16243    
     21050   1402.8691     -5653.7183     -5375.3689     -8682.2376      49836.786      268.50476    
     21060   1415.1033     -5655.5046     -5374.7279     -8746.9152      49847.435      268.88835    
     21070   1410.9735     -5654.0233     -5374.066      -8737.4511      49858.099      269.29182    
     21080   1424.4184     -5656.0752     -5373.4502     -8932.6963      49868.598      269.69462    
     21090   1439.1997     -5658.4113     -5372.8534     -9131.8292      49878.662      270.0507     
     21100   1440.0779     -5658.0667     -5372.3346     -9163.1439      49888.402      270.33641    
     21110   1440.9964     -5657.7938     -5371.8795     -9344.1656      49898.117      270.57822    
     21120   1446.4539     -5658.4629     -5371.4657     -9437.0328      49907.41       270.82808    
     21130   1452.0378     -5659.2268     -5371.1217     -9487.4097      49916.008      271.08697    
     21140   1443.9757     -5657.3492     -5370.8438     -9280.9861      49923.776      271.3026     
     21150   1453.2771     -5659.0056     -5370.6546     -9445.6214      49930.644      271.48859    
     21160   1435.5799     -5655.3567     -5370.5171     -9399.1495      49936.462      271.68111    
     21170   1427.4566     -5653.6311     -5370.4033     -9386.5336      49941.198      271.89814    
     21180   1427.9884     -5653.6293     -5370.2959     -9464.8397      49944.814      272.1103     
     21190   1455.8788     -5659.0723     -5370.2051     -9449.9251      49947.366      272.28696    
     21200   1444.4517     -5656.7699     -5370.17       -8976.4814      49949.169      272.46238    
     21210   1462.8872     -5660.4888     -5370.231      -9103.9377      49950.577      272.63497    
     21220   1467.6553     -5661.6222     -5370.4184     -9511.1187      49951.314      272.81379    
     21230   1467.2635     -5661.8807     -5370.7546     -9466.9016      49951.208      272.99476    
     21240   1441.7502     -5657.3445     -5371.2806     -9055.1999      49950.451      273.14101    
     21250   1411.7351     -5651.9509     -5371.8425     -8839.1758      49949.599      273.25793    
     21260   1433.5192     -5656.8695     -5372.4388     -9068.5333      49949.304      273.37057    
     21270   1436.3556     -5658.1018     -5373.1083     -8850.5761      49949.296      273.49927    
     21280   1423.2859     -5656.2393     -5373.8389     -8665.0834      49948.946      273.63507    
     21290   1461.7426     -5664.7181     -5374.6875     -8981.6021      49948.287      273.79914    
     21300   1439.1005     -5661.2249     -5375.6867     -8744.4325      49947.391      274.0189     
     21310   1423.2294     -5659.1722     -5376.7832     -8797.9796      49946.494      274.27982    
     21320   1436.9021     -5663.0731     -5377.9712     -9283.9557      49945.009      274.52815    
     21330   1428.6929     -5662.7234     -5379.2502     -9354.7347      49942.26       274.68272    
     21340   1403.9608     -5659.1184     -5380.5525     -9021.0584      49938.672      274.75659    
     21350   1385.557      -5656.6791     -5381.7647     -8942.3232      49934.53       274.80385    
     21360   1407.6273     -5662.1609     -5382.8675     -9241.096       49929.68       274.78529    
     21370   1404.0543     -5662.4722     -5383.8877     -9358.0515      49923.99       274.71076    
     21380   1362.8332     -5655.1805     -5384.7749     -8728.6198      49917.565      274.64968    
     21390   1361.8119     -5655.6566     -5385.4536     -8620.7083      49910.521      274.64098    
     21400   1388.4495     -5661.3933     -5385.905      -9162.0233      49902.713      274.65038    
     21410   1393.3106     -5662.6967     -5386.2439     -9432.7413      49893.953      274.65919    
     21420   1386.3605     -5661.5651     -5386.4913     -9710.2465      49884.152      274.68437    
     21430   1363.1439     -5657.0845     -5386.6172     -9663.2438      49872.954      274.69354    
     21440   1361.377      -5656.704      -5386.5873     -9663.3257      49859.995      274.63672    
     21450   1385.113      -5661.2164     -5386.3902     -9719.3087      49845.441      274.51129    
     21460   1393.4538     -5662.5571     -5386.0759     -9449.7788      49829.891      274.35467    
     21470   1412.942      -5666.083      -5385.7351     -9250.1997      49813.91       274.22917    
     21480   1415.2616     -5666.2024     -5385.3942     -9335.3944      49797.672      274.16542    
     21490   1400.7283     -5662.9933     -5385.0687     -9614.9734      49781.019      274.12599    
     21500   1407.4835     -5664.0231     -5384.7582     -10144.679      49763.672      274.04823    
     21510   1407.9253     -5663.7971     -5384.4446     -10299.996      49745.11       273.92114    
     21520   1422.9922     -5666.5173     -5384.1753     -10196.749      49725.503      273.76662    
     21530   1430.2202     -5667.7112     -5383.935      -9649.7246      49705.553      273.5781     
     21540   1439.1458     -5669.3269     -5383.7798     -8968.563       49686.003      273.38398    
     21550   1423.0609     -5666.0863     -5383.7306     -8562.1023      49666.807      273.23002    
     21560   1410.0311     -5663.5221     -5383.7517     -8705.6196      49647.564      273.07147    
     21570   1406.0731     -5662.7827     -5383.7977     -9421.5394      49628.147      272.87891    
     21580   1389.0733     -5659.441      -5383.829      -9917.3435      49608.212      272.6615     
     21590   1418.7133     -5665.3572     -5383.8641     -10646.881      49587.201      272.40242    
     21600   1391.0962     -5659.9091     -5383.8956     -10327.504      49564.474      272.09728    
     21610   1374.5076     -5656.6172     -5383.8952     -10066.726      49540.306      271.75971    
     21620   1408.0768     -5663.2046     -5383.822      -10627.275      49515.362      271.40935    
     21630   1395.0488     -5660.5312     -5383.7336     -10542.051      49489.838      271.07723    
     21640   1398.051      -5661.0461     -5383.6528     -10241.799      49463.789      270.76683    
     21650   1395.3875     -5660.4192     -5383.5543     -9777.6945      49437.452      270.48981    
     21660   1370.4584     -5655.3325     -5383.4139     -9155.277       49411.239      270.23688    
     21670   1409.0578     -5662.8193     -5383.2421     -9231.7494      49385.543      269.98027    
     21680   1426.1291     -5666.0706     -5383.1061     -9309.3757      49360.512      269.73066    
     21690   1404.3372     -5661.6757     -5383.0351     -8995.382       49335.979      269.53275    
     21700   1399.8818     -5660.7847     -5383.0281     -9071.0345      49311.726      269.36635    
     21710   1386.2049     -5658.0612     -5383.0182     -9028.7781      49287.78       269.19923    
     21720   1359.6619     -5652.7273     -5382.9509     -9003.2125      49264.498      269.05942    
     21730   1384.59       -5657.5609     -5382.8384     -9528.0834      49241.767      268.9752     
     21740   1395.1471     -5659.5168     -5382.6997     -9664.1656      49219.114      268.90592    
     21750   1367.3168     -5653.8666     -5382.5713     -8968.8865      49196.852      268.78777    
     21760   1361.9808     -5652.6335     -5382.397      -8484.6516      49175.772      268.60396    
     21770   1365.6769     -5653.114      -5382.1442     -8291.8015      49156.257      268.38879    
     21780   1378.9373     -5655.4526     -5381.8517     -8730.9         49138.326      268.19412    
     21790   1404.9132     -5660.3295     -5381.5746     -9255.4428      49121.149      268.04688    
     21800   1406.6976     -5660.4507     -5381.3417     -9240.4419      49103.766      267.92235    
     21810   1433.6824     -5665.6802     -5381.217      -9291.7542      49085.871      267.80502    
     21820   1433.0208     -5665.5538     -5381.222      -9213.6738      49067.56       267.68308    
     21830   1425.6484     -5664.2457     -5381.3767     -8994.0006      49049.15       267.5488     
     21840   1432.2148     -5665.7996     -5381.6276     -8794.4378      49030.882      267.39753    
     21850   1477.6798     -5675.2983     -5382.1055     -9076.0427      49012.637      267.22189    
     21860   1483.9696     -5677.3458     -5382.905      -9055.7288      48994.314      267.03555    
     21870   1445.7225     -5670.8485     -5383.9965     -8632.3185      48976.51       266.89158    
     21880   1437.3681     -5670.494      -5385.2996     -8670.5539      48959.783      266.80564    
     21890   1429.6141     -5670.3875     -5386.7315     -9002.8561      48944.158      266.72273    
     21900   1406.5114     -5667.3036     -5388.2316     -9022.7297      48929.652      266.62281    
     21910   1385.1502     -5664.5204     -5389.6867     -8931.585       48916.345      266.54732    
     21920   1367.0799     -5662.2111     -5390.9628     -8877.604       48903.972      266.50607    
     21930   1388.3048     -5667.5511     -5392.0916     -8652.5337      48892.306      266.48481    
     21940   1393.3401     -5669.5642     -5393.1056     -8087.0012      48881.329      266.43948    
     21950   1410.8224     -5673.9976     -5394.0702     -7462.7046      48871.46       266.38206    
     21960   1397.3021     -5672.2551     -5395.0104     -7026.0496      48863.038      266.32457    
     21970   1424.5247     -5678.6027     -5395.9566     -7892.9412      48856.151      266.32541    
     21980   1406.3254     -5675.9857     -5396.9506     -8551.9287      48850.244      266.41096    
     21990   1352.4774     -5666.2181     -5397.8672     -8812.0116      48844.902      266.58824    
     22000   1369.0678     -5670.3248     -5398.6822     -9470.0697      48839.663      266.81262    
     22010   1359.5813     -5669.1379     -5399.3775     -9430.4781      48833.824      267.02483    
     22020   1326.6205     -5663.1306     -5399.9101     -8961.896       48827.483      267.20035    
     22030   1338.89       -5665.9211     -5400.2662     -8903.1917      48821.407      267.34356    
     22040   1369.9419     -5672.2983     -5400.4823     -9085.212       48816.027      267.46971    
     22050   1394.2685     -5677.3147     -5400.6719     -8934.6187      48811.263      267.54078    
     22060   1386.3566     -5675.9773     -5400.9043     -8225.5813      48806.989      267.54517    
     22070   1367.9746     -5672.569      -5401.1432     -7709.9209      48803.221      267.55407    
     22080   1401.4794     -5679.4753     -5401.4018     -7879.7314      48800.355      267.5983     
     22090   1380.2756     -5675.566      -5401.6996     -7838.6937      48798.321      267.6487     
     22100   1363.7146     -5672.6331     -5402.0525     -8123.8823      48796.83       267.6618     
     22110   1379.5505     -5676.0948     -5402.3723     -8925.1225      48795.424      267.64077    
     22120   1377.3623     -5676.0161     -5402.7277     -9512.0599      48793.257      267.59957    
     22130   1367.5334     -5674.4491     -5403.1109     -9781.2718      48789.871      267.54172    
     22140   1387.443      -5678.8033     -5403.5148     -10182.179      48785.339      267.50127    
     22150   1364.2801     -5674.6296     -5403.9369     -9837.9813      48779.847      267.49536    
     22160   1345.7735     -5671.407      -5404.3862     -9393.0012      48773.547      267.4989     
     22170   1344.5034     -5671.5447     -5404.7759     -9178.2975      48766.714      267.49894    
     22180   1335.7627     -5670.1139     -5405.0794     -8651.9261      48759.595      267.47053    
     22190   1362.1472     -5675.5917     -5405.3222     -8631.6524      48752.334      267.43072    
     22200   1369.9496     -5677.3601     -5405.5425     -8649.8978      48744.971      267.40806    
     22210   1371.2299     -5677.8765     -5405.8048     -8699.1308      48737.835      267.43295    
     22220   1359.9075     -5675.9143     -5406.0892     -8672.6216      48731.197      267.48874    
     22230   1383.6544     -5680.9724     -5406.4356     -9061.1387      48724.906      267.54271    
     22240   1393.9888     -5683.4788     -5406.8914     -9537.5701      48718.485      267.585      
     22250   1367.9167     -5678.9073     -5407.4931     -9716.3845      48711.643      267.62175    
     22260   1364.45       -5678.9806     -5408.2542     -9879.723       48704.508      267.65431    
     22270   1358.9372     -5678.7404     -5409.1078     -9552.6113      48696.964      267.68126    
     22280   1356.9374     -5679.3226     -5410.0868     -9184.1832      48688.777      267.75148    
     22290   1379.5685     -5684.9319     -5411.2057     -9357.1582      48680.04       267.85822    
     22300   1374.4043     -5685.2113     -5412.5098     -9318.7056      48670.808      267.96255    
     22310   1358.8521     -5683.5699     -5413.9542     -9305.0768      48661.026      268.05385    
     22320   1358.6393     -5685.033      -5415.4595     -9637.6843      48650.315      268.11956    
     22330   1348.3198     -5684.5247     -5416.9987     -9880.6037      48638.289      268.16212    
     22340   1301.4844     -5676.6244     -5418.3912     -9730.5206      48625.149      268.14388    
     22350   1296.7374     -5676.8104     -5419.5192     -9625.927       48611.347      268.04169    
     22360   1315.3418     -5681.3643     -5420.3816     -9406.4052      48597.201      267.87884    
     22370   1314.7086     -5681.9048     -5421.0478     -9031.7086      48583.333      267.70145    
     22380   1301.1109     -5679.6467     -5421.4877     -8828.6561      48570.314      267.56263    
     22390   1333.805      -5686.4044     -5421.7584     -9440.3842      48557.856      267.47721    
     22400   1355.1152     -5690.8151     -5421.9408     -9950.9457      48545.205      267.4232     
     22410   1347.8032     -5689.541      -5422.1176     -10278.728      48531.786      267.38187    
     22420   1332.8959     -5686.7098     -5422.2442     -10282.237      48517.336      267.31688    
     22430   1333.9259     -5686.9907     -5422.3207     -10285.838      48502.03       267.20128    
     22440   1331.2164     -5686.4429     -5422.3105     -9736.2961      48486.215      267.05464    
     22450   1334.1731     -5686.9266     -5422.2076     -9203.7581      48470.541      266.93288    
     22460   1341.386      -5688.2446     -5422.0944     -8991.7839      48455.204      266.83286    
     22470   1315.6107     -5682.8965     -5421.8605     -8831.0582      48440.12       266.73883    
     22480   1348.292      -5689.0741     -5421.5537     -9376.207       48425.346      266.64464    
     22490   1319.1463     -5682.9166     -5421.1791     -9272.0092      48410.829      266.57453    
     22500   1310.1424     -5680.6707     -5420.7196     -9132.7375      48396.505      266.51001    
     22510   1334.5594     -5684.9227     -5420.127      -9132.7865      48381.992      266.41879    
     22520   1336.8311     -5684.6741     -5419.4276     -8876.4923      48367.174      266.31183    
     22530   1339.9012     -5684.4635     -5418.6079     -8871.2764      48352.478      266.21339    
     22540   1332.4362     -5682.0612     -5417.6867     -8918.0521      48338.586      266.14518    
     22550   1330.9409     -5680.7596     -5416.6819     -9198.6554      48325.846      266.13526    
     22560   1330.8412     -5679.6182     -5415.5602     -9509.2209      48314.148      266.14505    
     22570   1331.0991     -5678.436      -5414.3269     -9415.6926      48303.135      266.13396    
     22580   1305.4406     -5671.9966     -5412.9785     -8818.6564      48292.428      266.09785    
     22590   1324.8481     -5674.3802     -5411.5114     -8598.2996      48282.079      266.0444     
     22600   1387.5245     -5685.2545     -5409.9498     -8794.2872      48272.471      265.98584    
     22610   1421.4957     -5690.6213     -5408.5762     -8613.7056      48263.608      265.94321    
     22620   1409.3617     -5687.2255     -5407.5879     -8308.1148      48255.289      265.94962    
     22630   1411.3283     -5686.9973     -5406.9696     -8495.1081      48247.665      266.02948    
     22640   1415.8554     -5687.5909     -5406.665      -8753.6941      48240.596      266.17186    
     22650   1417.1281     -5687.8755     -5406.697      -8898.0849      48233.802      266.31791    
     22660   1394.3971     -5683.6113     -5406.943      -8901.0305      48227.221      266.43944    
     22670   1396.52       -5684.4591     -5407.3695     -8936.7478      48220.744      266.56445    
     22680   1363.6658     -5678.4316     -5407.8608     -8415.8022      48214.498      266.74319    
     22690   1353.8109     -5676.9653     -5408.3499     -8355.0067      48208.852      266.97626    
     22700   1335.1824     -5673.6771     -5408.7578     -8636.7642      48203.887      267.21269    
     22710   1364.688      -5679.9038     -5409.1302     -9455.0691      48199.22       267.41601    
     22720   1350.081      -5677.3663     -5409.4909     -9257.4564      48194.225      267.55826    
     22730   1337.5393     -5675.2581     -5409.8711     -8729.0929      48188.872      267.59886    
     22740   1354.9973     -5679.0524     -5410.2015     -8658.8909      48183.443      267.58625    
     22750   1375.0597     -5683.4026     -5410.5711     -8703.7079      48177.86       267.55364    
     22760   1366.7039     -5682.197      -5411.0234     -8708.101       48171.899      267.53861    
     22770   1364.2995     -5682.2589     -5411.5624     -9101.9102      48165.364      267.5636     
     22780   1361.6212     -5682.3534     -5412.1882     -9692.6327      48158.303      267.59979    
     22790   1342.049      -5679.1483     -5412.8666     -9962.9817      48150.386      267.64901    
     22800   1322.7709     -5675.9886     -5413.532      -9821.5931      48141.159      267.71229    
     22810   1335.4256     -5679.1245     -5414.157      -9564.0061      48130.441      267.74888    
     22820   1338.9336     -5680.4429     -5414.7793     -9063.028       48118.464      267.74429    
     22830   1345.7139     -5682.4109     -5415.402      -8646.7559      48105.918      267.72435    
     22840   1349.3961     -5683.7911     -5416.0516     -8187.885       48093.314      267.69927    
     22850   1376.9572     -5689.9867     -5416.7787     -8287.3376      48081.158      267.64015    
     22860   1375.8406     -5690.6334     -5417.6469     -8142.6116      48069.534      267.56832    
     22870   1362.6047     -5689.0228     -5418.6625     -8023.3424      48058.408      267.5006     
     22880   1343.082      -5686.2502     -5419.7635     -7831.3046      48047.613      267.44525    
     22890   1324.5061     -5683.6461     -5420.8451     -7897.6872      48037.264      267.3987     
     22900   1311.3279     -5682.0015     -5421.8152     -8477.4404      48027.316      267.36784    
     22910   1330.4873     -5686.6831     -5422.6954     -9519.4169      48017.273      267.35016    
     22920   1332.6316     -5687.9491     -5423.5359     -9906.4757      48006.752      267.31552    
     22930   1318.4145     -5685.9016     -5424.3093     -9694.0333      47995.575      267.27952    
     22940   1362.8292     -5695.4802     -5425.0754     -9846.5863      47983.589      267.23569    
     22950   1348.5867     -5693.4258     -5425.8469     -9470.5321      47970.625      267.13539    
     22960   1325.4868     -5689.6498     -5426.6542     -9211.586       47956.853      266.9942     
     22970   1307.4312     -5686.8135     -5427.4004     -9131.9078      47942.294      266.82995    
     22980   1308.0963     -5687.5869     -5428.0419     -9271.1653      47926.832      266.66748    
     22990   1309.2543     -5688.3442     -5428.5694     -9510.6232      47910.352      266.51597    
     23000   1317.4425     -5690.447      -5429.0476     -9715.7598      47892.622      266.34805    
     23010   1301.2165     -5687.629      -5429.449      -9714.9474      47873.698      266.1555     
     23020   1261.0834     -5679.9554     -5429.7384     -9031.2278      47853.852      265.98325    
     23030   1259.8023     -5679.8082     -5429.8454     -8616.8517      47833.484      265.84754    
     23040   1283.7385     -5684.4485     -5429.7364     -8664.1187      47812.691      265.72913    
     23050   1314.362      -5690.3251     -5429.5368     -8978.5999      47791.484      265.61827    
     23060   1326.1117     -5692.4396     -5429.32       -9061.1561      47770.189      265.50643    
     23070   1314.7323     -5689.9966     -5429.1349     -9106.9733      47749.166      265.3877     
     23080   1320.419      -5690.9685     -5428.9785     -9529.1274      47728.578      265.23616    
     23090   1286.6942     -5684.1017     -5428.8031     -9686.7147      47708.22       265.04333    
     23100   1248.2187     -5676.201      -5428.5366     -9587.4645      47687.922      264.8349     
     23110   1255.7377     -5677.248      -5428.0917     -9647.9821      47667.851      264.65641    
     23120   1272.6235     -5679.9529     -5427.4462     -9650.9234      47648.083      264.4946     
     23130   1290.7464     -5682.7859     -5426.6833     -9488.5028      47628.271      264.31969    
     23140   1316.1398     -5686.9933     -5425.8523     -9199.7808      47608.171      264.10076    
     23150   1327.4365     -5688.3918     -5425.0094     -8752.2018      47588          263.80544    
     23160   1344.3555     -5691.0209     -5424.2815     -8444.4555      47568.032      263.41498    
     23170   1341.2158     -5689.7725     -5423.656      -8276.7569      47548.301      262.98044    
     23180   1330.5159     -5687.1775     -5423.1841     -8674.6679      47528.739      262.61027    
     23190   1336.177      -5687.9718     -5422.8551     -9459.6136      47508.996      262.30748    
     23200   1313.5369     -5683.2385     -5422.614      -9600.1071      47488.895      262.05076    
     23210   1293.8915     -5679.1304     -5422.4038     -9203.2773      47468.544      261.81801    
     23220   1312.3918     -5682.5826     -5422.1853     -9038.6388      47448.104      261.5964     
     23230   1315.2088     -5682.9302     -5421.9739     -8965.2939      47427.4        261.37272    
     23240   1297.5482     -5679.2556     -5421.8035     -8643.1258      47406.307      261.11049    
     23250   1302.559      -5680.0664     -5421.62       -8390.3483      47385.049      260.81597    
     23260   1329.9027     -5685.3047     -5421.4329     -8651.8907      47363.861      260.53748    
     23270   1335.2534     -5686.27       -5421.3366     -8889.8713      47342.605      260.25138    
     23280   1309.5545     -5681.1691     -5421.3347     -8746.2093      47321.235      259.93601    
     23290   1302.5233     -5679.8097     -5421.3704     -8798.2064      47300.2        259.61745    
     23300   1317.9603     -5682.9141     -5421.4119     -9474.7656      47279.541      259.30238    
     23310   1333.5626     -5686.136      -5421.5381     -10056.94       47258.782      258.96391    
     23320   1315.8226     -5682.8115     -5421.7335     -9577.9544      47237.57       258.6237     
     23330   1323.4371     -5684.5759     -5421.9871     -8903.2372      47216.12       258.3494     
     23340   1341.3296     -5688.4343     -5422.2953     -8360.8117      47194.973      258.19759    
     23350   1355.4409     -5691.6603     -5422.7214     -8170.5711      47174.37       258.13776    
     23360   1369.3017     -5695.0129     -5423.3239     -8589.5073      47154.356      258.11433    
     23370   1336.3805     -5689.1829     -5424.0258     -8897.6252      47134.65       258.08847    
     23380   1327.1291     -5688.089      -5424.7676     -9517.3906      47115.14       258.02893    
     23390   1301.5568     -5683.6798     -5425.4323     -9650.8266      47095.784      257.9449     
     23400   1285.7754     -5681.0585     -5425.9422     -9719.7673      47076.543      257.8504     
     23410   1292.6478     -5682.7771     -5426.2973     -10066.056      47057.564      257.74013    
     23420   1307.0972     -5685.8928     -5426.546      -10223.608      47038.959      257.61368    
     23430   1331.1144     -5690.9004     -5426.7882     -10283.357      47020.836      257.46454    
     23440   1341.6774     -5693.3108     -5427.1028     -10064.133      47003.034      257.30908    
     23450   1328.4244     -5691.0963     -5427.5179     -9559.2011      46985.459      257.16653    
     23460   1315.1269     -5688.9324     -5427.9924     -9216.5861      46968.278      257.01862    
     23470   1314.36       -5689.288      -5428.5001     -9200.9711      46951.72       256.89174    
     23480   1275.7775     -5682.108      -5428.9755     -8697.2591      46935.574      256.78329    
     23490   1298.4123     -5687.0446     -5429.421      -8851.5914      46919.715      256.64614    
     23500   1317.9944     -5691.3776     -5429.8686     -8912.8877      46904.291      256.47874    
     23510   1309.679      -5690.2288     -5430.3697     -8674.719       46889.583      256.28123    
     23520   1333.9007     -5695.6505     -5430.9855     -8869.8536      46875.76       256.10405    
     23530   1331.6125     -5695.9402     -5431.7292     -8926.4585      46862.629      255.99526    
     23540   1340.7958     -5698.6556     -5432.6225     -9084.3747      46850.133      255.96104    
     23550   1339.5494     -5699.5045     -5433.7187     -9231.5924      46838          255.96933    
     23560   1318.556      -5696.5481     -5434.9277     -9192.3691      46825.831      255.96116    
     23570   1324.9368     -5699.1196     -5436.2332     -9400.7302      46813.339      255.8968     
     23580   1315.1851     -5698.53       -5437.5785     -9517.8751      46800.183      255.79121    
     23590   1318.1442     -5700.4633     -5438.9246     -9485.0793      46786.201      255.68174    
     23600   1329.9703     -5704.1682     -5440.2831     -9622.0321      46771.591      255.59021    
     23610   1318.0641     -5703.167      -5441.6442     -9546.8386      46756.622      255.49607    
     23620   1286.3778     -5698.1711     -5442.9354     -9379.1988      46741.452      255.41324    
     23630   1252.7434     -5692.6084     -5444.0462     -9190.9356      46726.117      255.34386    
     23640   1257.0112     -5694.3413     -5444.9323     -9228.1602      46710.711      255.25259    
     23650   1276.1883     -5698.8567     -5445.6427     -9122.7737      46695.34       255.13141    
     23660   1292.5167     -5702.7316     -5446.2778     -8614.7796      46680.324      255.00945    
     23670   1293.403      -5703.5303     -5446.9006     -8256.4618      46665.949      254.89573    
     23680   1278.3234     -5701.1693     -5447.5316     -8162.8893      46652.378      254.80358    
     23690   1272.2114     -5700.5182     -5448.0932     -8385.6913      46639.508      254.76179    
     23700   1286.1107     -5703.8097     -5448.6269     -8692.3261      46627.199      254.75933    
     23710   1300.0633     -5707.1158     -5449.1647     -8858.1681      46615.418      254.75592    
     23720   1291.1518     -5705.9572     -5449.7741     -8448.5644      46604.153      254.77728    
     23730   1255.6321     -5699.5093     -5450.3739     -7933.0941      46593.652      254.83723    
     23740   1255.6499     -5700.0509     -5450.912      -8240.7957      46584.06       254.84512    
     23750   1271.176      -5703.6152     -5451.3957     -8906.9625      46575.478      254.79098    
     23760   1249.7857     -5699.7795     -5451.8042     -9137.5134      46568.05       254.75685    
     23770   1229.7269     -5696.1321     -5452.1366     -8876.2628      46561.526      254.76274    
     23780   1245.55       -5699.4825     -5452.3476     -8895.8638      46555.517      254.7858     
     23790   1252.3171     -5700.9214     -5452.4437     -8887.0749      46549.702      254.82134    
     23800   1265.8863     -5703.6566     -5452.4866     -8945.7429      46543.884      254.88536    
     23810   1285.7869     -5707.6318     -5452.5133     -9204.6298      46537.803      254.97295    
     23820   1239.6488     -5698.5176     -5452.5535     -8565.031       46531.166      255.05546    
     23830   1236.818      -5697.9243     -5452.5219     -8248.8887      46524.363      255.12819    
     23840   1260.8871     -5702.5452     -5452.3671     -8251.5756      46517.761      255.16326    
     23850   1238.9436     -5697.984      -5452.1599     -7884.1002      46511.5        255.15405    
     23860   1228.7839     -5695.6293     -5451.8209     -7876.267       46505.65       255.12703    
     23870   1241.7355     -5697.7053     -5451.3272     -8501.3648      46500.439      255.12042    
     23880   1254.1921     -5699.5536     -5450.7039     -8909.492       46495.844      255.12164    
     23890   1267.3135     -5701.4055     -5449.9524     -9104.5532      46491.586      255.1028     
     23900   1277.8917     -5702.6924     -5449.1404     -9599.8957      46487.321      255.04014    
     23910   1275.3286     -5701.3319     -5448.2884     -9955.0578      46482.632      254.973      
     23920   1261.5697     -5697.7295     -5447.416      -9950.9589      46477.166      254.94343    
     23930   1251.1057     -5694.7321     -5446.4948     -9637.7798      46470.931      254.92201    
     23940   1258.7339     -5695.2202     -5445.4694     -9421.7926      46464.036      254.84566    
     23950   1281.1594     -5698.5776     -5444.3773     -9647.5771      46456.414      254.70034    
     23960   1268.2706     -5694.9338     -5443.2908     -9206.0009      46448.173      254.51921    
     23970   1262.072      -5692.6421     -5442.2289     -8921.1995      46439.751      254.3627     
     23980   1281.4741     -5695.4443     -5441.1815     -9253.4822      46431.31       254.27603    
     23990   1300.4654     -5698.2495     -5440.2185     -9517.3993      46422.602      254.24346    
     24000   1287.8578     -5694.932      -5439.4026     -9403.059       46413.299      254.23862    
     24010   1285.259      -5693.7568     -5438.743      -9371.6443      46403.348      254.21129    
     24020   1307.5896     -5697.642      -5438.1975     -9324.7032      46393.029      254.13393    
     24030   1306.3529     -5697.0205     -5437.8214     -8719.9634      46382.764      254.05394    
     24040   1330.3767     -5701.6274     -5437.6617     -8498.7941      46373.009      254.02036    
     24050   1319.1961     -5699.4855     -5437.7381     -8623.4669      46364.134      254.05683    
     24060   1304.1105     -5696.8052     -5438.051      -8655.3827      46356.459      254.1707     
     24070   1294.9144     -5695.4414     -5438.5119     -8726.147       46349.929      254.35841    
     24080   1303.795      -5697.7958     -5439.1042     -8885.9171      46344.156      254.60325    
     24090   1311.6638     -5700.1084     -5439.8555     -9128.5317      46338.759      254.85775    
     24100   1295.6733     -5697.8335     -5440.7533     -9123.3804      46333.467      255.05566    
     24110   1279.2275     -5695.5575     -5441.7404     -8883.2287      46328.505      255.21064    
     24120   1270.5654     -5694.813      -5442.7146     -8847.1714      46324.041      255.38169    
     24130   1277.1951     -5697.0667     -5443.6529     -9149.6472      46319.779      255.58074    
     24140   1272.5993     -5697.0425     -5444.5406     -9136.1481      46315.384      255.77579    
     24150   1255.9892     -5694.524      -5445.3178     -8828.6141      46310.774      255.9116     
     24160   1265.564      -5697.0835     -5445.9775     -8786.5743      46306.225      255.9535     
     24170   1300.3314     -5704.5641     -5446.5597     -9181.7507      46301.977      255.90083    
     24180   1334.4698     -5711.9945     -5447.2166     -9214.5746      46297.844      255.84429    
     24190   1310.927      -5708.0742     -5447.9675     -8764.924       46293.692      255.8815     
     24200   1283.3142     -5703.3984     -5448.7705     -8512.6137      46289.507      255.97898    
     24210   1270.5712     -5701.5934     -5449.4939     -8664.966       46285.246      256.07318    
     24220   1280.1583     -5704.2312     -5450.2295     -9207.8465      46280.816      256.12851    
     24230   1253.9195     -5699.6927     -5450.8972     -9488.7723      46276.178      256.1765     
     24240   1268.6058     -5703.2706     -5451.5611     -9733.662       46271.258      256.2065     
     24250   1250.002      -5700.1945     -5452.1761     -9346.4453      46265.941      256.22298    
     24260   1272.6562     -5705.3276     -5452.8144     -9547.7235      46260.217      256.25995    
     24270   1268.0525     -5705.0746     -5453.4748     -9402.9151      46254.002      256.34333    
     24280   1258.9583     -5703.9778     -5454.1824     -9075.6213      46247.395      256.48016    
     24290   1268.565      -5706.6259     -5454.9244     -8997.727       46240.434      256.6113     
     24300   1261.3686     -5705.9828     -5455.7092     -8844.5194      46232.983      256.69514    
     24310   1226.6281     -5699.8729     -5456.4923     -8337.3353      46225.264      256.74416    
     24320   1239.0176     -5703.0469     -5457.208      -8362.9962      46217.874      256.78879    
     24330   1260.2179     -5707.9362     -5457.8909     -8735.6568      46211.099      256.85766    
     24340   1255.056      -5707.6641     -5458.643      -8895.5044      46204.644      256.92101    
     24350   1205.3616     -5698.5154     -5459.3544     -8741.6245      46198.348      256.97194    
     24360   1203.3617     -5698.7281     -5459.964      -9374.1673      46192.321      257.00687    
     24370   1208.066      -5700.1311     -5460.4335     -9635.1728      46186.188      257.00252    
     24380   1224.2756     -5703.7189     -5460.8051     -9746.9368      46179.699      256.96256    
     24390   1248.5437     -5708.8766     -5461.1476     -9808.4302      46172.86       256.92442    
     24400   1243.1399     -5708.1548     -5461.498      -9338.0471      46165.716      256.90487    
     24410   1241.0573     -5708.1251     -5461.8816     -8859.7304      46158.631      256.92815    
     24420   1239.2116     -5708.1621     -5462.2848     -8410.6848      46152.15       256.99883    
     24430   1235.3293     -5707.8204     -5462.7134     -8620.3462      46146.768      257.11907    
     24440   1243.2277     -5709.8284     -5463.1542     -9376.6005      46142.428      257.24947    
     24450   1257.637      -5713.1865     -5463.6533     -10148.933      46138.62       257.37308    
     24460   1248.0473     -5711.8759     -5464.2454     -10083.896      46134.929      257.5111     
     24470   1230.6341     -5709.067      -5464.8916     -9444.8905      46131.219      257.66773    
     24480   1228.1484     -5709.2344     -5465.5521     -9036.0593      46127.563      257.84121    
     24490   1239.7968     -5712.2487     -5466.2552     -9179.4457      46123.926      258.04112    
     24500   1212.3618     -5707.4978     -5466.9479     -9036.4979      46119.983      258.26337    
     24510   1222.8229     -5710.2678     -5467.6422     -9383.316       46115.334      258.49564    
     24520   1231.5003     -5712.6735     -5468.3262     -9898.6675      46109.775      258.70618    
     24530   1219.0339     -5710.8761     -5469.0023     -10105.978      46103.405      258.81619    
     24540   1230.8188     -5713.8955     -5469.6834     -10039.85       46096.634      258.81635    
     24550   1239.1689     -5716.2612     -5470.3924     -9613.8183      46089.847      258.77459    
     24560   1235.863      -5716.3623     -5471.1494     -9387.7639      46083.394      258.75977    
     24570   1237.4611     -5717.4906     -5471.9606     -9694.8019      46077.398      258.80409    
     24580   1232.4929     -5717.3654     -5472.8211     -10204.431      46071.252      258.88489    
     24590   1221.2847     -5716.0378     -5473.7175     -10424.835      46064.538      259.00545    
     24600   1205.0986     -5713.6732     -5474.5644     -10145.718      46057.22       259.15843    
     24610   1215.6511     -5716.5516     -5475.349      -9934.1373      46049.715      259.30627    
     24620   1216.7054     -5717.5005     -5476.0887     -9652.9053      46042.541      259.42797    
     24630   1207.6867     -5716.4055     -5476.7832     -9336.7497      46035.683      259.52416    
     24640   1189.8204     -5713.4597     -5477.3823     -9104.1155      46028.936      259.58872    
     24650   1188.1684     -5713.6106     -5477.861      -9447.0747      46022.179      259.59827    
     24660   1193.4416     -5715.0011     -5478.2052     -9795.8433      46015.282      259.53337    
     24670   1192.464      -5715.0487     -5478.4468     -10025.299      46008.187      259.43133    
     24680   1194.2651     -5715.5457     -5478.5864     -10066.337      46000.7        259.351      
     24690   1209.8774     -5718.7159     -5478.6589     -9928.2281      45992.633      259.31432    
     24700   1200.9252     -5716.9673     -5478.6865     -9446.2246      45984.127      259.30196    
     24710   1182.1978     -5713.1873     -5478.6223     -9176.5953      45975.709      259.27959    
     24720   1180.7106     -5712.735      -5478.4651     -9383.4009      45967.96       259.2603     
     24730   1179.8379     -5712.2769     -5478.1801     -9622.7371      45960.953      259.2976     
     24740   1205.59       -5717.0226     -5477.8163     -10000.357      45954.19       259.3573     
     24750   1196.4563     -5714.8055     -5477.4115     -9747.044       45947.302      259.36636    
     24760   1171.4366     -5709.3831     -5476.9533     -9231.9518      45940.42       259.32073    
     24770   1197.9321     -5714.113      -5476.4262     -9287.4863      45933.401      259.24633    
     24780   1213.2975     -5716.5839     -5475.8483     -9275.9393      45925.905      259.16559    
     24790   1218.3658     -5717.0647     -5475.3235     -9321.0404      45917.796      259.11827    
     24800   1215.071      -5715.9719     -5474.8844     -9530.7454      45908.944      259.11628    
     24810   1212.2712     -5715.0546     -5474.5226     -9898.484       45899.162      259.11822    
     24820   1207.3839     -5713.7812     -5474.219      -10030.459      45888.33       259.06568    
     24830   1169.4257     -5705.9879     -5473.9571     -9611.1323      45876.461      258.94842    
     24840   1166.1215     -5705.0186     -5473.6433     -9298.859       45863.837      258.80375    
     24850   1182.0839     -5707.8369     -5473.2945     -9027.5801      45850.676      258.66601    
     24860   1182.6362     -5707.5776     -5472.9257     -8616.3311      45837.326      258.53011    
     24870   1199.7542     -5710.6428     -5472.5944     -8638.8988      45824.356      258.38396    
     24880   1194.9593     -5709.3823     -5472.2853     -8519.1199      45811.81       258.21396    
     24890   1217.1777     -5713.5319     -5472.0264     -8734.3069      45799.476      258.02404    
     24900   1215.8012     -5713.0646     -5471.8322     -8888.2118      45787.146      257.80782    
     24910   1188.6314     -5707.5212     -5471.6797     -8814.8128      45774.73       257.57427    
     24920   1218.4551     -5713.285      -5471.5261     -9305.2356      45762.269      257.39145    
     24930   1233.9064     -5716.2228     -5471.3981     -9315.1178      45749.367      257.27666    
     24940   1245.4145     -5718.5178     -5471.4097     -9248.428       45735.784      257.19247    
     24950   1229.2123     -5715.4222     -5471.5289     -9086.9223      45721.523      257.10301    
     24960   1233.8985     -5716.6022     -5471.779      -9230.9261      45706.757      257.01276    
     24970   1250.2063     -5720.2123     -5472.1534     -9353.7486      45691.43       256.90707    
     24980   1229.2949     -5716.5615     -5472.6518     -9477.4721      45675.432      256.75496    
     24990   1224.1214     -5716.1591     -5473.2758     -9666.4505      45659.032      256.59467    
     25000   1223.675      -5716.7703     -5473.9756     -9423.8396      45642.524      256.45289    
     25010   1208.7447     -5714.5576     -5474.7254     -9027.4474      45626.23       256.28634    
     25020   1220.5602     -5717.7235     -5475.5469     -9265.8418      45610.379      256.08217    
     25030   1209.7556     -5716.4473     -5476.4144     -9195.566       45594.856      255.87061    
     25040   1196.5432     -5714.6935     -5477.2822     -8987.5909      45579.718      255.69163    
     25050   1209.1174     -5718.0454     -5478.1392     -8797.4763      45565.15       255.57983    
     25060   1227.7825     -5722.6428     -5479.0332     -8974.2135      45551.029      255.52476    
     25070   1240.3288     -5726.1141     -5480.0151     -9246.8239      45536.998      255.46576    
     25080   1237.3664     -5726.64       -5481.1288     -9182.4412      45522.836      255.40387    
     25090   1200.3498     -5720.4214     -5482.2548     -8599.621       45508.691      255.37453    
     25100   1202.7656     -5721.9833     -5483.3374     -8556.2232      45494.74       255.3844     
     25110   1171.399      -5716.701      -5484.2787     -8649.7843      45480.84       255.38326    
     25120   1166.8089     -5716.5765     -5485.0649     -9326.4237      45466.936      255.32227    
     25130   1178.3398     -5719.5176     -5485.7181     -9750.0985      45452.762      255.21458    
     25140   1156.5763     -5715.7137     -5486.2324     -9323.1027      45438.039      255.09442    
     25150   1161.1451     -5716.9717     -5486.5839     -9012.7856      45423.096      254.99642    
     25160   1176.5973     -5720.2958     -5486.842      -9075.4521      45408.351      254.92549    
     25170   1153.0637     -5715.7668     -5486.9825     -9138.2631      45393.845      254.82029    
     25180   1153.0278     -5715.791      -5487.0138     -9582.7148      45379.514      254.64016    
     25190   1179.3966     -5720.9561     -5486.9469     -10028.569      45365.017      254.44215    
     25200   1189.1396     -5722.7941     -5486.8517     -10177.828      45349.915      254.29542    
     25210   1168.6421     -5718.6152     -5486.7399     -9858.3575      45334.141      254.19755    
     25220   1166.5059     -5718.0293     -5486.5778     -9689.844       45317.992      254.11563    
     25230   1177.7659     -5720.0339     -5486.3483     -9628.4094      45301.657      254.02302    
     25240   1187.4701     -5721.6947     -5486.0836     -9673.0781      45285.337      253.9136     
     25250   1192.7585     -5722.4865     -5485.8261     -9587.6252      45269.123      253.7952     
     25260   1192.675      -5722.222      -5485.5782     -9415.8941      45252.956      253.69073    
     25270   1191.1452     -5721.6914     -5485.3511     -9303.2411      45236.958      253.58769    
     25280   1179.8262     -5719.2323     -5485.1379     -9169.5192      45221.373      253.50276    
     25290   1196.5547     -5722.3462     -5484.9326     -9175.1602      45206.291      253.4721     
     25300   1199.3698     -5722.7087     -5484.7366     -8759.9796      45191.646      253.47919    
     25310   1187.535      -5720.1984     -5484.5744     -8139.1555      45177.548      253.49487    
     25320   1217.7748     -5726.1035     -5484.4796     -8167.8401      45164.302      253.50941    
     25330   1204.4417     -5723.4408     -5484.4623     -7992.5464      45151.838      253.50998    
     25340   1187.7382     -5720.1951     -5484.5308     -8094.8894      45140.088      253.46935    
     25350   1186.868      -5720.1299     -5484.6383     -8477.2729      45129.27       253.40301    
     25360   1190.9856     -5721.1205     -5484.8119     -8629.2423      45119.645      253.35076    
     25370   1197.4396     -5722.6652     -5485.076      -8662.8095      45111.208      253.33099    
     25380   1198.2765     -5723.2141     -5485.4589     -8606.4506      45103.764      253.36544    
     25390   1209.7739     -5726.079      -5486.0425     -9027.4882      45097.015      253.43894    
     25400   1198.0087     -5724.564      -5486.8619     -9375.1915      45090.526      253.55136    
     25410   1159.2381     -5717.8656     -5487.8562     -8980.8448      45084.242      253.69065    
     25420   1173.553      -5721.8177     -5488.968      -9024.1222      45078.487      253.82196    
     25430   1194.4985     -5727.2219     -5490.2163     -9048.2911      45073.226      253.90163    
     25440   1194.5305     -5728.6549     -5491.6429     -8964.4295      45068.423      253.95844    
     25450   1182.2301     -5727.6947     -5493.1233     -9022.1004      45064.05       254.02308    
     25460   1175.0071     -5727.7588     -5494.6206     -8942.1971      45060.03       254.06883    
     25470   1154.7347     -5725.0862     -5495.9703     -8560.6385      45056.646      254.10409    
     25480   1151.7499     -5725.6458     -5497.1221     -8404.3576      45054.198      254.18047    
     25490   1151.904      -5726.6305     -5498.0763     -8511.088       45052.713      254.30549    
     25500   1147.6181     -5726.5243     -5498.8204     -8514.8457      45051.836      254.42071    
     25510   1175.2203     -5732.6257     -5499.4452     -8502.1134      45051.063      254.48035    
     25520   1168.6273     -5731.8417     -5499.9693     -8361.7604      45050.274      254.51112    
     25530   1181.1302     -5734.8398     -5500.4867     -8747.9993      45049.697      254.57934    
     25540   1176.1116     -5734.3297     -5500.9723     -8990.3762      45049.241      254.70164    
     25550   1164.0702     -5732.421      -5501.4528     -9257.6227      45048.805      254.87143    
     25560   1134.0968     -5726.8898     -5501.8687     -9240.1959      45048.087      255.07131    
     25570   1143.6917     -5729.087      -5502.1622     -9867.5436      45046.881      255.24391    
     25580   1147.4734     -5730.0472     -5502.3721     -10254.947      45044.854      255.34221    
     25590   1108.1675     -5722.3495     -5502.4732     -9988.9371      45041.833      255.38218    
     25600   1110.3288     -5722.7318     -5502.4267     -10012.372      45038.002      255.37324    
     25610   1142.5086     -5728.8933     -5502.2032     -10092.218      45033.461      255.3442     
     25620   1169.4088     -5733.9338     -5501.9064     -10066.875      45028.422      255.33293    
     25630   1163.2693     -5732.4115     -5501.6022     -9766.1595      45023.256      255.36105    
     25640   1191.6358     -5737.7618     -5501.3242     -9955.8202      45017.917      255.44822    
     25650   1208.7582     -5740.9797     -5501.1448     -9957.9017      45011.98       255.57452    
     25660   1210.0664     -5741.2214     -5501.1269     -9892.8588      45005.258      255.70133    
     25670   1198.2581     -5739.0469     -5501.2953     -9697.2801      44997.744      255.81341    
     25680   1163.1259     -5732.3569     -5501.5761     -9352.8541      44989.63       255.92168    
     25690   1159.8132     -5732.027      -5501.9034     -9427.2722      44981.192      256.02744    
     25700   1174.3761     -5735.2976     -5502.2846     -9621.8021      44972.487      256.10509    
     25710   1136.5384     -5728.1858     -5502.6803     -9176.3656      44963.546      256.18379    
     25720   1143.5807     -5729.9974     -5503.0946     -9522.9395      44954.739      256.28564    
     25730   1134.8029     -5728.6179     -5503.4568     -9934.8973      44946.111      256.41544    
     25740   1132.5153     -5728.5        -5503.7927     -10172.469      44937.416      256.54879    
     25750   1134.6413     -5729.179      -5504.0499     -10210.176      44928.75       256.63301    
     25760   1156.8812     -5733.8745     -5504.3327     -10272.933      44920.208      256.63989    
     25770   1121.4503     -5727.108      -5504.5962     -9497.3341      44911.59       256.6209     
     25780   1112.2747     -5725.5011     -5504.8099     -9301.0875      44903.087      256.65837    
     25790   1116.2201     -5726.3763     -5504.9023     -9635.0405      44894.884      256.75197    
     25800   1120.8925     -5727.2955     -5504.8944     -9970.7396      44886.753      256.84681    
     25810   1117.4356     -5726.4811     -5504.7659     -10082.816      44878.247      256.90398    
     25820   1105.9242     -5723.9084     -5504.4772     -9912.2767      44869.18       256.88096    
     25830   1113.0115     -5724.824      -5503.9865     -9869.5801      44859.652      256.78547    
     25840   1126.2503     -5726.7136     -5503.2494     -9712.2635      44849.878      256.66501    
     25850   1147.5804     -5729.9989     -5502.3025     -9397.6056      44839.986      256.58084    
     25860   1156.5655     -5730.6896     -5501.2104     -9431.3103      44830.378      256.53873    
     25870   1179.875      -5734.1532     -5500.0491     -9843.6875      44821.195      256.5313     
     25880   1190.6147     -5735.1504     -5498.9154     -10107.591      44812.149      256.55804    
     25890   1194.9088     -5735.0105     -5497.9235     -9974.7937      44803.088      256.56497    
     25900   1171.2868     -5729.48       -5497.0799     -9430.5061      44793.984      256.50049    
     25910   1179.2423     -5730.3644     -5496.3858     -9380.1178      44784.645      256.34637    
     25920   1183.4673     -5730.6233     -5495.8064     -9448.4212      44774.899      256.14402    
     25930   1167.4915     -5726.989      -5495.342      -9164.173       44764.861      255.9687     
     25940   1199.6061     -5733.03       -5495.011      -9161.9801      44754.997      255.87962    
     25950   1192.2669     -5731.3975     -5494.8346     -8616.3247      44745.618      255.88371    
     25960   1187.1965     -5730.4021     -5494.8453     -8306.9577      44736.913      255.93017    
     25970   1179.4186     -5729.0215     -5495.0079     -8306.1059      44729.15       255.96029    
     25980   1188.7664     -5731.2114     -5495.3431     -8866.2691      44722.597      255.98911    
     25990   1173.0984     -5728.5963     -5495.8368     -9014.9288      44717.13       256.03035    
     26000   1165.9991     -5727.8207     -5496.4697     -8978.1616      44712.338      256.06187    
     26010   1194.4213     -5734.2576     -5497.2673     -9080.0805      44708.176      256.08274    
     26020   1169.7243     -5730.345      -5498.2549     -8787.2186      44704.81       256.12039    
     26030   1166.8775     -5730.8928     -5499.3676     -8678.6813      44702.287      256.19415    
     26040   1168.0258     -5732.3408     -5500.5878     -8646.8594      44700.343      256.26556    
     26050   1161.7665     -5732.3624     -5501.8513     -8619.2611      44698.913      256.31606    
     26060   1160.7657     -5733.4178     -5503.1053     -8851.7257      44698.054      256.36419    
     26070   1158.3888     -5734.1422     -5504.3013     -9104.1882      44697.633      256.43478    
     26080   1158.66       -5735.2859     -5505.3911     -9461.9175      44697.501      256.49386    
     26090   1164.2035     -5737.3813     -5506.3867     -9645.3556      44697.495      256.50856    
     26100   1136.3435     -5732.7231     -5507.2563     -9019.5528      44697.539      256.53309    
     26110   1124.132      -5730.9869     -5507.943      -8836.1905      44697.985      256.6275     
     26120   1154.6336     -5737.6095     -5508.5137     -9620.4262      44699.017      256.81524    
     26130   1146.934      -5736.5815     -5509.0134     -10112.139      44700.292      257.06173    
     26140   1152.9422     -5738.2786     -5509.5183     -10366.669      44701.449      257.29205    
     26150   1143.6854     -5736.9229     -5509.9993     -10043.396      44702.167      257.45612    
     26160   1137.6506     -5736.1981     -5510.4719     -9784.2463      44702.629      257.58226    
     26170   1126.3401     -5734.3916     -5510.9096     -9634.0751      44703.038      257.72087    
     26180   1119.3213     -5733.3922     -5511.3028     -9603.3392      44703.352      257.88653    
     26190   1098.6361     -5729.6038     -5511.6186     -9445.6624      44703.434      258.04606    
     26200   1110.732      -5732.2266     -5511.8414     -9650.1983      44703.234      258.18998    
     26210   1112.077      -5732.6287     -5511.9767     -9574.6739      44702.608      258.30611    
     26220   1124.8905     -5735.2756     -5512.0813     -9563.7918      44701.584      258.40179    
     26230   1128.1798     -5736.0092     -5512.1621     -9552.1954      44700.333      258.50748    
     26240   1124.4705     -5735.3555     -5512.2444     -9539.853       44698.842      258.62426    
     26250   1125.871      -5735.7257     -5512.3368     -9620.5123      44696.995      258.70202    
     26260   1129.5913     -5736.5424     -5512.4153     -9986.1761      44694.874      258.73888    
     26270   1144.7295     -5739.676      -5512.5453     -10299.212      44692.285      258.76579    
     26280   1132.148      -5737.3564     -5512.7221     -9724.4691      44688.896      258.75826    
     26290   1137.5474     -5738.6697     -5512.964      -9063.2259      44685.014      258.71197    
     26300   1127.1003     -5736.8906     -5513.2578     -8415.3342      44681.047      258.6374     
     26310   1108.7229     -5733.5442     -5513.5577     -8404.9533      44677.779      258.57745    
     26320   1131.7882     -5738.4467     -5513.8837     -9197.0817      44675.687      258.58193    
     26330   1114.1222     -5735.2753     -5514.2175     -9540.0959      44674.513      258.66332    
     26340   1102.2191     -5733.2468     -5514.5508     -9639.8377      44673.804      258.76566    
     26350   1112.4767     -5735.6082     -5514.8768     -9641.0433      44673.23       258.81607    
     26360   1109.2989     -5735.2885     -5515.1877     -9385.5097      44672.719      258.80951    
     26370   1107.6716     -5735.2628     -5515.4849     -9197.9921      44672.529      258.8024     
     26380   1116.2919     -5737.288      -5515.7997     -9329.2954      44672.672      258.84029    
     26390   1107.3363     -5735.8315     -5516.1202     -9281.3793      44672.71       258.93268    
     26400   1100.8704     -5734.8783     -5516.4498     -8892.0711      44672.6        259.07013    
     26410   1097.3686     -5734.5        -5516.7664     -8467.9636      44672.737      259.20622    
     26420   1108.5099     -5736.9946     -5517.0504     -8686.8293      44673.28       259.31299    
     26430   1121.7992     -5739.9426     -5517.3616     -8821.7726      44674.051      259.40448    
     26440   1088.4829     -5733.6727     -5517.7021     -8459.4903      44674.982      259.48978    
     26450   1084.6099     -5733.2186     -5518.0165     -8739.5515      44676.131      259.57142    
     26460   1095.6372     -5735.6733     -5518.2832     -9526.5822      44677.035      259.62601    
     26470   1099.1497     -5736.6112     -5518.5242     -10219.073      44677.228      259.62454    
     26480   1092.7309     -5735.5671     -5518.7537     -10495.288      44676.714      259.60298    
     26490   1102.7698     -5737.7681     -5518.9627     -10439.258      44675.596      259.60731    
     26500   1112.3837     -5739.8837     -5519.1708     -10085.21       44673.929      259.64271    
     26510   1116.1666     -5740.8838     -5519.4204     -9699.6197      44671.543      259.69049    
     26520   1111.4121     -5740.2426     -5519.7225     -9646.6106      44668.224      259.77003    
     26530   1111.8264     -5740.6802     -5520.0779     -9873.7652      44663.851      259.86772    
     26540   1113.2594     -5741.3851     -5520.4985     -10170.288      44658.372      259.90803    
     26550   1089.6437     -5737.177      -5520.9761     -9849.2717      44652.023      259.89594    
     26560   1068.6658     -5733.4695     -5521.4309     -9379.1926      44645.566      259.88436    
     26570   1104.4431     -5740.9834     -5521.8461     -9699.2987      44639.501      259.86762    
     26580   1113.252      -5743.1741     -5522.2889     -9619.7063      44633.335      259.84549    
     26590   1096.7021     -5740.3638     -5522.7624     -9397.3334      44626.741      259.81814    
     26600   1117.6138     -5745.0326     -5523.282      -9706.0406      44619.846      259.79219    
     26610   1121.998      -5746.5161     -5523.8956     -9798.479       44612.841      259.78212    
     26620   1097.1845     -5742.2937     -5524.5966     -9478.5323      44605.866      259.81998    
     26630   1087.8131     -5741.1643     -5525.3266     -9274.2825      44599.018      259.92349    
     26640   1067.3172     -5737.775      -5526.004      -8970.4362      44592.379      260.07325    
     26650   1052.3728     -5735.3987     -5526.5928     -8617.1627      44586.264      260.25661    
     26660   1046.9245     -5734.7534     -5527.0286     -8687.4723      44580.759      260.48447    
     26670   1057.3743     -5737.1008     -5527.3026     -9121.8636      44575.486      260.73169    
     26680   1070.9964     -5739.9628     -5527.4617     -9635.3456      44570.194      260.9687     
     26690   1069.7244     -5739.7742     -5527.5255     -9482.1651      44564.895      261.15709    
     26700   1064.6011     -5738.7129     -5527.4808     -9182.0545      44559.9        261.25947    
     26710   1093.0684     -5744.2196     -5527.3392     -9364.932       44555.272      261.27819    
     26720   1121.4104     -5749.6758     -5527.1719     -9703.1135      44550.748      261.25674    
     26730   1109.0715     -5747.0999     -5527.0442     -9625.2472      44546.308      261.25043    
     26740   1098.8594     -5744.9971     -5526.9676     -9695.4651      44542.073      261.25621    
     26750   1096.0535     -5744.3774     -5526.9047     -9969.9317      44537.783      261.21717    
     26760   1098.9477     -5744.8901     -5526.8432     -10451.018      44532.992      261.10561    
     26770   1082.948      -5741.6598     -5526.7874     -10440.707      44527.418      260.94339    
     26780   1069.6498     -5738.9132     -5526.6794     -10376.424      44521.03       260.793      
     26790   1099.2256     -5744.5979     -5526.4958     -10535.199      44513.882      260.6815     
     26800   1079.5846     -5740.4659     -5526.2609     -9829.2566      44505.937      260.60554    
     26810   1075.6678     -5739.4102     -5525.9823     -9158.6412      44497.489      260.56885    
     26820   1102.8924     -5744.4459     -5525.6163     -9260.2334      44488.79       260.58058    
     26830   1106.1532     -5744.6781     -5525.2015     -9317.9522      44479.914      260.65562    
     26840   1095.4594     -5742.126      -5524.7711     -9316.0402      44471.207      260.77473    
     26850   1092.6883     -5741.1354     -5524.3304     -9536.5365      44462.706      260.89122    
     26860   1105.4514     -5743.1902     -5523.8528     -9864.0962      44454.179      260.98655    
     26870   1119.846      -5745.5541     -5523.3606     -10145.501      44445.069      261.08279    
     26880   1097.8541     -5740.7487     -5522.9187     -9742.6437      44434.875      261.16392    
     26890   1080.8582     -5736.9547     -5522.497      -9349.5354      44423.675      261.20594    
     26900   1077.0826     -5735.7283     -5522.0197     -9225.0772      44411.841      261.20546    
     26910   1085.7431     -5736.8738     -5521.4468     -8931.6038      44399.651      261.14183    
     26920   1099.7946     -5739.0396     -5520.8245     -8768.111       44387.39       261.00242    
     26930   1113.5447     -5741.1354     -5520.1922     -9225.6264      44375.371      260.83685    
     26940   1111.384      -5740.1418     -5519.6273     -9753.6944      44363.393      260.65565    
     26950   1118.5415     -5741.076      -5519.1414     -10053.18       44350.922      260.44573    
     26960   1140.131      -5744.9612     -5518.7429     -10348.575      44337.783      260.20524    
     26970   1139.2066     -5744.562      -5518.5271     -10267.109      44324.056      259.94468    
     26980   1115.6913     -5739.8591     -5518.49       -9661.1846      44309.928      259.69021    
     26990   1117.2195     -5740.2697     -5518.5973     -9479.9071      44295.562      259.45317    
     27000   1118.0144     -5740.6732     -5518.8431     -9365.5334      44280.838      259.23468    
     27010   1121.6792     -5741.8118     -5519.2546     -9367.4164      44265.958      259.06273    
     27020   1124.3993     -5742.9668     -5519.8699     -9583.9228      44251.143      258.91974    
     27030   1096.9884     -5738.321      -5520.6628     -9594.6784      44236.312      258.78282    
     27040   1102.4731     -5740.3488     -5521.6023     -9929.0702      44221.282      258.66275    
     27050   1120.1584     -5744.9561     -5522.7006     -9990.3863      44205.787      258.52361    
     27060   1114.8911     -5745.1835     -5523.9731     -9373.9376      44189.992      258.35865    
     27070   1092.8713     -5742.1688     -5525.3275     -8669.08        44174.335      258.18393    
     27080   1085.0386     -5741.9198     -5526.6326     -8596.9621      44159.136      257.99925    
     27090   1079.1158     -5741.9407     -5527.8287     -8613.7282      44144.583      257.83667    
     27100   1071.3619     -5741.428      -5528.8544     -8592.8097      44130.754      257.72942    
     27110   1066.542      -5741.3339     -5529.7167     -8732.8421      44117.683      257.6741     
     27120   1073.6061     -5743.4414     -5530.4226     -9184.9773      44105.148      257.62901    
     27130   1078.2002     -5744.9528     -5531.0224     -9972.7358      44092.78       257.53966    
     27140   1072.4193     -5744.3232     -5531.5399     -10465.71       44080.203      257.40857    
     27150   1080.7862     -5746.4575     -5532.0141     -10602.789      44066.989      257.29068    
     27160   1051.0973     -5740.964      -5532.4112     -10014.122      44052.964      257.20955    
     27170   1061.3306     -5743.3242     -5532.741      -9845.5199      44038.446      257.16369    
     27180   1093.535      -5750.0024     -5533.0294     -9936.4972      44023.532      257.13489    
     27190   1075.2675     -5746.6978     -5533.3493     -9419.4574      44008.237      257.12472    
     27200   1072.3296     -5746.4451     -5533.6795     -9100.6062      43992.959      257.11306    
     27210   1089.1194     -5750.1218     -5534.0249     -9366.5368      43977.971      257.0309     
     27220   1074.8452     -5747.6473     -5534.3826     -9250.0639      43963.353      256.8569     
     27230   1069.5218     -5746.9933     -5534.7848     -9164.8353      43949.35       256.62426    
     27240   1072.2605     -5747.915      -5535.1632     -9005.4825      43936.045      256.42304    
     27250   1092.0905     -5752.2784     -5535.592      -8963.5388      43923.287      256.29317    
     27260   1070.736      -5748.5328     -5536.0835     -8480.4965      43910.848      256.20412    
     27270   1077.7993     -5750.4712     -5536.6204     -8527.6191      43898.728      256.12125    
     27280   1079.7903     -5751.4204     -5537.1746     -9100.3013      43886.884      256.04098    
     27290   1081.0452     -5752.2898     -5537.7949     -9655.6979      43875.129      255.98739    
     27300   1055.7066     -5747.9081     -5538.4408     -9725.6365      43863.392      255.97096    
     27310   1057.256      -5748.8518     -5539.0771     -10156.097      43851.73       255.93847    
     27320   1058.9446     -5749.7867     -5539.677      -10372.353      43840.054      255.84658    
     27330   1061.8226     -5750.9656     -5540.2848     -10310.849      43828.202      255.74417    
     27340   1037.6247     -5746.7205     -5540.8409     -9742.9942      43816.22       255.72125    
     27350   1038.4951     -5747.3639     -5541.3116     -9382.6446      43804.331      255.83254    
     27360   1050.2469     -5750.1068     -5541.7228     -9272.6526      43792.469      256.02718    
     27370   1051.0205     -5750.6294     -5542.0919     -8971.0733      43780.626      256.1991     
     27380   1052.3293     -5751.2333     -5542.4361     -8745.5231      43769.059      256.27806    
     27390   1029.1102     -5746.9138     -5542.7236     -8428.493       43758.056      256.25905    
     27400   1039.9338     -5749.2876     -5542.9498     -8800.3723      43747.867      256.17885    
     27410   1045.7531     -5750.6104     -5543.118      -9176.7696      43738.251      256.0701     
     27420   1033.1583     -5748.2344     -5543.241      -9195.1248      43728.678      255.95932    
     27430   1048.3105     -5751.3237     -5543.3239     -9507.8626      43718.798      255.84364    
     27440   1055.1739     -5752.7402     -5543.3786     -9882.6207      43708.454      255.71925    
     27450   1046.1017     -5750.9919     -5543.4304     -10161.031      43697.724      255.59687    
     27460   1039.8121     -5749.7728     -5543.4592     -10314.7        43686.883      255.48997    
     27470   1059.789      -5753.7458     -5543.4685     -10232.767      43676.239      255.43754    
     27480   1058.9121     -5753.5854     -5543.4821     -9445.0946      43666.034      255.45201    
     27490   1044.1829     -5750.6957     -5543.5148     -8635.0066      43656.363      255.51344    
     27500   1045.1454     -5750.9194     -5543.5476     -8453.9795      43647.227      255.6165     
     27510   1064.4746     -5754.7852     -5543.5782     -8831.5097      43638.721      255.7526     
     27520   1080.155      -5757.984      -5543.6658     -9273.3688      43630.899      255.89306    
     27530   1074.3088     -5757.0637     -5543.9055     -9386.0569      43623.271      255.9923     
     27540   1048.4143     -5752.3184     -5544.298      -9272.703       43615.269      256.02166    
     27550   1034.5446     -5750.0493     -5544.7809     -9362.6051      43606.835      255.973      
     27560   1046.8392     -5753.0566     -5545.3488     -9541.3854      43598.023      255.89556    
     27570   1054.4999     -5755.2726     -5546.0447     -9817.8573      43588.62       255.84894    
     27580   1066.2457     -5758.4553     -5546.8969     -10464.143      43578.377      255.85744    
     27590   1047.6792     -5755.7769     -5547.9023     -10761.317      43567.173      255.87901    
     27600   1033.4437     -5754.0223     -5548.9723     -10673.4        43555.076      255.86251    
     27610   1042.2501     -5756.8312     -5550.0338     -10327.685      43542.424      255.78512    
     27620   1066.9299     -5762.8334     -5551.1392     -9973.4692      43529.393      255.65721    
     27630   1064.9864     -5763.5911     -5552.2825     -9338.2803      43516.093      255.52267    
     27640   1048.9735     -5761.5505     -5553.4192     -8954.2531      43502.898      255.42266    
     27650   1046.3073     -5762.0984     -5554.496      -9137.002       43490.044      255.35574    
     27660   1030.6279     -5759.948      -5555.4567     -9288.5324      43477.571      255.30457    
     27670   1032.9567     -5761.2579     -5556.3045     -9371.2299      43465.461      255.259      
[...]
     48200   932.91881     -5809.5015     -5624.397      -736.91833      43411.615      455.85469    
     48210   940.47018     -5811.1439     -5624.5412     -850.2722       43411.453      455.94028    
     48220   929.21704     -5809.2286     -5624.8587     -744.93048      43408.854      456.02183    
     48230   916.57843     -5807.2108     -5625.3485     -685.42549      43404.052      456.08577    
     48240   900.252       -5804.5979     -5625.975      -522.97547      43397.258      456.1323     
     48250   882.18836     -5801.7469     -5626.7081     -215.76447      43388.977      456.15355    
     48260   880.87134     -5802.2915     -5627.514       7.7206398      43380.052      456.12693    
     48270   868.50482     -5800.686      -5628.3622      306.47137      43371.224      456.05644    
     48280   859.9936      -5799.854      -5629.219       401.27608      43363.296      455.96547    
     48290   859.77747     -5800.6311     -5630.0389      348.74364      43356.566      455.8689     
     48300   863.52382     -5802.1512     -5630.8158      224.58094      43350.883      455.80533    
     48310   868.91381     -5803.9508     -5631.5459      64.495209      43345.895      455.81554    
     48320   875.51985     -5805.9584     -5632.2427     -126.52829      43341.12       455.87659    
     48330   885.69501     -5808.6683     -5632.9338     -253.86297      43336.029      455.92359    
     48340   883.46291     -5808.9177     -5633.626      -7.1953025      43330.345      455.90257    
     48350   872.80705     -5807.4818     -5634.3044      498.15515      43324.776      455.7949     
     48360   880.33008     -5809.6128     -5634.9427      587.19413      43320.592      455.63232    
     48370   895.63213     -5813.2734     -5635.5672      353.11534      43318.082      455.45565    
     48380   891.4824      -5813.0925     -5636.2097      332.59556      43316.676      455.31079    
     48390   884.33009     -5812.3213     -5636.8575      447.59348      43316.306      455.22415    
     48400   887.60648     -5813.6089     -5637.495       201.71141      43317.145      455.18355    
     48410   871.07031     -5810.941      -5638.1082      195.50183      43318.653      455.18018    
     48420   848.08122     -5806.8995     -5638.6281      116.00922      43320.731      455.21182    
     48430   858.15393     -5809.2689     -5638.9989     -319.06908      43323.087      455.24235    
     48440   882.96273     -5814.438      -5639.2455     -801.27753      43324.487      455.21964    
     48450   885.37081     -5815.1089     -5639.4386     -816.12431      43323.631      455.14424    
     48460   871.0974      -5812.4147     -5639.5765     -364.06111      43320.469      455.09104    
     48470   869.09575     -5812.0627     -5639.6217      43.842122      43316.18       455.13116    
     48480   871.26989     -5812.4143     -5639.5419      229.62077      43311.937      455.27558    
     48490   869.30385     -5811.8071     -5639.3248      200.52443      43308.325      455.50302    
     48500   872.21169     -5812.01       -5638.9507      55.752713      43305.297      455.74651    
     48510   878.22893     -5812.6479     -5638.3948     -13.144742      43302.471      455.92463    
     48520   879.02757     -5812.0345     -5637.6229     -96.666508      43299.627      455.97928    
     48530   887.85418     -5812.8051     -5636.6421     -416.21015      43296.402      455.89629    
     48540   884.69076     -5811          -5635.4647     -649.79175      43291.956      455.71315    
     48550   891.33301     -5810.9956     -5634.1424     -978.92064      43285.536      455.48913    
     48560   892.92071     -5809.9153     -5632.747      -1074.3363      43276.266      455.28276    
     48570   882.6801      -5806.5125     -5631.3761     -782.18801      43263.929      455.13129    
     48580   882.50856     -5805.1853     -5630.083      -499.51195      43249.267      455.04629    
     48590   882.70849     -5804.0402     -5628.8982     -188.21444      43233.129      455.0104     
     48600   895.13908     -5805.4669     -5627.8585     -63.11358       43216.367      454.99608    
     48610   901.66983     -5805.8793     -5626.9751     -58.528328      43199.32       454.97205    
     48620   897.82019     -5804.3987     -5626.2583      141.80281      43182.118      454.95209    
     48630   898.01239     -5803.8409     -5625.6624      399.66412      43165.275      454.94372    
     48640   893.69257     -5802.4585     -5625.1371      783.15127      43149.6        454.90168    
     48650   899.56945     -5803.1609     -5624.6734      882.37111      43136.093      454.80544    
     48660   902.25104     -5803.2704     -5624.2509      728.17321      43125.055      454.68322    
     48670   894.44809     -5801.3525     -5623.8812      472.87282      43116.086      454.54754    
     48680   881.2515      -5798.3683     -5623.5154      226.49047      43108.477      454.42905    
     48690   879.08498     -5797.5275     -5623.1044     -75.184398      43101.464      454.3547     
     48700   911.47329     -5803.5037     -5622.6543     -493.75846      43094.15       454.30766    
     48710   932.85841     -5807.3408     -5622.2484     -556.80433      43085.447      454.26289    
     48720   922.44255     -5804.9865     -5621.9606      159.142        43075.296      454.20833    
     48730   925.81627     -5805.4746     -5621.7794      725.97822      43065.533      454.16247    
     48740   949.29899     -5810.0665     -5621.712       765.28116      43057.713      454.12985    
     48750   948.00491     -5809.9266     -5621.8289      844.96715      43052.136      454.11514    
     48760   944.10042     -5809.481      -5622.1579      813.50065      43048.959      454.13719    
     48770   940.33126     -5809.2506     -5622.6754      413.9612       43048.045      454.18017    
     48780   924.9628      -5806.8834     -5623.3576      106.65415      43048.389      454.18096    
     48790   903.87119     -5803.474      -5624.133       112.98861      43049.155      454.1137     
     48800   888.49164     -5801.2024     -5624.9129      114.64633      43050.207      454.01115    
     48810   872.42017     -5798.7136     -5625.613       427.28786      43051.731      453.92021    
     48820   884.59358     -5801.729      -5626.213       394.17181      43054.441      453.88623    
     48830   900.18078     -5805.3574     -5626.7487      120.196        43058.275      453.93848    
     48840   899.90729     -5805.8167     -5627.2622     -51.890266      43062.55       454.09787    
     48850   907.0519      -5807.7506     -5627.7785     -232.38362      43066.719      454.37067    
     48860   902.14417     -5807.2991     -5628.3007     -224.7495       43070.317      454.68738    
     48870   894.21421     -5806.2433     -5628.8184     -205.22535      43073.257      454.95468    
     48880   887.85096     -5805.4585     -5629.2961     -194.30616      43075.623      455.13603    
     48890   892.86315     -5806.8768     -5629.72       -411.16617      43077.397      455.23437    
     48900   911.00727     -5810.8883     -5630.1314     -855.23573      43077.939      455.28627    
     48910   913.11758     -5811.7386     -5630.563      -940.61127      43076.128      455.29146    
     48920   912.93553     -5812.1913     -5631.0518     -1011.8391      43071.514      455.24315    
     48930   907.26661     -5811.5991     -5631.5844     -1081.6901      43063.871      455.18601    
     48940   891.43094     -5808.9987     -5632.126      -1031.9578      43052.973      455.11573    
     48950   883.78479     -5807.9971     -5632.6415     -958.04754      43038.925      455.02296    
     48960   872.23593     -5806.144      -5633.0799     -746.70581      43021.981      454.90756    
     48970   879.96664     -5808.0183     -5633.4203     -753.96712      43002.581      454.78443    
     48980   895.84062     -5811.4358     -5633.6882     -777.36626      42980.758      454.63969    
     48990   895.91842     -5811.7042     -5633.9412     -590.14854      42956.464      454.4235     
     49000   873.60501     -5807.4858     -5634.1501     -67.028817      42930.279      454.13394    
     49010   866.48002     -5806.1909     -5634.2689      41.02257       42903.477      453.82136    
     49020   866.46493     -5806.1704     -5634.2514     -185.49226      42876.422      453.51361    
     49030   871.19444     -5806.9622     -5634.1047     -403.5902       42848.538      453.23294    
     49040   880.92776     -5808.6281     -5633.8394     -588.11452      42819.153      452.99852    
     49050   884.97806     -5809.0605     -5633.4682     -808.72469      42787.699      452.79031    
     49060   889.35489     -5809.444      -5632.9832     -852.24955      42753.628      452.5549     
     49070   896.6123      -5810.2764     -5632.3756     -880.22315      42716.726      452.26931    
     49080   908.70867     -5811.95       -5631.6491     -727.60786      42676.967      451.92746    
     49090   913.17819     -5812.0027     -5630.8151     -489.1286       42634.773      451.51183    
     49100   912.32302     -5810.8901     -5629.8722     -177.46032      42590.817      451.00632    
     49110   914.98058     -5810.35       -5628.8047      86.554475      42545.96       450.44787    
     49120   931.07561     -5812.359      -5627.6203      246.72451      42500.953      449.9265     
     49130   926.29524     -5810.1735     -5626.3832      762.94735      42456.383      449.51286    
     49140   908.63688     -5805.4233     -5625.1368      1534.4705      42413.725      449.22335    
     49150   917.04171     -5805.8353     -5623.8811      1875.5731      42375.017      449.02041    
     49160   937.1148      -5808.598      -5622.661       1826.0882      42341.24       448.86542    
     49170   944.97532     -5809.1056     -5621.609       1850.0689      42312.443      448.73963    
     49180   948.11031     -5808.9108     -5620.7921      1979.1044      42288.71       448.64936    
     49190   958.45797     -5810.3972     -5620.2254      2017.7836      42270.381      448.59512    
     49200   967.17056     -5811.8302     -5619.9297      2081.581       42257.622      448.57178    
     49210   955.94953     -5809.5992     -5619.9252      2388.6419      42250.695      448.56774    
     49220   945.38945     -5807.7415     -5620.1626      2619.8703      42250.411      448.56439    
     49230   935.39149     -5806.1697     -5620.5746      2779.6645      42257.513      448.5665     
     49240   919.96024     -5803.6458     -5621.1125      2962.7427      42272.557      448.64832    
     49250   914.83206     -5803.218      -5621.7022      2917.0662      42296.032      448.88568    
     49260   919.52989     -5804.7524     -5622.3045      2515.5487      42327.839      449.27805    
     49270   924.88242     -5806.4363     -5622.9264      1922.3003      42366.954      449.75412    
     49280   929.07155     -5807.9033     -5623.5622      1209.2145      42411.764      450.23015    
     49290   931.86688     -5809.1085     -5624.2128      545.03271      42460.309      450.66826    
     49300   926.46198     -5808.6779     -5624.8545     -68.236183      42510.649      451.097      
     49310   927.8935      -5809.5714     -5625.4641     -477.86469      42561.092      451.55209    
     49320   921.31111     -5808.8452     -5626.0439     -716.06843      42610.375      452.03925    
     49330   909.52424     -5807.0552     -5626.5925     -586.93134      42657.817      452.55723    
     49340   892.37768     -5804.1182     -5627.0577     -316.3513       42703.72       453.10928    
     49350   901.66265     -5806.3425     -5627.4397     -519.5846       42748.628      453.6964     
     49360   912.95751     -5808.9064     -5627.7625     -905.18041      42791.976      454.25532    
     49370   906.70494     -5807.9707     -5628.0675     -1168.5618      42832.694      454.73266    
     49380   893.04373     -5805.5457     -5628.353      -1116.5914      42870.032      455.13004    
     49390   882.59729     -5803.6857     CHGNet v0.3.0 initialized with 412,525 parameters
CHGNet will run on cuda:0
CHGNet will run on cuda:0
-5628.5657     -837.14804      42904.128      455.4754     
     49400   885.96181     -5804.5056     -5628.7181     -817.0746       42935.593      455.81244    
     49410   882.34937     -5803.8695     -5628.7988     -886.77347      42964.519      456.14157    
     49420   888.17114     -5805.037      -5628.8111     -1015.7267      42990.718      456.4266     
     49430   887.84996     -5804.9319     -5628.7697     -973.29591      43013.852      456.65034    
     49440   889.07873     -5805.0959     -5628.69       -816.97672      43034.009      456.80494    
     49450   885.93307     -5804.3569     -5628.5751     -446.08848      43051.674      456.9021     
     49460   866.67282     -5800.3539     -5628.3936      148.20626      43067.948      456.97389    
     49470   874.75894     -5801.6594     -5628.0947      274.86991      43084.393      457.0578     
     49480   891.40395     -5804.5459     -5627.6786     -33.018239      43101.369      457.16487    
     49490   902.30515     -5806.2488     -5627.2185     -534.93944      43118.022      457.28191    
     49500   899.26701     -5805.175      -5626.7476     -842.17097      43132.983      457.39133    
     49510   884.78175     -5801.8077     -5626.2544     -817.51443      43145.397      457.49188    
     49520   884.42763     -5801.2006     -5625.7175     -862.876        43155.255      457.61103    
     49530   889.75232     -5801.6561     -5625.1165     -864.98077      43162.496      457.74565    
     49540   883.36103     -5799.7397     -5624.4683     -874.47334      43167.085      457.86389    
     49550   880.21393     -5798.4027     -5623.7557     -807.89559      43169.098      457.96611    
     49560   899.63445     -5801.4741     -5622.9738     -1026.7937      43168.627      458.07143    
     49570   919.33883     -5804.5814     -5622.1714     -1181.2837      43165.212      458.18736    
     49580   932.72611     -5806.5286     -5621.4623     -1232.0127      43158.463      458.28315    
     49590   935.12669     -5806.4436     -5620.9011     -1182.6018      43148.247      458.29185    
     49600   933.6518      -5805.7566     -5620.5067     -1088.4116      43134.738      458.19505    
     49610   919.74496     -5802.7423     -5620.2517     -742.30351      43118.365      458.02625    
     49620   909.66391     -5800.5784     -5620.088      -449.26         43100.082      457.83306    
     49630   911.11026     -5800.7439     -5619.9666     -278.53916      43080.795      457.63307    
     49640   910.36321     -5800.5161     -5619.887      -308.18365      43060.971      457.41353    
     49650   901.20693     -5798.6602     -5619.8478     -296.1475       43040.597      457.18622    
     49660   898.04201     -5797.9944     -5619.81       -362.48231      43019.74       456.96221    
     49670   916.39824     -5801.6177     -5619.7911     -564.5722       42998.185      456.71415    
     49680   918.71167     -5802.1029     -5619.8174     -405.84571      42975.502      456.46969    
     49690   918.23144     -5802.115      -5619.9247     -221.02461      42952.107      456.2787     
     49700   921.06173     -5802.858      -5620.1062     -177.8719       42928.512      456.14435    
     49710   926.88146     -5804.3101     -5620.4035     -170.34583      42904.872      456.06836    
     49720   920.77897     -5803.5333     -5620.8376     -176.13585      42881.186      456.04045    
     49730   914.91        -5802.9653     -5621.4341     -77.216374      42857.452      456.02938    
     49740   901.93022     -5801.1116     -5622.1557      130.68941      42833.97       455.99264    
     49750   897.989       -5801.1775     -5623.0036      182.83529      42811.264      455.92506    
     49760   893.32916     -5801.224      -5623.9747      162.40763      42789.537      455.85155    
     49770   892.36493     -5802.149      -5625.0911      220.73042      42768.753      455.77892    
     49780   878.72124     -5800.6399     -5626.289       597.57678      42749.147      455.70464    
     49790   902.414       -5806.6252     -5627.5734      541.30318      42731.502      455.61177    
     49800   913.41297     -5810.179      -5628.9447      575.51034      42715.794      455.47339    
     49810   913.73892     -5811.6672     -5630.3683      704.76922      42702.046      455.29362    
     49820   908.50908     -5811.9979     -5631.7367      806.77968      42690.565      455.12092    
     49830   901.54715     -5811.8328     -5632.9529      824.45508      42681.579      455.01436    
     49840   893.35218     -5811.2175     -5633.9637      702.95051      42675.044      454.98842    
     49850   869.22328     -5807.1705     -5634.7042      785.68777      42670.724      455.01562    
     49860   874.72606     -5808.7478     -5635.1896      478.76627      42668.616      455.08804    
     49870   879.83024     -5810.0446     -5635.4736      278.34392      42667.954      455.19712    
     49880   880.60568     -5810.3518     -5635.627       345.71917      42668.143      455.33203    
     49890   896.97328     -5813.6697     -5635.6973      520.48078      42669.303      455.48978    
     49900   888.98023     -5812.1122     -5635.7258      1129.3796      42672.025      455.68035    
     49910   886.02258     -5811.5178     -5635.7183      1398.8311      42677.826      455.92673    
     49920   905.00328     -5815.2495     -5635.6839      1016.8209      42687.328      456.23313    
     49930   895.573       -5813.3434     -5635.6489      812.50812      42699.57       456.58643    
     49940   870.63473     -5808.3333     -5635.5869      836.3377       42713.961      456.93909    
     49950   877.02183     -5809.4568     -5635.4431      568.49856      42730.38       457.24036    
     49960   894.21256     -5812.6293     -5635.2047      335.15867      42748.131      457.48024    
     49970   897.87397     -5813.0936     -5634.9426      434.58768      42766.585      457.70931    
     49980   895.25015     -5812.3        -5634.6696      667.08391      42785.946      457.97968    
     49990   893.76334     -5811.7174     -5634.382       630.4393       42806.741      458.28471    
     50000   894.57708     -5811.5698     -5634.0729      420.92968      42828.898      458.58126    
Loop time of 9302.06 on 1 procs for 20000 steps with 1536 atoms

Performance: 0.186 ns/day, 129.195 hours/ns, 2.150 timesteps/s, 3.302 katom-step/s
119.7% CPU use with 1 MPI tasks x 1 OpenMP threads

MPI task timing breakdown:
Section |  min time  |  avg time  |  max time  |%varavg| %total
---------------------------------------------------------------
Pair    | 9256.4     | 9256.4     | 9256.4     |   0.0 | 99.51
Bond    | 0.014471   | 0.014471   | 0.014471   |   0.0 |  0.00
Neigh   | 6.4113     | 6.4113     | 6.4113     |   0.0 |  0.07
Comm    | 0.84056    | 0.84056    | 0.84056    |   0.0 |  0.01
Output  | 36.608     | 36.608     | 36.608     |   0.0 |  0.39
Modify  | 1.542      | 1.542      | 1.542      |   0.0 |  0.02
Other   |            | 0.2464     |            |       |  0.00

Nlocal:           1536 ave        1536 max        1536 min
Histogram: 1 0 0 0 0 0 0 0 0 0
Nghost:           2802 ave        2802 max        2802 min
Histogram: 1 0 0 0 0 0 0 0 0 0
Neighs:              0 ave           0 max           0 min
Histogram: 1 0 0 0 0 0 0 0 0 0
FullNghs:        56252 ave       56252 max       56252 min
Histogram: 1 0 0 0 0 0 0 0 0 0

Total # of neighbors = 56252
Ave neighs/atom = 36.622396
Ave special neighs/atom = 0
Neighbor list builds = 2000
Dangerous builds = 2000
System init for write_data ...
System init for write_restart ...
Total wall time: 3:52:41
