LiKCl-MACE/64.00x-LiKCl-MACE/initial-solid.data (written by ASE) 

4096 	 atoms 
2  atom types
0.0      101.76000000000001  xlo xhi
0.0      25.440000000000001  ylo yhi
0.0      50.880000000000003  zlo zhi


Masses

1 35.45
2 39.0983


Atoms 

     1   0   2   1.0                       0                       0                       0
     2   0   2   1.0  1.9988686863073463e-32      3.1800000000000002      3.1800000000000002
     3   0   2   1.0      3.1800000000000002                       0      3.1800000000000002
     4   0   2   1.0      3.1800000000000002      3.1800000000000002 -3.8528321521539432e-32
     5   0   1  -1.0      3.1800000000000002                       0 -1.9264160760769716e-32
     6   0   1  -1.0      3.1800000000000002      3.1800000000000002      3.1800000000000006
     7   0   1  -1.0                       0                       0      3.1800000000000002
     8   0   1  -1.0  1.9988686863073463e-32      3.1800000000000002  5.3877425273869031e-33
     9   0   2   1.0                       0                       0      6.3600000000000003
    10   0   2   1.0  1.9988686863073463e-32      3.1800000000000002      9.5400000000000009
    11   0   2   1.0      3.1800000000000002                       0      9.5400000000000009
    12   0   2   1.0      3.1800000000000002      3.1800000000000002      6.3600000000000003
    13   0   1  -1.0      3.1800000000000002                       0      6.3600000000000003
    14   0   1  -1.0      3.1800000000000002      3.1800000000000002      9.5400000000000009
    15   0   1  -1.0                       0                       0      9.5400000000000009
    16   0   1  -1.0  1.9988686863073463e-32      3.1800000000000002      6.3600000000000003
    17   0   2   1.0                       0                       0      12.720000000000001
    18   0   2   1.0  1.9988686863073463e-32      3.1800000000000002                    15.9
    19   0   2   1.0      3.1800000000000002                       0                    15.9
    20   0   2   1.0      3.1800000000000002      3.1800000000000002      12.720000000000001
    21   0   1  -1.0      3.1800000000000002                       0      12.720000000000001
    22   0   1  -1.0      3.1800000000000002      3.1800000000000002      15.900000000000002
    23   0   1  -1.0                       0                       0                    15.9
    24   0   1  -1.0  1.9988686863073463e-32      3.1800000000000002      12.720000000000001
    25   0   2   1.0                       0                       0      19.080000000000002
    26   0   2   1.0  1.9988686863073463e-32      3.1800000000000002      22.260000000000002
    27   0   2   1.0      3.1800000000000002                       0      22.260000000000002
    28   0   2   1.0      3.1800000000000002      3.1800000000000002      19.080000000000002
    29   0   1  -1.0      3.1800000000000002                       0      19.080000000000002
    30   0   1  -1.0      3.1800000000000002      3.1800000000000002      22.260000000000002
    31   0   1  -1.0                       0                       0      22.260000000000002
    32   0   1  -1.0  1.9988686863073463e-32      3.1800000000000002      19.080000000000002
    33   0   2   1.0                       0                       0      25.440000000000001
    34   0   2   1.0  1.9988686863073463e-32      3.1800000000000002      28.620000000000001
    35   0   2   1.0      3.1800000000000002                       0      28.620000000000001
    36   0   2   1.0      3.1800000000000002      3.1800000000000002      25.440000000000001
    37   0   1  -1.0      3.1800000000000002                       0      25.440000000000001
    38   0   1  -1.0      3.1800000000000002      3.1800000000000002      28.620000000000001
    39   0   1  -1.0                       0                       0      28.620000000000001
    40   0   1  -1.0  1.9988686863073463e-32      3.1800000000000002      25.440000000000001
    41   0   2   1.0                       0                       0      31.800000000000001
    42   0   2   1.0  1.9988686863073463e-32      3.1800000000000002      34.980000000000004
    43   0   2   1.0      3.1800000000000002                       0      34.980000000000004
    44   0   2   1.0      3.1800000000000002      3.1800000000000002      31.800000000000001
    45   0   1  -1.0      3.1800000000000002                       0      31.800000000000001
    46   0   1  -1.0      3.1800000000000002      3.1800000000000002      34.980000000000004
    47   0   1  -1.0                       0                       0      34.980000000000004
    48   0   1  -1.0  1.9988686863073463e-32      3.1800000000000002      31.800000000000001
    49   0   2   1.0                       0                       0      38.160000000000004
    50   0   2   1.0  1.9988686863073463e-32      3.1800000000000002      41.340000000000003
    51   0   2   1.0      3.1800000000000002                       0      41.340000000000003
    52   0   2   1.0      3.1800000000000002      3.1800000000000002      38.160000000000004
    53   0   1  -1.0      3.1800000000000002                       0      38.160000000000004
    54   0   1  -1.0      3.1800000000000002      3.1800000000000002      41.340000000000003
    55   0   1  -1.0                       0                       0      41.340000000000003
    56   0   1  -1.0  1.9988686863073463e-32      3.1800000000000002      38.160000000000004
    57   0   2   1.0                       0                       0      44.520000000000003
    58   0   2   1.0  1.9988686863073463e-32      3.1800000000000002      47.700000000000003
    59   0   2   1.0      3.1800000000000002                       0      47.700000000000003
    60   0   2   1.0      3.1800000000000002      3.1800000000000002      44.520000000000003
    61   0   1  -1.0      3.1800000000000002                       0      44.520000000000003
    62   0   1  -1.0      3.1800000000000002      3.1800000000000002      47.700000000000003
    63   0   1  -1.0                       0                       0      47.700000000000003
    64   0   1  -1.0  1.9988686863073463e-32      3.1800000000000002      44.520000000000003
    65   0   2   1.0                       0      6.3600000000000003                       0
    66   0   2   1.0  1.9988686863073463e-32      9.5400000000000009      3.1800000000000002
    67   0   2   1.0      3.1800000000000002      6.3600000000000003      3.1800000000000002
    68   0   2   1.0      3.1800000000000002      9.5400000000000009 -3.8528321521539432e-32
    69   0   1  -1.0      3.1800000000000002      6.3600000000000003 -1.9264160760769716e-32
    70   0   1  -1.0      3.1800000000000002      9.5400000000000009      3.1800000000000006
    71   0   1  -1.0                       0      6.3600000000000003      3.1800000000000002
    72   0   1  -1.0  1.9988686863073463e-32      9.5400000000000009  5.3877425273869031e-33
    73   0   2   1.0                       0      6.3600000000000003      6.3600000000000003
    74   0   2   1.0  1.9988686863073463e-32      9.5400000000000009      9.5400000000000009
    75   0   2   1.0      3.1800000000000002      6.3600000000000003      9.5400000000000009
    76   0   2   1.0      3.1800000000000002      9.5400000000000009      6.3600000000000003
    77   0   1  -1.0      3.1800000000000002      6.3600000000000003      6.3600000000000003
    78   0   1  -1.0      3.1800000000000002      9.5400000000000009      9.5400000000000009
    79   0   1  -1.0                       0      6.3600000000000003      9.5400000000000009
    80   0   1  -1.0  1.9988686863073463e-32      9.5400000000000009      6.3600000000000003
    81   0   2   1.0                       0      6.3600000000000003      12.720000000000001
    82   0   2   1.0  1.9988686863073463e-32      9.5400000000000009                    15.9
    83   0   2   1.0      3.1800000000000002      6.3600000000000003                    15.9
    84   0   2   1.0      3.1800000000000002      9.5400000000000009      12.720000000000001
    85   0   1  -1.0      3.1800000000000002      6.3600000000000003      12.720000000000001
    86   0   1  -1.0      3.1800000000000002      9.5400000000000009      15.900000000000002
    87   0   1  -1.0                       0      6.3600000000000003                    15.9
    88   0   1  -1.0  1.9988686863073463e-32      9.5400000000000009      12.720000000000001
    89   0   2   1.0                       0      6.3600000000000003      19.080000000000002
    90   0   2   1.0  1.9988686863073463e-32      9.5400000000000009      22.260000000000002
    91   0   2   1.0      3.1800000000000002      6.3600000000000003      22.260000000000002
    92   0   2   1.0      3.1800000000000002      9.5400000000000009      19.080000000000002
    93   0   1  -1.0      3.1800000000000002      6.3600000000000003      19.080000000000002
    94   0   1  -1.0      3.1800000000000002      9.5400000000000009      22.260000000000002
    95   0   1  -1.0                       0      6.3600000000000003      22.260000000000002
    96   0   1  -1.0  1.9988686863073463e-32      9.5400000000000009      19.080000000000002
    97   0   2   1.0                       0      6.3600000000000003      25.440000000000001
    98   0   2   1.0  1.9988686863073463e-32      9.5400000000000009      28.620000000000001
    99   0   2   1.0      3.1800000000000002      6.3600000000000003      28.620000000000001
   100   0   2   1.0      3.1800000000000002      9.5400000000000009      25.440000000000001
   101   0   1  -1.0      3.1800000000000002      6.3600000000000003      25.440000000000001
   102   0   1  -1.0      3.1800000000000002      9.5400000000000009      28.620000000000001
   103   0   1  -1.0                       0      6.3600000000000003      28.620000000000001
   104   0   1  -1.0  1.9988686863073463e-32      9.5400000000000009      25.440000000000001
   105   0   2   1.0                       0      6.3600000000000003      31.800000000000001
   106   0   2   1.0  1.9988686863073463e-32      9.5400000000000009      34.980000000000004
   107   0   2   1.0      3.1800000000000002      6.3600000000000003      34.980000000000004
   108   0   2   1.0      3.1800000000000002      9.5400000000000009      31.800000000000001
   109   0   1  -1.0      3.1800000000000002      6.3600000000000003      31.800000000000001
   110   0   1  -1.0      3.1800000000000002      9.5400000000000009      34.980000000000004
   111   0   1  -1.0                       0      6.3600000000000003      34.980000000000004
   112   0   1  -1.0  1.9988686863073463e-32      9.5400000000000009      31.800000000000001
   113   0   2   1.0                       0      6.3600000000000003      38.160000000000004
   114   0   2   1.0  1.9988686863073463e-32      9.5400000000000009      41.340000000000003
   115   0   2   1.0      3.1800000000000002      6.3600000000000003      41.340000000000003
   116   0   2   1.0      3.1800000000000002      9.5400000000000009      38.160000000000004
   117   0   1  -1.0      3.1800000000000002      6.3600000000000003      38.160000000000004
   118   0   1  -1.0      3.1800000000000002      9.5400000000000009      41.340000000000003
   119   0   1  -1.0                       0      6.3600000000000003      41.340000000000003
   120   0   1  -1.0  1.9988686863073463e-32      9.5400000000000009      38.160000000000004
   121   0   2   1.0                       0      6.3600000000000003      44.520000000000003
   122   0   2   1.0  1.9988686863073463e-32      9.5400000000000009      47.700000000000003
   123   0   2   1.0      3.1800000000000002      6.3600000000000003      47.700000000000003
   124   0   2   1.0      3.1800000000000002      9.5400000000000009      44.520000000000003
   125   0   1  -1.0      3.1800000000000002      6.3600000000000003      44.520000000000003
   126   0   1  -1.0      3.1800000000000002      9.5400000000000009      47.700000000000003
   127   0   1  -1.0                       0      6.3600000000000003      47.700000000000003
   128   0   1  -1.0  1.9988686863073463e-32      9.5400000000000009      44.520000000000003
   129   0   2   1.0                       0      12.720000000000001                       0
   130   0   2   1.0  1.9988686863073463e-32                    15.9      3.1800000000000002
   131   0   2   1.0      3.1800000000000002      12.720000000000001      3.1800000000000002
   132   0   2   1.0      3.1800000000000002                    15.9 -3.8528321521539432e-32
   133   0   1  -1.0      3.1800000000000002      12.720000000000001 -1.9264160760769716e-32
   134   0   1  -1.0      3.1800000000000002                    15.9      3.1800000000000006
   135   0   1  -1.0                       0      12.720000000000001      3.1800000000000002
   136   0   1  -1.0  1.9988686863073463e-32                    15.9  5.3877425273869031e-33
   137   0   2   1.0                       0      12.720000000000001      6.3600000000000003
   138   0   2   1.0  1.9988686863073463e-32                    15.9      9.5400000000000009
   139   0   2   1.0      3.1800000000000002      12.720000000000001      9.5400000000000009
   140   0   2   1.0      3.1800000000000002                    15.9      6.3600000000000003
   141   0   1  -1.0      3.1800000000000002      12.720000000000001      6.3600000000000003
   142   0   1  -1.0      3.1800000000000002                    15.9      9.5400000000000009
   143   0   1  -1.0                       0      12.720000000000001      9.5400000000000009
   144   0   1  -1.0  1.9988686863073463e-32                    15.9      6.3600000000000003
   145   0   2   1.0                       0      12.720000000000001      12.720000000000001
   146   0   2   1.0  1.9988686863073463e-32                    15.9                    15.9
   147   0   2   1.0      3.1800000000000002      12.720000000000001                    15.9
   148   0   2   1.0      3.1800000000000002                    15.9      12.720000000000001
   149   0   1  -1.0      3.1800000000000002      12.720000000000001      12.720000000000001
   150   0   1  -1.0      3.1800000000000002                    15.9      15.900000000000002
   151   0   1  -1.0                       0      12.720000000000001                    15.9
   152   0   1  -1.0  1.9988686863073463e-32                    15.9      12.720000000000001
   153   0   2   1.0                       0      12.720000000000001      19.080000000000002
   154   0   2   1.0  1.9988686863073463e-32                    15.9      22.260000000000002
   155   0   2   1.0      3.1800000000000002      12.720000000000001      22.260000000000002
   156   0   2   1.0      3.1800000000000002                    15.9      19.080000000000002
   157   0   1  -1.0      3.1800000000000002      12.720000000000001      19.080000000000002
   158   0   1  -1.0      3.1800000000000002                    15.9      22.260000000000002
   159   0   1  -1.0                       0      12.720000000000001      22.260000000000002
   160   0   1  -1.0  1.9988686863073463e-32                    15.9      19.080000000000002
   161   0   2   1.0                       0      12.720000000000001      25.440000000000001
   162   0   2   1.0  1.9988686863073463e-32                    15.9      28.620000000000001
   163   0   2   1.0      3.1800000000000002      12.720000000000001      28.620000000000001
   164   0   2   1.0      3.1800000000000002                    15.9      25.440000000000001
   165   0   1  -1.0      3.1800000000000002      12.720000000000001      25.440000000000001
   166   0   1  -1.0      3.1800000000000002                    15.9      28.620000000000001
   167   0   1  -1.0                       0      12.720000000000001      28.620000000000001
   168   0   1  -1.0  1.9988686863073463e-32                    15.9      25.440000000000001
   169   0   2   1.0                       0      12.720000000000001      31.800000000000001
   170   0   2   1.0  1.9988686863073463e-32                    15.9      34.980000000000004
   171   0   2   1.0      3.1800000000000002      12.720000000000001      34.980000000000004
   172   0   2   1.0      3.1800000000000002                    15.9      31.800000000000001
   173   0   1  -1.0      3.1800000000000002      12.720000000000001      31.800000000000001
   174   0   1  -1.0      3.1800000000000002                    15.9      34.980000000000004
   175   0   1  -1.0                       0      12.720000000000001      34.980000000000004
   176   0   1  -1.0  1.9988686863073463e-32                    15.9      31.800000000000001
   177   0   2   1.0                       0      12.720000000000001      38.160000000000004
   178   0   2   1.0  1.9988686863073463e-32                    15.9      41.340000000000003
   179   0   2   1.0      3.1800000000000002      12.720000000000001      41.340000000000003
   180   0   2   1.0      3.1800000000000002                    15.9      38.160000000000004
   181   0   1  -1.0      3.1800000000000002      12.720000000000001      38.160000000000004
   182   0   1  -1.0      3.1800000000000002                    15.9      41.340000000000003
   183   0   1  -1.0                       0      12.720000000000001      41.340000000000003
   184   0   1  -1.0  1.9988686863073463e-32                    15.9      38.160000000000004
   185   0   2   1.0                       0      12.720000000000001      44.520000000000003
   186   0   2   1.0  1.9988686863073463e-32                    15.9      47.700000000000003
   187   0   2   1.0      3.1800000000000002      12.720000000000001      47.700000000000003
   188   0   2   1.0      3.1800000000000002                    15.9      44.520000000000003
   189   0   1  -1.0      3.1800000000000002      12.720000000000001      44.520000000000003
   190   0   1  -1.0      3.1800000000000002                    15.9      47.700000000000003
   191   0   1  -1.0                       0      12.720000000000001      47.700000000000003
   192   0   1  -1.0  1.9988686863073463e-32                    15.9      44.520000000000003
   193   0   2   1.0                       0      19.080000000000002                       0
   194   0   2   1.0  1.9988686863073463e-32      22.260000000000002      3.1800000000000002
   195   0   2   1.0      3.1800000000000002      19.080000000000002      3.1800000000000002
   196   0   2   1.0      3.1800000000000002      22.260000000000002 -3.8528321521539432e-32
   197   0   1  -1.0      3.1800000000000002      19.080000000000002 -1.9264160760769716e-32
   198   0   1  -1.0      3.1800000000000002      22.260000000000002      3.1800000000000006
   199   0   1  -1.0                       0      19.080000000000002      3.1800000000000002
   200   0   1  -1.0  1.9988686863073463e-32      22.260000000000002  5.3877425273869031e-33
   201   0   2   1.0                       0      19.080000000000002      6.3600000000000003
   202   0   2   1.0  1.9988686863073463e-32      22.260000000000002      9.5400000000000009
   203   0   2   1.0      3.1800000000000002      19.080000000000002      9.5400000000000009
   204   0   2   1.0      3.1800000000000002      22.260000000000002      6.3600000000000003
   205   0   1  -1.0      3.1800000000000002      19.080000000000002      6.3600000000000003
   206   0   1  -1.0      3.1800000000000002      22.260000000000002      9.5400000000000009
   207   0   1  -1.0                       0      19.080000000000002      9.5400000000000009
   208   0   1  -1.0  1.9988686863073463e-32      22.260000000000002      6.3600000000000003
   209   0   2   1.0                       0      19.080000000000002      12.720000000000001
   210   0   2   1.0  1.9988686863073463e-32      22.260000000000002                    15.9
   211   0   2   1.0      3.1800000000000002      19.080000000000002                    15.9
   212   0   2   1.0      3.1800000000000002      22.260000000000002      12.720000000000001
   213   0   1  -1.0      3.1800000000000002      19.080000000000002      12.720000000000001
   214   0   1  -1.0      3.1800000000000002      22.260000000000002      15.900000000000002
   215   0   1  -1.0                       0      19.080000000000002                    15.9
   216   0   1  -1.0  1.9988686863073463e-32      22.260000000000002      12.720000000000001
   217   0   2   1.0                       0      19.080000000000002      19.080000000000002
   218   0   2   1.0  1.9988686863073463e-32      22.260000000000002      22.260000000000002
   219   0   2   1.0      3.1800000000000002      19.080000000000002      22.260000000000002
   220   0   2   1.0      3.1800000000000002      22.260000000000002      19.080000000000002
   221   0   1  -1.0      3.1800000000000002      19.080000000000002      19.080000000000002
   222   0   1  -1.0      3.1800000000000002      22.260000000000002      22.260000000000002
   223   0   1  -1.0                       0      19.080000000000002      22.260000000000002
   224   0   1  -1.0  1.9988686863073463e-32      22.260000000000002      19.080000000000002
   225   0   2   1.0                       0      19.080000000000002      25.440000000000001
   226   0   2   1.0  1.9988686863073463e-32      22.260000000000002      28.620000000000001
   227   0   2   1.0      3.1800000000000002      19.080000000000002      28.620000000000001
   228   0   2   1.0      3.1800000000000002      22.260000000000002      25.440000000000001
   229   0   1  -1.0      3.1800000000000002      19.080000000000002      25.440000000000001
   230   0   1  -1.0      3.1800000000000002      22.260000000000002      28.620000000000001
   231   0   1  -1.0                       0      19.080000000000002      28.620000000000001
   232   0   1  -1.0  1.9988686863073463e-32      22.260000000000002      25.440000000000001
   233   0   2   1.0                       0      19.080000000000002      31.800000000000001
   234   0   2   1.0  1.9988686863073463e-32      22.260000000000002      34.980000000000004
   235   0   2   1.0      3.1800000000000002      19.080000000000002      34.980000000000004
   236   0   2   1.0      3.1800000000000002      22.260000000000002      31.800000000000001
   237   0   1  -1.0      3.1800000000000002      19.080000000000002      31.800000000000001
   238   0   1  -1.0      3.1800000000000002      22.260000000000002      34.980000000000004
   239   0   1  -1.0                       0      19.080000000000002      34.980000000000004
   240   0   1  -1.0  1.9988686863073463e-32      22.260000000000002      31.800000000000001
   241   0   2   1.0                       0      19.080000000000002      38.160000000000004
   242   0   2   1.0  1.9988686863073463e-32      22.260000000000002      41.340000000000003
   243   0   2   1.0      3.1800000000000002      19.080000000000002      41.340000000000003
   244   0   2   1.0      3.1800000000000002      22.260000000000002      38.160000000000004
   245   0   1  -1.0      3.1800000000000002      19.080000000000002      38.160000000000004
   246   0   1  -1.0      3.1800000000000002      22.260000000000002      41.340000000000003
   247   0   1  -1.0                       0      19.080000000000002      41.340000000000003
   248   0   1  -1.0  1.9988686863073463e-32      22.260000000000002      38.160000000000004
   249   0   2   1.0                       0      19.080000000000002      44.520000000000003
   250   0   2   1.0  1.9988686863073463e-32      22.260000000000002      47.700000000000003
   251   0   2   1.0      3.1800000000000002      19.080000000000002      47.700000000000003
   252   0   2   1.0      3.1800000000000002      22.260000000000002      44.520000000000003
   253   0   1  -1.0      3.1800000000000002      19.080000000000002      44.520000000000003
   254   0   1  -1.0      3.1800000000000002      22.260000000000002      47.700000000000003
   255   0   1  -1.0                       0      19.080000000000002      47.700000000000003
   256   0   1  -1.0  1.9988686863073463e-32      22.260000000000002      44.520000000000003
   257   0   2   1.0      6.3600000000000003                       0                       0
   258   0   2   1.0      6.3600000000000003      3.1800000000000002      3.1800000000000002
   259   0   2   1.0      9.5400000000000009                       0      3.1800000000000002
   260   0   2   1.0      9.5400000000000009      3.1800000000000002 -3.8528321521539432e-32
   261   0   1  -1.0      9.5400000000000009                       0 -1.9264160760769716e-32
   262   0   1  -1.0      9.5400000000000009      3.1800000000000002      3.1800000000000006
   263   0   1  -1.0      6.3600000000000003                       0      3.1800000000000002
   264   0   1  -1.0      6.3600000000000003      3.1800000000000002  5.3877425273869031e-33
   265   0   2   1.0      6.3600000000000003                       0      6.3600000000000003
   266   0   2   1.0      6.3600000000000003      3.1800000000000002      9.5400000000000009
   267   0   2   1.0      9.5400000000000009                       0      9.5400000000000009
   268   0   2   1.0      9.5400000000000009      3.1800000000000002      6.3600000000000003
   269   0   1  -1.0      9.5400000000000009                       0      6.3600000000000003
   270   0   1  -1.0      9.5400000000000009      3.1800000000000002      9.5400000000000009
   271   0   1  -1.0      6.3600000000000003                       0      9.5400000000000009
   272   0   1  -1.0      6.3600000000000003      3.1800000000000002      6.3600000000000003
   273   0   2   1.0      6.3600000000000003                       0      12.720000000000001
   274   0   2   1.0      6.3600000000000003      3.1800000000000002                    15.9
   275   0   2   1.0      9.5400000000000009                       0                    15.9
   276   0   2   1.0      9.5400000000000009      3.1800000000000002      12.720000000000001
   277   0   1  -1.0      9.5400000000000009                       0      12.720000000000001
   278   0   1  -1.0      9.5400000000000009      3.1800000000000002      15.900000000000002
   279   0   1  -1.0      6.3600000000000003                       0                    15.9
   280   0   1  -1.0      6.3600000000000003      3.1800000000000002      12.720000000000001
   281   0   2   1.0      6.3600000000000003                       0      19.080000000000002
   282   0   2   1.0      6.3600000000000003      3.1800000000000002      22.260000000000002
   283   0   2   1.0      9.5400000000000009                       0      22.260000000000002
   284   0   2   1.0      9.5400000000000009      3.1800000000000002      19.080000000000002
   285   0   1  -1.0      9.5400000000000009                       0      19.080000000000002
   286   0   1  -1.0      9.5400000000000009      3.1800000000000002      22.260000000000002
   287   0   1  -1.0      6.3600000000000003                       0      22.260000000000002
   288   0   1  -1.0      6.3600000000000003      3.1800000000000002      19.080000000000002
   289   0   2   1.0      6.3600000000000003                       0      25.440000000000001
   290   0   2   1.0      6.3600000000000003      3.1800000000000002      28.620000000000001
   291   0   2   1.0      9.5400000000000009                       0      28.620000000000001
   292   0   2   1.0      9.5400000000000009      3.1800000000000002      25.440000000000001
   293   0   1  -1.0      9.5400000000000009                       0      25.440000000000001
   294   0   1  -1.0      9.5400000000000009      3.1800000000000002      28.620000000000001
   295   0   1  -1.0      6.3600000000000003                       0      28.620000000000001
   296   0   1  -1.0      6.3600000000000003      3.1800000000000002      25.440000000000001
   297   0   2   1.0      6.3600000000000003                       0      31.800000000000001
   298   0   2   1.0      6.3600000000000003      3.1800000000000002      34.980000000000004
   299   0   2   1.0      9.5400000000000009                       0      34.980000000000004
   300   0   2   1.0      9.5400000000000009      3.1800000000000002      31.800000000000001
   301   0   1  -1.0      9.5400000000000009                       0      31.800000000000001
   302   0   1  -1.0      9.5400000000000009      3.1800000000000002      34.980000000000004
   303   0   1  -1.0      6.3600000000000003                       0      34.980000000000004
   304   0   1  -1.0      6.3600000000000003      3.1800000000000002      31.800000000000001
   305   0   2   1.0      6.3600000000000003                       0      38.160000000000004
   306   0   2   1.0      6.3600000000000003      3.1800000000000002      41.340000000000003
   307   0   2   1.0      9.5400000000000009                       0      41.340000000000003
   308   0   2   1.0      9.5400000000000009      3.1800000000000002      38.160000000000004
   309   0   1  -1.0      9.5400000000000009                       0      38.160000000000004
   310   0   1  -1.0      9.5400000000000009      3.1800000000000002      41.340000000000003
   311   0   1  -1.0      6.3600000000000003                       0      41.340000000000003
   312   0   1  -1.0      6.3600000000000003      3.1800000000000002      38.160000000000004
   313   0   2   1.0      6.3600000000000003                       0      44.520000000000003
   314   0   2   1.0      6.3600000000000003      3.1800000000000002      47.700000000000003
   315   0   2   1.0      9.5400000000000009                       0      47.700000000000003
   316   0   2   1.0      9.5400000000000009      3.1800000000000002      44.520000000000003
   317   0   1  -1.0      9.5400000000000009                       0      44.520000000000003
   318   0   1  -1.0      9.5400000000000009      3.1800000000000002      47.700000000000003
   319   0   1  -1.0      6.3600000000000003                       0      47.700000000000003