LAMMPS (2 Aug 2023)
OMP_NUM_THREADS environment is not set. Defaulting to 1 thread. (src/comm.cpp:98)
  using 1 OpenMP thread(s) per MPI task
read_restart    ../structure.ready
Reading restart file ...
  restart file = 2 Aug 2023, LAMMPS = 2 Aug 2023
  restoring atom style full from restart
  orthogonal box = (-0.96561355 -0.92810536 -8.6502923) to (22.50209 22.464582 73.259722)
  1 by 1 by 1 MPI processor grid
  pair style chgnet/gpu stores no restart info
  1536 atoms
Finding 1-2 1-3 1-4 neighbors ...
  special bond factors lj:    0        0        0       
  special bond factors coul:  0        0        0       
     0 = max # of 1-2 neighbors
     0 = max # of 1-3 neighbors
     0 = max # of 1-4 neighbors
     1 = max # of special neighbors
  special bonds CPU = 0.000 seconds
  read_restart CPU = 0.044 seconds

pair_style      chgnet/gpu /ocean/projects/cts180021p/wuziqi/clease/lammps-ASC/potentials/CHGNET
pair_coeff      * * MPtrj-efsm Cl K Li

neighbor        0.3 bin
neigh_modify    delay 10

timestep	    0.001
compute	        msd all msd
Resetting peratom fix info from restart file:
  fix style: STORE/ATOM, fix ID: msd_COMPUTE_STORE
thermo_style	custom step temp pe etotal press vol c_msd[4]
thermo	        10
dump	        1 all custom 10 xyz-mix.dump type id x y z
dump	        2 all custom 10 force-mix.dump type id fx fy fz

fix             2 gLiquid npt temp 1500 450.0 $(100.0*dt) z 1.01325 1.01325 $(1000.0*dt) couple none
fix             2 gLiquid npt temp 1500 450.0 0.10000000000000000555 z 1.01325 1.01325 $(1000.0*dt) couple none
fix             2 gLiquid npt temp 1500 450.0 0.10000000000000000555 z 1.01325 1.01325 1 couple none
run             10000
All restart file peratom fix info was re-assigned
Neighbor list info ...
  update: every = 1 steps, delay = 10 steps, check = yes
  max neighbors/atom: 2000, page size: 100000
  master list distance cutoff = 6.3
  ghost atom cutoff = 6.3
  binsize = 3.15, bins = 8 8 27
  1 neighbor lists, perpetual/occasional/extra = 1 0 0
  (1) pair chgnet/gpu, perpetual
      attributes: full, newton on
      pair build: full/bin
      stencil: full/bin/3d
      bin: standard
Per MPI rank memory allocation (min/avg/max) = 6.552 | 6.552 | 6.552 Mbytes
   Step          Temp          PotEng         TotEng         Press          Volume        c_msd[4]   
     20000   1489.388      -5641.9178     -5346.4019      4439.9452      44966.358      56.411627    
     20010   1487.2094     -5641.4341     -5346.3504      4458.9568      44966.468      56.609392    
     20020   1520.5804     -5647.9969     -5346.292       4149.5323      44966.634      56.793892    
     20030   1505.423      -5644.9534     -5346.2559      4181.0328      44966.667      56.997403    
     20040   1496.485      -5643.2172     -5346.2931      4210.9038      44966.564      57.200737    
     20050   1480.3732     -5640.0388     -5346.3116      4265.9796      44966.336      57.386363    
     20060   1484.335      -5640.8174     -5346.3041      4171.7381      44965.68       57.563077    
     20070   1477.7061     -5639.4382     -5346.2402      4129.6029      44964.329      57.740983    
     20080   1494.2185     -5642.6217     -5346.1473      3923.8024      44962.565      57.926697    
     20090   1490.653      -5641.79       -5346.0231      3931.6303      44960.562      58.126207    
     20100   1520.4826     -5647.6084     -5345.9229      3790.6522      44958.287      58.314678    
     20110   1525.0148     -5648.4811     -5345.8963      4381.3089      44955.653      58.480753    
     20120   1507.3683     -5645.0764     -5345.993       5449.8127      44953.193      58.647089    
     20130   1504.4847     -5644.7102     -5346.1989      5859.632       44951.582      58.838156    
     20140   1496.5193     -5643.4373     -5346.5064      5874.7942      44951.146      59.044882    
     20150   1491.0865     -5642.7814     -5346.9284      5666.7808      44952.215      59.255422    
     20160   1485.5224     -5642.2163     -5347.4674      5368.4667      44954.767      59.452287    
     20170   1467.9993     -5639.3698     -5348.0977      5390.2932      44958.088      59.633613    
     20180   1475.0901     -5641.5004     -5348.8214      5179.9137      44961.812      59.827195    
     20190   1489.0671     -5645.1013     -5349.6491      4864.629       44965.783      60.042494    
     20200   1480.3435     -5644.3502     -5350.6289      4733.6815      44969.514      60.252631    
     20210   1466.7028     -5642.7484     -5351.7336      4787.2052      44972.581      60.4389      
     20220   1468.2475     -5644.2261     -5352.9047      4574.3162      44974.742      60.598236    
     20230   1499.478      -5651.692      -5354.1741      4074.4882      44975.875      60.735943    
     20240   1502.2041     -5653.6626     -5355.6038      4028.4549      44976.172      60.875269    
     20250   1492.8649     -5653.3711     -5357.1653      4428.6535      44975.842      61.034738    
     20260   1445.3666     -5645.4822     -5358.7007      5165.0679      44975.144      61.214363    
     20270   1427.2774     -5643.2937     -5360.1014      5240.3372      44974.709      61.405397    
     20280   1435.3138     -5646.0637     -5361.2769      4827.1055      44974.995      61.613631    
     20290   1435.0387     -5646.9855     -5362.2532      4353.3836      44975.798      61.810456    
     20300   1417.275      -5644.251      -5363.0433      4276.827       44976.795      61.99972     
     20310   1441.7443     -5649.6812     -5363.6184      4216.5457      44977.76       62.198561    
     20320   1481.8379     -5658.1362     -5364.1184      4286.2014      44978.419      62.387366    
     20330   1473.6415     -5657.001      -5364.6094      4762.267       44978.895      62.559722    
     20340   1465.4112     -5655.8789     -5365.1203      4957.8459      44979.891      62.732565    
     20350   1439.2887     -5651.1632     -5365.5877      4831.0625      44981.862      62.92497     
     20360   1429.8485     -5649.6921     -5365.9897      4396.7019      44984.611      63.126308    
     20370   1396.0945     -5643.2439     -5366.2388      4736.7985      44987.587      63.311411    
     20380   1404.9029     -5645.0343     -5366.2814      4920.2439      44990.862      63.475651    
     20390   1443.3256     -5652.5043     -5366.1278      4648.7668      44994.691      63.638543    
     20400   1446.8336     -5652.9719     -5365.8994      4667.5666      44999.035      63.813688    
     20410   1445.5194     -5652.4574     -5365.6456      4354.7843      45003.721      64.00594     
     20420   1439.4154     -5650.9373     -5365.3366      4276.5271      45008.511      64.199755    
     20430   1409.446      -5644.6077     -5364.9534      4688.6964      45013.448      64.375766    
     20440   1431.069      -5648.3848     -5364.4402      4640.6316      45018.687      64.520985    
     20450   1447.4426     -5650.975      -5363.7816      4502.2284      45024.247      64.662512    
     20460   1408.3155     -5642.4661     -5363.0361      4832.9697      45030.348      64.821861    
     20470   1411.9174     -5642.2852     -5362.1405      4652.1464      45037.543      64.990514    
     20480   1442.5745     -5647.2653     -5361.0378      4270.1971      45045.847      65.153618    
     20490   1468.5001     -5651.1907     -5359.8192      4176.0521      45054.893      65.302717    
     20500   1479.7605     -5652.1794     -5358.5738      4167.2168      45064.314      65.459547    
     20510   1502.8521     -5655.5973     -5357.4099      3927.8357      45073.692      65.657125    
     20520   1499.4988     -5653.9006     -5356.3786      3886.4929      45082.741      65.864301    
     20530   1501.1665     -5653.3997     -5355.5467      3639.6949      45091.7        66.037793    
     20540   1493.0659     -5651.1515     -5354.9058      3399.3763      45100.757      66.175419    
     20550   1500.7016     -5652.2106     -5354.4499      3033.7358      45109.683      66.322248    
     20560   1501.5961     -5652.1201     -5354.182       3228.4178      45118.289      66.518833    
     20570   1464.1476     -5644.6146     -5354.1068      4013.2212      45126.741      66.748571    
     20580   1456.2354     -5643.0879     -5354.1499      4474.7908      45135.254      66.959182    
     20590   1432.3621     -5638.4304     -5354.2293      4742.5216      45143.717      67.140974    
     20600   1405.3068     -5633.1515     -5354.3185      4708.0234      45152.113      67.335054    
     20610   1422.7296     -5636.599      -5354.3091      4377.503       45160.687      67.55398     
     20620   1449.3279     -5641.8296     -5354.2622      4127.407       45169.731      67.778631    
     20630   1453.1675     -5642.5708     -5354.2416      4137.5676      45179.51       67.994011    
     20640   1464.8681     -5644.938      -5354.2872      3963.5515      45190.183      68.188652    
     20650   1484.2249     -5649.0117     -5354.5202      3607.3931      45201.257      68.351053    
     20660   1456.4731     -5643.9587     -5354.9736      3982.405       45212.043      68.490081    
     20670   1431.4729     -5639.696      -5355.6713      4564.1148      45222.61       68.643796    
     20680   1429.8862     -5640.2615     -5356.5516      4494.7636      45233.078      68.838356    
     20690   1404.8343     -5636.2833     -5357.5441      4268.0304      45243.471      69.060435    
     20700   1408.4638     -5638.0898     -5358.6305      3508.4446      45253.917      69.268626    
     20710   1421.0433     -5641.6824     -5359.727       3136.993       45264.226      69.443639    
     20720   1415.6649     -5641.7812     -5360.8931      3124.4491      45274.226      69.595218    
     20730   1421.8463     -5644.1847     -5362.07        3137.2943      45284.025      69.728586    
     20740   1423.5246     -5645.7056     -5363.2579      3650.5934      45293.564      69.859482    
     20750   1412.3754     -5644.6758     -5364.4403      4131.4845      45302.923      70.003617    
     20760   1415.1586     -5646.3831     -5365.5953      3811.0242      45312.398      70.175753    
     20770   1407.1514     -5645.8652     -5366.6662      3177.1654      45322.111      70.380592    
     20780   1412.4777     -5647.942      -5367.6862      2704.6788      45331.801      70.590258    
     20790   1388.2443     -5644.0811     -5368.6335      2822.2555      45341.178      70.77771     
     20800   1381.3398     -5643.5112     -5369.4336      3101.5304      45350.118      70.935738    
     20810   1389.5655     -5645.7883     -5370.0786      3450.4433      45358.471      71.063451    
     20820   1386.6092     -5645.7751     -5370.652       3866.8486      45366.196      71.19755     
     20830   1352.8355     -5639.476      -5371.054       4327.5765      45373.606      71.372704    
     20840   1372.267      -5643.5834     -5371.306       4011.8769      45380.971      71.548287    
     20850   1367.0179     -5642.6067     -5371.3708      3642.2011      45388.036      71.6774      
     20860   1398.1699     -5648.7415     -5371.3245      2622.2848      45394.328      71.783212    
     20870   1394.4567     -5647.89       -5371.2098      2442.447       45399.172      71.892568    
     20880   1398.8716     -5648.6294     -5371.0732      2553.8795      45402.343      72.011621    
     20890   1389.4303     -5646.5464     -5370.8635      2822.3045      45403.779      72.148115    
     20900   1384.8577     -5645.3972     -5370.6216      2723.0596      45403.733      72.284594    
     20910   1372.9705     -5642.6986     -5370.2816      2723.6044      45402.629      72.401975    
     20920   1371.1823     -5641.8926     -5369.8304      2514.71        45400.753      72.487594    
     20930   1396.664      -5646.3684     -5369.2503      2063.9485      45397.909      72.560155    
     20940   1416.5943     -5649.6683     -5368.5957      1900.5442      45393.579      72.64562     
     20950   1421.0214     -5649.9045     -5367.9535      2125.3045      45387.501      72.733662    
     20960   1375.2706     -5640.1945     -5367.3211      2913.0901      45379.785      72.809069    
     20970   1374.161      -5639.2482     -5366.595       3184.0632      45370.861      72.868126    
     20980   1401.1279     -5643.7654     -5365.7615      3054.0865      45361.26       72.936735    
     20990   1410.7709     -5644.7791     -5364.8619      3155.91        45351.229      72.989831    
     21000   1403.7413     -5642.4807     -5363.9583      3289.5229      45340.776      73.0116      
     21010   1404.6108     -5641.7435     -5363.0486      3222.2733      45329.695      73.020666    
     21020   1423.7339     -5644.6406     -5362.1514      2914.679       45317.714      73.021444    
     21030   1411.452      -5641.3462     -5361.2939      3266.6305      45304.569      73.013247    
     21040   1436.6878     -5645.5532     -5360.4938      3480.05        45290.519      73.041011    
     21050   1446.8739     -5646.8826     -5359.8021      3745.6484      45275.999      73.118029    
     21060   1439.8811     -5644.9834     -5359.2904      3974.3423      45261.224      73.200985    
     21070   1440.0715     -5644.6827     -5358.9519      3932.421       45246.114      73.244552    
     21080   1450.0914     -5646.5164     -5358.7975      3717.0967      45230.504      73.255455    
     21090   1448.9463     -5646.3629     -5358.8712      3640.5423      45214.174      73.260183    
     21100   1422.7541     -5641.4879     -5359.1931      4123.4842      45196.99       73.25423     
     21110   1374.527      -5632.3689     -5359.6431      4764.3082      45179.392      73.253144    
     21120   1401.9705     -5638.3689     -5360.1979      4114.3644      45161.913      73.265183    
     21130   1405.7064     -5639.7891     -5360.8768      3525.827       45144.299      73.298522    
     21140   1409.4498     -5641.4312     -5361.7761      2874.5901      45126.251      73.367743    
     21150   1399.9192     -5640.7002     -5362.9362      3042.5384      45107.729      73.464598    
     21160   1409.3946     -5644.0162     -5364.3722      3305.3064      45088.99       73.558863    
     21170   1425.5638     -5649.0132     -5366.1609      3643.2698      45070.179      73.631188    
     21180   1410.6254     -5648.1064     -5368.2182      4276.6248      45051.488      73.687873    
     21190   1431.3749     -5654.4943     -5370.489       4291.7323      45033.573      73.708591    
     21200   1387.4249     -5647.9918     -5372.7069      4572.5484      45016.501      73.704321    
     21210   1387.6223     -5650.0023     -5374.6782      4119.8258      44999.943      73.713039    
     21220   1364.3001     -5646.9489     -5376.2522      4154.566       44983.516      73.752419    
     21230   1374.0426     -5650.0829     -5377.4532      4141.1803      44967.345      73.792765    
     21240   1393.5852     -5654.8997     -5378.3924      3761.3717      44951.696      73.811868    
     21250   1401.91       -5657.41       -5379.251       3340.3235      44936.569      73.829378    
     21260   1393.849      -5656.6077     -5380.0481      3195.228       44921.796      73.840747    
     21270   1368.5393     -5652.3263     -5380.7885      3229.1475      44907.125      73.853569    
     21280   1374.7059     -5654.2452     -5381.4839      3235.5919      44892.354      73.890638    
     21290   1347.8317     -5649.5175     -5382.0883      3529.8212      44877.333      73.928327    
     21300   1357.3283     -5651.9604     -5382.6471      3331.545       44861.75       73.930301    
     21310   1355.5679     -5652.0868     -5383.1227      3056.4701      44845.162      73.902913    
     21320   1356.1975     -5652.6694     -5383.5804      3004.0719      44827.432      73.852838    
     21330   1347.2139     -5651.3046     -5383.998       3227.214       44808.604      73.784873    
     21340   1327.8506     -5647.8219     -5384.3573      3347.9595      44788.719      73.711498    
     21350   1347.3562     -5651.9597     -5384.625       3031.9344      44768.028      73.626979    
     21360   1373.5814     -5657.395      -5384.8568      2775.1739      44746.6        73.506213    
     21370   1376.687      -5658.2974     -5385.1429      3176.548       44724.379      73.362993    
     21380   1374.0476     -5658.1216     -5385.4909      3748.7961      44701.726      73.228142    
     21390   1382.2371     -5660.1691     -5385.9134      3895.4986      44679.145      73.120199    
     21400   1398.9929     -5664.0289     -5386.4487      3787.0309      44656.915      73.06693     
     21410   1375.3945     -5660.0369     -5387.1389      4029.1223      44635.112      73.045893    
     21420   1359.9305     -5657.7451     -5387.9154      4080.7999      44613.789      73.026049    
     21430   1393.8118     -5665.3832     -5388.8309      3627.8278      44592.843      73.013055    
     21440   1351.1429     -5657.9121     -5389.826       4182.3718      44572.108      72.989341    
     21450   1334.0369     -5655.509      -5390.817       4340.5636      44551.813      72.916417    
     21460   1358.5495     -5661.3311     -5391.7754      4031.3198      44531.992      72.808352    
     21470   1350.3821     -5660.6843     -5392.7492      4209.0232      44512.466      72.707232    
     21480   1347.5937     -5661.089      -5393.7071      4356.2134      44493.42       72.648051    
     21490   1351.4621     -5662.793      -5394.6435      4290.469       44475.24       72.64619     
     21500   1330.6999     -5659.5718     -5395.5419      4529.1237      44457.933      72.662709    
     21510   1355.7629     -5665.4052     -5396.4024      4484.4351      44441.486      72.671711    
     21520   1371.7111     -5669.4489     -5397.2817      4729.1577      44425.894      72.692456    
     21530   1372.323      -5670.5024     -5398.2139      4977.435       44411.195      72.719305    
     21540   1375.976      -5672.2321     -5399.2187      4599.6674      44397.594      72.718925    
     21550   1357.3956     -5669.61       -5400.2833      4197.8379      44385.184      72.690351    
     21560   1316.7966     -5662.5469     -5401.2756      3951.8387      44373.795      72.65367     
     21570   1316.5414     -5663.3599     -5402.1392      3807.8998      44363.126      72.602672    
     21580   1315.5923     -5663.8835     -5402.8512      4193.1384      44352.864      72.5347      
     21590   1313.4491     -5664.0381     -5403.431       4756.2319      44343.064      72.461873    
     21600   1338.0738     -5669.4283     -5403.9353      4845.4139      44334.001      72.421391    
     21610   1329.6439     -5668.1924     -5404.372       5103.3097      44326.063      72.435193    
     21620   1322.5092     -5667.1769     -5404.7721      4930.1514      44319.539      72.489924    
     21630   1353.725      -5673.746      -5405.1475      4176.293       44314.117      72.565443    
     21640   1351.3689     -5673.7028     -5405.5718      4108.6247      44309.231      72.643493    
     21650   1322.8294     -5668.4879     -5406.0196      4544.5158      44304.859      72.715103    
     21660   1329.1534     -5670.1838     -5406.4608      4508.4553      44301.004      72.777937    
     21670   1315.9829     -5667.9639     -5406.854       4737.2524      44297.537      72.850554    
     21680   1333.6059     -5671.856      -5407.2494      4828.9031      44294.623      72.935375    
     21690   1323.1466     -5670.1267     -5407.5955      4972.3354      44292.72       73.027403    
     21700   1343.807      -5674.6219     -5407.9914      4539.8827      44292.109      73.115917    
     21710   1339.0716     -5674.1118     -5408.4208      4333.4363      44292.505      73.205369    
     21720   1317.9216     -5670.3845     -5408.89        4294.6245      44293.606      73.309126    
     21730   1314.4239     -5670.1461     -5409.3456      4153.2847      44295.47       73.422774    
     21740   1327.5058     -5673.1868     -5409.7906      3832.855       44297.935      73.545325    
     21750   1325.5037     -5673.2604     -5410.2614      4204.4471      44300.565      73.68872     
     21760   1312.7361     -5671.1993     -5410.7337      4906.9744      44303.49       73.852965    
     21770   1341.3831     -5677.3645     -5411.2149      4875.1288      44307.304      74.042157    
     21780   1344.6612     -5678.5767     -5411.7766      4781.5476      44312.33       74.254266    
     21790   1319.9645     -5674.3407     -5412.4408      4797.8732      44318.487      74.486043    
     21800   1289.9472     -5669.0328     -5413.0888      4794.5295      44325.687      74.704138    
     21810   1289.5772     -5669.5554     -5413.6848      4497.9347      44333.829      74.880431    
     21820   1274.987      -5667.1414     -5414.1657      4413.1771      44342.519      75.039114    
     21830   1262.3543     -5664.9818     -5414.5126      4535.6005      44351.656      75.212306    
     21840   1283.058      -5669.3119     -5414.7348      4240.9418      44361.333      75.386255    
     21850   1276.0735     -5668.0481     -5414.8568      4362.727       44371.633      75.54262     
     21860   1252.2738     -5663.3423     -5414.8732      4649.9999      44382.736      75.696438    
     21870   1275.713      -5667.8654     -5414.7456      4170.3599      44394.925      75.856355    
     21880   1284.5149     -5669.3602     -5414.4941      4183.6198      44408.083      76.022997    
     21890   1294.5524     -5671.0214     -5414.1636      4303.7011      44421.842      76.192579    
     21900   1307.9109     -5673.2468     -5413.7386      4327.7262      44435.826      76.357184    
     21910   1333.8554     -5677.9966     -5413.3406      4221.1549      44449.988      76.508019    
     21920   1325.7689     -5676.0059     -5412.9543      4406.8026      44464.706      76.643392    
     21930   1334.2674     -5677.389      -5412.6513      4126.6434      44480.254      76.762869    
     21940   1320.1555     -5674.3165     -5412.3788      3828.4244      44496.845      76.88755     
     21950   1306.2329     -5671.3044     -5412.1291      3572.1762      44514.646      77.041259    
     21960   1318.521      -5673.4622     -5411.8487      3273.4889      44533.454      77.237888    
     21970   1319.0213     -5673.238      -5411.5253      3705.2281      44552.623      77.457885    
     21980   1327.4493     -5674.6091     -5411.2242      4228.0973      44571.639      77.669631    
     21990   1330.4312     -5674.9146     -5410.9379      4381.0074      44590.463      77.874291    
     22000   1334.1447     -5675.5034     -5410.79        4134.8946      44609.402      78.050276    
     22010   1315.8927     -5671.8669     -5410.775       4258.6672      44628.844      78.202932    
     22020   1296.1805     -5668.0452     -5410.8644      4508.3903      44649.03       78.348713    
     22030   1289.9578     -5666.9487     -5411.0026      4986.5956      44669.974      78.491282    
     22040   1302.7303     -5669.658      -5411.1776      5108.9399      44691.604      78.637679    
     22050   1312.6918     -5671.8538     -5411.3969      4689.8269      44713.765      78.822192    
     22060   1334.1734     -5676.505      -5411.7859      3917.6281      44736.318      79.065282    
     22070   1292.6075     -5668.7692     -5412.2973      3514.7275      44758.755      79.334509    
     22080   1291.1072     -5669.0702     -5412.896       2711.4819      44780.716      79.597137    
     22090   1299.8307     -5671.4443     -5413.5393      2046.1538      44801.931      79.851133    
     22100   1301.2716     -5672.4734     -5414.2825      1840.5759      44822.094      80.083627    
     22110   1289.672      -5670.9913     -5415.1019      2203.3587      44841.304      80.278235    
     22120   1283.7343     -5670.6888     -5415.9776      2304.9083      44859.783      80.461921    
     22130   1275.6305     -5669.9612     -5416.8578      2276.4723      44877.562      80.666991    
     22140   1273.582      -5670.4402     -5417.7433      2321.3951      44894.705      80.896672    
     22150   1264.2842     -5669.4371     -5418.585       2356.3317      44911.365      81.137412    
     22160   1266.9242     -5670.7727     -5419.3968      1956.6341      44927.273      81.360891    
     22170   1245.9608     -5667.3354     -5420.119       1864.7712      44942.03       81.53722     
     22180   1260.5469     -5670.8844     -5420.7738      1513.8773      44955.736      81.664579    
     22190   1290.2366     -5677.403      -5421.4015      1380.5887      44968.315      81.760594    
     22200   1283.4631     -5676.7474     -5422.09        1876.8661      44979.714      81.825124    
     22210   1256.7611     -5672.1409     -5422.7815      2357.8234      44990.323      81.858364    
     22220   1283.5212     -5678.1398     -5423.4708      1926.8376      45000.35       81.891229    
     22230   1272.3331     -5676.6328     -5424.1837      1860.8418      45009.69       81.945727    
     22240   1264.2486     -5675.7458     -5424.9008      2066.8133      45018.262      82.027983    
     22250   1257.3712     -5675.0903     -5425.6099      2145.1882      45025.997      82.129367    
     22260   1257.5627     -5675.8099     -5426.2915      2099.3236      45032.87       82.230396    
     22270   1251.6215     -5675.2819     -5426.9422      1946.2182      45038.665      82.331042    
     22280   1233.2777     -5672.2181     -5427.5182      1889.0881      45043.226      82.437799    
     22290   1232.3525     -5672.5272     -5428.0108      1563.7828      45046.478      82.539826    
     22300   1251.2989     -5676.6943     -5428.4187      1339.9988      45048.113      82.633735    
     22310   1250.9249     -5677.0111     -5428.8097      1765.2175      45047.772      82.720451    
     22320   1217.3176     -5670.6855     -5429.1523      2455.6686      45045.462      82.801495    
     22330   1215.0644     -5670.4816     -5429.3954      2489.5848      45041.465      82.88852     
     22340   1210.0059     -5669.5602     -5429.4777      2284.038       45036.044      82.972544    
     22350   1211.6067     -5669.8389     -5429.4387      1922.7221      45029.312      83.021897    
     22360   1218.2373     -5670.9697     -5429.254       1642.6572      45021.14       83.052585    
     22370   1221.7392     -5671.3506     -5428.94        1860.8601      45011.372      83.089437    
     22380   1224.2452     -5671.4205     -5428.5128      2223.9273      45000.155      83.141006    
     22390   1232.2682     -5672.4694     -5427.9697      2625.7105      44987.688      83.205684    
     22400   1234.2618     -5672.2174     -5427.3222      2785.2508      44973.959      83.281494    
     22410   1261.9732     -5676.9862     -5426.5926      2532.8642      44958.914      83.370777    
     22420   1255.9395     -5675.024      -5425.8277      2663.2325      44942.476      83.449584    
     22430   1256.9065     -5674.4692     -5425.081       2696.1664      44924.912      83.507918    
     22440   1268.7076     -5676.037      -5424.3072      2658.005       44906.608      83.574086    
     22450   1289.2196     -5679.375      -5423.5754      2519.642       44887.688      83.657342    
     22460   1300.5166     -5681.0131     -5422.9719      2364.0354      44867.908      83.731762    
     22470   1299.0519     -5680.2788     -5422.5283      2426.5081      44847.003      83.764455    
     22480   1276.3024     -5675.5265     -5422.2898      2853.5466      44824.88       83.75678     
     22490   1270.1958     -5674.1851     -5422.16        3189.0669      44801.938      83.723199    
     22500   1258.7542     -5671.8816     -5422.1267      3414.7008      44778.534      83.669399    
     22510   1247.8906     -5669.7664     -5422.167       3696.6996      44754.991      83.603786    
     22520   1263.7045     -5673.0128     -5422.2758      3380.0958      44731.584      83.543875    
     22530   1261.3617     -5672.7664     -5422.4941      3131.1387      44708.231      83.501734    
     22540   1249.4834     -5670.7928     -5422.8774      2886.0238      44684.487      83.466605    
     22550   1259.5435     -5673.3234     -5423.4119      2696.7889      44659.743      83.413546    
     22560   1271.6084     -5676.4962     -5424.1909      2727.9043      44633.551      83.331683    
     22570   1266.2488     -5676.49       -5425.2481      2933.0899      44605.865      83.238128    
     22580   1292.0503     -5683.0459     -5426.6846      2872.7651      44576.917      83.149732    
     22590   1270.2703     -5680.5132     -5428.4734      3313.5281      44546.817      83.068317    
     22600   1267.9606     -5682.0688     -5430.4873      3514.7815      44515.969      83.005901    
     22610   1268.9304     -5684.3672     -5432.5932      3632.1196      44484.798      82.964114    
     22620   1236.8708     -5679.9408     -5434.5279      4165.9318      44453.624      82.922049    
     22630   1212.2087     -5676.6372     -5436.1176      4372.8095      44422.695      82.847609    
     22640   1255.7342     -5686.5985     -5437.4429      3708.2548      44391.786      82.738341    
     22650   1244.0166     -5685.3809     -5438.5501      3553.7047      44360.604      82.639423    
     22660   1241.3929     -5685.828      -5439.5179      3496.5205      44329.375      82.572547    
     22670   1245.7955     -5687.5884     -5440.4047      3472.4669      44298.2        82.537831    
     22680   1258.4339     -5690.9634     -5441.2721      3416.496       44266.833      82.533915    
     22690   1272.4915     -5694.6727     -5442.1922      3310.2436      44234.999      82.539446    
     22700   1242.7781     -5689.7681     -5443.1831      3515.9515      44202.533      82.538487    
     22710   1209.5999     -5684.1434     -5444.1415      3842.2778      44169.543      82.548376    
     22720   1197.5187     -5682.5951     -5444.9902      3967.7226      44136.323      82.575073    
     22730   1186.9398     -5681.2134     -5445.7075      4304.1076      44103.295      82.61098     
     22740   1151.4551     -5674.7135     -5446.2483      4905.2069      44071.144      82.637181    
     22750   1134.2202     -5671.5996     -5446.5541      5365.5614      44040.337      82.628828    
     22760   1176.0953     -5679.9961     -5446.6419      4886.431       44011.016      82.549499    
     22770   1193.8238     -5683.4714     -5446.5997      4619.4858      43982.8        82.436818    
     22780   1221.1575     -5688.8342     -5446.5391      4432.6759      43955.317      82.341755    
     22790   1231.358      -5690.807      -5446.4879      4568.3733      43928.401      82.255518    
     22800   1233.502      -5691.2922     -5446.5478      4680.3283      43902.215      82.188504    
     22810   1219.1572     -5688.5596     -5446.6613      5002.8673      43877.086      82.151254    
     22820   1232.1424     -5691.3354     -5446.8608      4773.5471      43853.359      82.116398    
     22830   1239.0464     -5693.0105     -5447.166       4765.1175      43831.067      82.086571    
     22840   1216.1181     -5688.8745     -5447.5793      4780.666       43810.126      82.087426    
     22850   1214.5063     -5689.0529     -5448.0774      4362.1909      43790.489      82.09891     
     22860   1219.6134     -5690.6385     -5448.6498      4232.0497      43772.095      82.101597    
     22870   1222.8267     -5691.9382     -5449.3119      4350.4302      43754.935      82.081723    
     22880   1207.156      -5689.5765     -5450.0595      4578.5926      43739.032      82.045877    
     22890   1204.1417     -5689.7728     -5450.8539      4500.6988      43724.359      82.012079    
     22900   1206.7258     -5691.1296     -5451.698       4394.611       43710.71       82.001992    
     22910   1198.2459     -5690.3038     -5452.5547      4584.9304      43698.011      82.027609    
     22920   1203.6363     -5692.2495     -5453.4308      4576.7677      43686.413      82.071311    
     22930   1190.6716     -5690.5499     -5454.3036      4695.7614      43675.897      82.119398    
     22940   1199.2852     -5693.1299     -5455.1745      4309.2605      43666.535      82.169595    
     22950   1193.6074     -5692.8409     -5456.0121      3979.7837      43658.239      82.256813    
     22960   1200.0193     -5694.95       -5456.8489      3460.5659      43650.746      82.383514    
     22970   1202.2018     -5696.2064     -5457.6724      3255.8478      43643.798      82.524859    
     22980   1207.8591     -5698.1594     -5458.5029      3352.76        43637.336      82.639148    
     22990   1208.4852     -5699.1401     -5459.3594      3702.6289      43631.142      82.702958    
     23000   1211.3259     -5700.5654     -5460.221       4050.6736      43625.144      82.740789    
     23010   1199.3835     -5699.0684     -5461.0935      4279.4979      43619.885      82.792791    
     23020   1179.1149     -5695.8757     -5461.9225      4581.6449      43615.981      82.869605    
     23030   1153.3561     -5691.4867     -5462.6443      4769.4611      43613.777      82.973492    
     23040   1141.4918     -5689.6729     -5463.1845      5090.5829      43613.413      83.101829    
     23050   1174.4506     -5696.6257     -5463.5979      5305.8093      43614.957      83.24242     
     23060   1198.0693     -5701.6604     -5463.9463      5542.0283      43618.198      83.383808    
     23070   1223.84       -5707.1949     -5464.3676      5411.7709      43622.841      83.520179    
     23080   1199.3572     -5702.8239     -5464.8542      5337.7675      43628.578      83.634855    
     23090   1198.2163     -5703.1593     -5465.416       4788.3848      43635.253      83.749699    
     23100   1200.3612     -5704.1635     -5465.9946      4113.3624      43642.779      83.888711    
     23110   1186.1054     -5701.9545     -5466.6142      4075.2653      43651.046      84.062922    
     23120   1157.5628     -5696.8898     -5467.2127      4354.6248      43659.99       84.279375    
     23130   1145.7559     -5695.0437     -5467.7093      4246.0879      43669.611      84.534558    
     23140   1139.7001     -5694.2139     -5468.081       4192.3206      43679.724      84.810024    
     23150   1138.5516     -5694.2424     -5468.3375      4454.0625      43690.319      85.084473    
     23160   1145.2531     -5695.7106     -5468.4759      4462.7219      43701.65       85.33697     
     23170   1161.3215     -5698.9724     -5468.5496      4024.6292      43713.737      85.554755    
     23180   1147.1693     -5696.1793     -5468.5645      3934.791       43726.285      85.722757    
     23190   1154.6571     -5697.6478     -5468.5473      3782.1736      43739.331      85.857449    
     23200   1155.3411     -5697.7262     -5468.49        3767.8215      43753.137      85.982348    
     23210   1152.0963     -5696.9824     -5468.39        3741.507       43767.518      86.090227    
     23220   1150.2132     -5696.4716     -5468.2528      3779.4512      43781.912      86.164995    
     23230   1165.2982     -5699.3093     -5468.0975      3531.8687      43796.149      86.220774    
     23240   1163.6678     -5698.8325     -5467.9442      3436.8093      43810.375      86.285982    
     23250   1147.8731     -5695.5527     -5467.7983      3385.8943      43824.737      86.356508    
     23260   1143.3886     -5694.4834     -5467.6187      3327.2729      43839.057      86.426809    
     23270   1150.0927     -5695.578      -5467.3831      3279.3267      43853.166      86.534043    
     23280   1151.4569     -5695.5758     -5467.1103      3388.3183      43867.155      86.693193    
     23290   1173.1436     -5699.6001     -5466.8316      3250.1454      43881.236      86.865051    
     23300   1161.8892     -5697.0996     -5466.5641      3560.8275      43895.82       87.033871    
     23310   1165.8678     -5697.668      -5466.3431      3598.7216      43911.176      87.201526    
     23320   1161.4363     -5696.5627     -5466.1171      3659.5907      43927.104      87.344573    
     23330   1146.4598     -5693.3624     -5465.8884      3912.8769      43943.515      87.454181    
     23340   1159.1276     -5695.6183     -5465.6308      3809.0138      43960.485      87.547712    
     23350   1154.6712     -5694.427      -5465.3237      3792.2546      43977.746      87.642988    
     23360   1144.3816     -5692.0188     -5464.9571      3517.5732      43995.139      87.739308    
     23370   1171.1231     -5696.8623     -5464.4947      2727.5795      44012.503      87.844702    
     23380   1188.1659     -5699.7437     -5463.9945      2447.15        44029.518      87.962642    
     23390   1174.7891     -5696.5997     -5463.5048      2949.2227      44046.016      88.078511    
     23400   1184.8616     -5698.1506     -5463.0571      3389.229       44062.196      88.200392    
     23410   1185.9482     -5697.9675     -5462.6584      3503.7184      44078.319      88.325756    
     23420   1206.224      -5701.7344     -5462.4023      3407.1072      44094.494      88.442212    
     23430   1184.1462     -5697.2596     -5462.3081      3874.7967      44110.89       88.555051    
     23440   1174.411      -5695.4143     -5462.3943      4029.5807      44127.733      88.68717     
     23450   1199.3789     -5700.6361     -5462.6621      3339.1425      44145.082      88.84227     
     23460   1195.1587     -5700.2889     -5463.1523      2847.7076      44162.625      88.994584    
     23470   1179.6159     -5697.9456     -5463.8929      2774.7488      44179.948      89.132099    
     23480   1170.7624     -5697.1304     -5464.8343      2839.7472      44196.87       89.265112    
     23490   1150.1839     -5694.126      -5465.913       2979.5705      44213.423      89.40649     
     23500   1156.4202     -5696.5389     -5467.0886      2817.5078      44229.793      89.560136    
     23510   1145.77       -5695.6256     -5468.2884      2874.9225      44245.886      89.717025    
     23520   1134.8813     -5694.6665     -5469.4898      2958.3104      44261.702      89.85629     
     23530   1118.3409     -5692.4758     -5470.581       2766.6319      44277.272      89.972879    
     23540   1141.1618     -5697.9921     -5471.5692      2366.8047      44292.294      90.098747    
     23550   1137.7018     -5698.2327     -5472.4963      2595.7216      44306.367      90.246846    
     23560   1121.0438     -5695.7944     -5473.3633      3096.9691      44319.647      90.408887    
     23570   1127.7284     -5697.9177     -5474.1603      3085.4713      44332.519      90.55636     
     23580   1112.04       -5695.4949     -5474.8502      2852.9924      44345.074      90.682224    
     23590   1137.4957     -5701.1818     -5475.4863      2012.8188      44357.326      90.801087    
     23600   1138.8758     -5702.0892     -5476.12        1549.2616      44369.003      90.91601     
     23610   1118.755      -5698.7278     -5476.7508      1806.1337      44380.012      91.029041    
     23620   1109.8597     -5697.5446     -5477.3325      1915.0361      44390.678      91.153543    
     23630   1115.6489     -5699.2148     -5477.8541      1627.8585      44401.053      91.308835    
     23640   1108.4504     -5698.2686     -5478.3361      1457.8911      44410.922      91.471263    
     23650   1100.4839     -5697.1088     -5478.757       1583.5239      44420.187      91.604912    
     23660   1120.881      -5701.5421     -5479.1433      1438.1135      44428.766      91.723504    
     23670   1114.1246     -5700.5541     -5479.4958      1597.3882      44436.418      91.855751    
     23680   1105.1852     -5699.1442     -5479.8596      1841.1418      44443.123      91.986288    
     23690   1112.1002     -5700.85       -5480.1934      1778.601       44449.152      92.091207    
     23700   1124.3502     -5703.6222     -5480.535       1501.4041      44454.458      92.156924    
     23710   1116.7884     -5702.502      -5480.9151      1795.6095      44458.866      92.17983     
     23720   1125.4984     -5704.6527     -5481.3377      2046.8831      44462.545      92.17001     
     23730   1119.021      -5703.8262     -5481.7964      2362.5989      44465.665      92.156468    
     23740   1114.5695     -5703.449      -5482.3024      2505.5651      44468.29       92.165967    
     23750   1131.1701     -5707.303      -5482.8626      1951.0238      44470.523      92.198299    
     23760   1140.288      -5709.7698     -5483.5203      1573.1943      44472.202      92.244232    
     23770   1121.5021     -5706.8229     -5484.3008      1821.9751      44473.115      92.305104    
     23780   1103.4341     -5704.0576     -5485.1205      2055.6432      44473.287      92.368216    
     23790   1095.7845     -5703.3574     -5485.9381      1844.256       44472.567      92.425024    
     23800   1090.7035     -5703.1102     -5486.699       1226.5862      44470.851      92.486882    
     23810   1104.5975     -5706.5991     -5487.4312      407.61455      44467.951      92.561523    
     23820   1100.7614     -5706.553      -5488.1461      498.98621      44463.674      92.650579    
     23830   1098.2632     -5706.7526     -5488.8414      897.40564      44458.1        92.744214    
     23840   1099.5813     -5707.6696     -5489.4969      1082.6125      44451.364      92.823323    
     23850   1102.4621     -5708.8806     -5490.1363      1062.654       44443.448      92.870386    
     23860   1077.8276     -5704.5769     -5490.7205      1467.5571      44434.283      92.881311    
     23870   1089.1216     -5707.3334     -5491.2361      1389.9626      44423.969      92.865778    
     23880   1088.312      -5707.6267     -5491.69        1067.6644      44412.397      92.852667    
     23890   1079.1076     -5706.2014     -5492.091       862.02086      44399.368      92.841973    
     23900   1099.286      -5710.5542     -5492.4401      459.70551      44384.746      92.806177    
     23910   1107.8919     -5712.624      -5492.8024      330.98901      44368.307      92.753331    
     23920   1076.1806     -5706.7097     -5493.1801      794.80596      44349.783      92.687083    
     23930   1079.9886     -5707.8007     -5493.5155      867.69609      44329.287      92.588144    
     23940   1067.3736     -5705.5349     -5493.7527      950.63209      44307.251      92.449869    
     23950   1056.2348     -5703.4823     -5493.9102      1000.1546      44284.504      92.297825    
     23960   1063.0359     -5704.8929     -5493.9714      1018.8738      44261.493      92.145267    
     23970   1085.9532     -5709.4435     -5493.9748      1109.2777      44238.09       92.012208    
     23980   1092.3985     -5710.719      -5493.9715      1526.6934      44214.163      91.894277    
     23990   1094.6466     -5711.2017     -5494.0081      1871.3882      44189.9        91.783514    
     24000   1108.0956     -5713.9684     -5494.1063      1850.5183      44165.441      91.677987    
     24010   1100.9461     -5712.7189     -5494.2754      1812.972       44140.785      91.580226    
     24020   1091.3561     -5711.0552     -5494.5145      1683.4138      44115.948      91.486996    
     24030   1068.5427     -5706.7643     -5494.7501      1720.3801      44090.76       91.384204    
     24040   1085.4774     -5710.3506     -5494.9763      1386.315       44065.13       91.256172    
     24050   1077.7624     -5709.0385     -5495.195       1655.2348      44038.96       91.095011    
     24060   1076.294      -5708.9586     -5495.4065      1891.8856      44012.468      90.909834    
     24070   1092.3887     -5712.379      -5495.6335      1896.4311      43985.706      90.738095    
     24080   1082.9629     -5710.7633     -5495.888       2062.3868      43958.547      90.609118    
     24090   1087.4972     -5711.9385     -5496.1634      1925.8457      43931.202      90.519246    
     24100   1088.9243     -5712.5266     -5496.4684      1794.5776      43903.882      90.445169    
     24110   1070.0518     -5709.0959     -5496.7823      1941.7482      43876.608      90.386579    
     24120   1069.143      -5709.219      -5497.0857      2086.7058      43849.619      90.355364    
     24130   1068.0699     -5709.2732     -5497.3528      2182.4043      43823.097      90.347302    
     24140   1064.3408     -5708.777      -5497.5965      2285.2996      43797.017      90.341934    
     24150   1047.8025     -5705.7041     -5497.8051      2722.9773      43771.407      90.329918    
     24160   1053.9899     -5707.0591     -5497.9324      2955.0183      43746.665      90.301328    
     24170   1070.6494     -5710.4652     -5498.033       2954.9         43723.005      90.238123    
     24180   1064.3113     -5709.2966     -5498.122       3191.1585      43700.36       90.146606    
     24190   1082.9901     -5713.1228     -5498.242       3014.9136      43678.794      90.049266    
     24200   1088.7016     -5714.4159     -5498.4019      3143.8994      43658.371      89.982788    
     24210   1084.5345     -5713.834      -5498.6468      3622.1093      43639.194      89.950736    
     24220   1078.7661     -5712.9921     -5498.9494      4044.1199      43621.277      89.904563    
     24230   1084.4776     -5714.4639     -5499.288       3817.4356      43604.535      89.82169     
     24240   1096.5661     -5717.2778     -5499.7034      3253.9472      43588.783      89.712808    
     24250   1080.5571     -5714.6056     -5500.2076      3448.6565      43573.7        89.58287     
     24260   1073.7859     -5713.79       -5500.7355      3520.9043      43559.286      89.46199     
     24270   1090.519      -5717.662      -5501.2874      3270.2791      43545.693      89.386151    
     24280   1087.4851     -5717.6646     -5501.8919      3375.12        43533.198      89.362814    
     24290   1074.2255     -5715.6592     -5502.5175      3586.3026      43522.092      89.376377    
     24300   1061.9172     -5713.8318     -5503.1322      3949.1163      43512.407      89.422011    
     24310   1070.3098     -5716.0854     -5503.7207      4259.4129      43504.229      89.494386    
     24320   1058.0409     -5714.2057     -5504.2752      4638.8087      43497.573      89.572859    
     24330   1055.1371     -5714.1423     -5504.788       4503.991       43492.265      89.643158    
     24340   1070.3558     -5717.6525     -5505.2785      3846.9425      43488.098      89.686479    
     24350   1075.4796     -5719.1733     -5505.7828      3345.5358      43484.94       89.692315    
     24360   1052.1103     -5715.0703     -5506.3166      3182.4998      43482.592      89.685888    
     24370   1030.5089     -5711.2786     -5506.8108      3262.1521      43480.717      89.688176    
     24380   1039.707      -5713.5081     -5507.2153      3016.7889      43479.2        89.699958    
     24390   1056.4349     -5717.1892     -5507.5774      2844.9932      43478.078      89.709871    
     24400   1074.7385     -5721.2424     -5507.9989      2817.6084      43477.272      89.690845    
     24410   1045.9197     -5715.9756     -5508.4501      3340.0205      43476.854      89.6595      
     24420   1058.7499     -5719.0115     -5508.9403      3197.3901      43477.146      89.661644    
     24430   1070.0153     -5721.7657     -5509.4594      2615.7878      43478.063      89.711803    
     24440   1054.0645     -5719.2015     -5510.06        2574.9812      43479.317      89.780878    
     24450   1029.656      -5714.9604     -5510.662       2841.6301      43480.772      89.841994    
     24460   1040.5924     -5717.6997     -5511.2313      2954.2257      43482.403      89.882146    
     24470   1055.1738     -5721.1707     -5511.8091      3108.3753      43484.319      89.915785    
     24480   1029.6398     -5716.6897     -5512.3944      3394.7465      43486.724      89.964536    
     24490   1033.8641     -5718.0883     -5512.9548      3095.7737      43489.709      90.024607    
     24500   1059.6121     -5723.759      -5513.5168      2503.9514      43492.994      90.090413    
     24510   1048.8015     -5722.2257     -5514.1285      2736.8215      43496.277      90.161671    
     24520   1027.0831     -5718.5361     -5514.7481      3532.4905      43499.553      90.244343    
     24530   1041.5641     -5722.0085     -5515.3473      3734.6601      43502.891      90.350608    
     24540   1066.2348     -5727.5493     -5515.9931      3620.8513      43506.014      90.477542    
     24550   1046.9259     -5724.4204     -5516.6953      3871.7178      43508.659      90.610518    
     24560   1026.1612     -5721.0099     -5517.4048      4077.9877      43511.062      90.706357    
     24570   1031.0951     -5722.6578     -5518.0738      3833.6874      43513.473      90.735144    
     24580   1031.3175     -5723.3324     -5518.7042      3353.2625      43515.792      90.714169    
     24590   1008.0686     -5719.3173     -5519.302       3170.9394      43517.674      90.678189    
     24600   1004.8737     -5719.17       -5519.7887      2796.5519      43519.225      90.656442    
     24610   1024.5538     -5723.48       -5520.1938      2296.6848      43520.5        90.668174    
     24620   1027.5806     -5724.4724     -5520.5857      2234.0031      43521.086      90.709944    
     24630   1029.1198     -5725.1686     -5520.9765      2382.3068      43520.781      90.776987    
     24640   1025.1608     -5724.7896     -5521.383       2633.5877      43519.698      90.84808     
     24650   1014.8714     -5723.1493     -5521.7843      2886.6074      43518.028      90.895695    
     24660   1031.3961     -5726.822      -5522.1783      2526.3541      43515.994      90.916249    
     24670   1034.0106     -5727.7687     -5522.6062      2456.2207      43513.682      90.921943    
     24680   1015.0919     -5724.4801     -5523.0713      2910.6121      43511.361      90.931437    
     24690   1005.2803     -5722.9655     -5523.5034      3244.8634      43509.281      90.967842    
     24700   1031.3348     -5728.5626     -5523.931       3081.8912      43507.357      91.040142    
     24710   1025.4309     -5727.8427     -5524.3825      3278.3783      43505.415      91.142051    
     24720   1026.3524     -5728.5337     -5524.8907      3237.6828      43503.467      91.254098    
     24730   1016.1528     -5727.0363     -5525.417       2812.382       43501.514      91.347626    
     24740   1028.814      -5730.0989     -5525.9674      2034.9741      43499.399      91.417203    
     24750   1035.8244     -5732.0889     -5526.5665      1691.4069      43496.728      91.469758    
     24760   1018.5875     -5729.3188     -5527.2165      1976.908       43493.369      91.491891    
     24770   1010.9685     -5728.4531     -5527.8625      2061.8269      43489.651      91.484381    
     24780   1008.5087     -5728.5817     -5528.4791      2096.514       43485.922      91.47063     
     24790   1001.1018     -5727.7002     -5529.0673      2165.2477      43482.245      91.456686    
     24800   990.17479     -5726.0563     -5529.5914      2093.3974      43478.501      91.447       
     24810   982.14301     -5724.9042     -5530.0329      2182.0803      43474.493      91.456417    
     24820   990.68333     -5726.9612     -5530.3954      2107.3297      43470.034      91.500671    
     24830   998.9925      -5728.9233     -5530.7089      2132.1264      43464.951      91.57247     
     24840   997.50164     -5728.9285     -5531.0099      2399.2404      43459.222      91.644152    
     24850   987.22234     -5727.1729     -5531.2938      2611.8304      43452.94       91.716103    
     24860   991.9958      -5728.3792     -5531.553       2274.8516      43446.169      91.785221    
     24870   995.2017      -5729.2463     -5531.7841      1863.8671      43438.759      91.83245     
     24880   998.5046      -5730.1381     -5532.0204      1679.5225      43430.563      91.851702    
     24890   1008.2083     -5732.3375     -5532.2945      1686.2162      43421.615      91.854735    
     24900   1004.1751     -5731.8413     -5532.5986      1920.9224      43412.148      91.870171    
     24910   1008.1371     -5732.9945     -5532.9657      2081.0626      43402.454      91.918422    
     24920   989.58272     -5729.7074     -5533.36        2337.9322      43392.64       91.985543    
     24930   988.45046     -5729.8901     -5533.7674      2178.8786      43382.659      92.053709    
     24940   994.68456     -5731.5278     -5534.1682      1783.7194      43372.392      92.117173    
     24950   991.1064      -5731.2415     -5534.5918      1581.1227      43361.821      92.187271    
     24960   966.7688      -5726.8158     -5534.995       2007.7542      43351.165      92.26808     
     24970   987.98691     -5731.3993     -5535.3685      2088.6341      43340.547      92.331722    
     24980   992.16694     -5732.6082     -5535.748       2610.4801      43329.86       92.37386     
     24990   987.89337     -5732.1493     -5536.1371      2968.6045      43319.359      92.418079    
     25000   1011.2822     -5737.2272     -5536.5743      2731.0545      43309.323      92.459136    
     25010   1008.214      -5737.132      -5537.0879      2562.6774      43299.761      92.486074    
     25020   1020.1162     -5740.1104     -5537.7047      2277.419       43290.635      92.497653    
     25030   1020.5634     -5740.9351     -5538.4407      2240.7419      43281.536      92.504089    
     25040   986.86308     -5735.0295     -5539.2218      2690.3195      43272.121      92.505297    
     25050   978.90361     -5734.207      -5539.9785      2628.4426      43262.627      92.482066    
     25060   969.98513     -5733.097      -5540.6381      2390.6761      43253.232      92.44816     
     25070   960.48141     -5731.7596     -5541.1864      2302.7718      43243.992      92.411788    
     25080   955.1953      -5731.1517     -5541.6273      2328.5374      43234.885      92.395976    
     25090   946.18617     -5729.6876     -5541.9507      2628.7792      43225.736      92.413317    
     25100   955.2801      -5731.7069     -5542.1657      2788.7046      43216.684      92.467411    
     25110   988.02361     -5738.3778     -5542.3398      2633.7665      43207.949      92.558358    
     25120   986.37313     -5738.2731     -5542.5625      2885.7137      43199.409      92.662288    
     25130   966.12697     -5734.4996     -5542.8062      3249.354       43191.002      92.74235     
     25140   977.1309      -5736.9397     -5543.0629      3105.7578      43182.818      92.777342    
     25150   983.2874      -5738.4397     -5543.3414      3008.1313      43174.679      92.778534    
     25160   969.75623     -5736.0729     -5543.6594      3067.7874      43166.5        92.772811    
     25170   973.17166     -5737.0917     -5544.0005      2576.8126      43158.21       92.748825    
     25180   987.42166     -5740.2979     -5544.3793      1829.6134      43149.599      92.709817    
     25190   1000.7712     -5743.418      -5544.8506      1478.0303      43140.439      92.679734    
     25200   998.41713     -5743.5542     -5545.4539      1660.3262      43130.488      92.664896    
     25210   968.69781     -5738.3529     -5546.1494      2503.0049      43119.597      92.65994     
     25220   949.25089     -5735.1595     -5546.8146      3086.1456      43108.057      92.676129    
     25230   964.16011     -5738.751      -5547.4478      3101.3519      43096.315      92.714757    
     25240   980.17451     -5742.561      -5548.0804      2687.0055      43084.51       92.746046    
     25250   989.71633     -5745.1498     -5548.7759      1997.4332      43072.494      92.759095    
     25260   974.39948     -5742.8657     -5549.5309      1764.9637      43060.073      92.770998    
     25270   955.53562     -5739.887      -5550.295       1832.214       43046.94       92.802397    
     25280   937.45228     -5737.0001     -5550.9962      2325.697       43032.892      92.864914    
     25290   915.69563     -5733.2516     -5551.5645      3070.5666      43018.289      92.933177    
     25300   918.44361     -5734.203      -5551.9706      3212.8339      43003.646      92.984299    
     25310   943.88718     -5739.564      -5552.2832      2879.9509      42989.177      93.021287    
     25320   957.73186     -5742.5918     -5552.5641      2542.6747      42974.952      93.046208    
     25330   965.97397     -5744.5492     -5552.8861      2570.7534      42960.926      93.042297    
     25340   967.33685     -5745.1974     -5553.2639      2572.1299      42946.752      92.980401    
     25350   961.63947     -5744.5034     -5553.7004      2858.5442      42932.182      92.8767      
     25360   940.53996     -5740.7864     -5554.1698      3367.9406      42917.512      92.772806    
     25370   924.43399     -5738.0211     -5554.6002      3665.8409      42903.372      92.687438    
     25380   925.06981     -5738.5107     -5554.9636      3644.5733      42890.172      92.622912    
     25390   921.72507     -5738.1621     -5555.2787      3756.6688      42878.034      92.570144    
     25400   914.17225     -5736.9001     -5555.5153      3994.8547      42866.983      92.520376    
     25410   947.85915     -5743.7911     -5555.7223      3823.1539      42856.974      92.485403    
     25420   945.94077     -5743.6384     -5555.9502      4163.2974      42847.953      92.474264    
     25430   938.26097     -5742.3823     -5556.2179      4379.7131      42840.148      92.480482    
     25440   948.34065     -5744.6766     -5556.5123      4031.0805      42833.682      92.475765    
     25450   946.81697     -5744.7404     -5556.8783      3786.177       42828.461      92.444022    
     25460   924.75645     -5740.7644     -5557.2795      3880.1027      42824.241      92.392605    
     25470   910.01255     -5738.22       -5557.6604      4043.8529      42820.716      92.349374    
     25480   919.34978     -5740.4099     -5557.9977      3786.1432      42817.638      92.339965    
     25490   935.48656     -5743.9358     -5558.3219      3534.1526      42814.904      92.3769      
     25500   929.9092      -5743.1851     -5558.6778      3638.4515      42812.599      92.45337     
     25510   917.40519     -5741.0625     -5559.0362      3695.4441      42810.932      92.559327    
     25520   944.55522     -5746.8241     -5559.4108      3007.9272      42810.049      92.685635    
     25530   946.63551     -5747.6953     -5559.8693      2639.964       42809.789      92.814105    
     25540   893.86947     -5737.7278     -5560.3713      3130.7999      42809.92       92.936766    
     25550   881.46284     -5735.6938     -5560.799       2864.9104      42810.642      93.050851    
     25560   893.04432     -5738.3156     -5561.1228      2251.5385      42811.802      93.150275    
     25570   887.57084     -5737.4667     -5561.3599      2113.7008      42812.849      93.217575    
     25580   892.0447      -5738.5096     -5561.5152      2099.6895      42813.454      93.241379    
     25590   909.16643     -5742.0059     -5561.6142      2309.6361      42813.479      93.253948    
     25600   916.81565     -5743.6102     -5561.7009      2790.3787      42813.043      93.296356    
     25610   919.46031     -5744.2474     -5561.8133      3068.9527      42812.583      93.369375    
     25620   921.94768     -5744.8799     -5561.9523      3100.0684      42812.525      93.461471    
     25630   943.58371     -5749.4004     -5562.1799      2858.5399      42812.837      93.556871    
     25640   934.52047     -5747.9531     -5562.5309      3139.4127      42813.267      93.629756    
     25650   927.5101      -5747.0896     -5563.0583      3352.1273      42813.909      93.654059    
     25660   934.18515     -5749.1312     -5563.7755      3599.2072      42815.006      93.625642    
     25670   945.02184     -5752.2839     -5564.7781      3799.1253      42816.651      93.571438    
     25680   929.92797     -5750.6199     -5566.1088      4290.1388      42818.82       93.525439    
     25690   917.26854     -5749.6608     -5567.6616      4235.7139      42821.537      93.524187    
     25700   913.47596     -5750.5496     -5569.3028      3865.1116      42824.569      93.57858     
     25710   889.07793     -5747.1552     -5570.7494      3577.1053      42827.596      93.637188    
     25720   878.96073     -5746.2598     -5571.8614      3053.765       42830.53       93.644706    
     25730   877.14601     -5746.6707     -5572.6323      2442.927       42833.341      93.618042    
     25740   888.77853     -5749.493      -5573.1467      1783.0669      42835.846      93.593207    
     25750   896.15945     -5751.3263     -5573.5154      1386.6903      42837.844      93.589422    
     25760   885.15919     -5749.4301     -5573.8018      1632.0201      42839.36       93.632071    
     25770   880.94118     -5748.8031     -5574.0118      1761.1389      42840.423      93.715207    
     25780   878.65065     -5748.4871     -5574.1502      1737.6964      42840.752      93.810252    
     25790   875.30455     -5747.9128     -5574.2399      1672.2288      42840.091      93.903831    
     25800   876.55096     -5748.1879     -5574.2676      1711.7246      42838.464      93.993834    
     25810   876.95498     -5748.2622     -5574.2618      2016.4835      42835.997      94.07241     
     25820   871.75892     -5747.1647     -5574.1952      2469.2968      42832.971      94.127755    
     25830   897.80228     -5752.2367     -5574.0999      2358.1046      42829.672      94.143302    
     25840   902.87445     -5753.1497     -5574.0064      2322.4895      42826.123      94.130905    
     25850   916.71701     -5755.8875     -5573.9977      2171.7276      42822.233      94.107341    
     25860   894.93536     -5751.6321     -5574.0641      2642.1422      42817.968      94.089908    
     25870   884.39774     -5749.6399     -5574.1627      2873.0233      42813.639      94.093586    
     25880   900.67143     -5753.0002     -5574.2941      2451.4008      42809.434      94.136838    
     25890   894.8297      -5752.0203     -5574.4732      2172.3606      42805.228      94.228317    
     25900   884.60496     -5750.2192     -5574.7009      2216.5669      42800.898      94.360308    
     25910   877.08268     -5748.9778     -5574.952       2587.9918      42796.449      94.520101    
     25920   888.7441      -5751.5504     -5575.2109      2755.3191      42791.995      94.673093    
     25930   907.56641     -5755.6051     -5575.5309      2609.0836      42787.66       94.783101    
     25940   902.99026     -5755.1191     -5575.9529      2696.506       42783.34       94.844681    
     25950   902.01075     -5755.4542     -5576.4824      2731.6341      42778.917      94.879766    
     25960   913.24268     -5758.3363     -5577.1359      2592.9525      42774.362      94.905911    
     25970   902.62995     -5756.9989     -5577.9042      2577.9362      42769.497      94.919506    
     25980   899.49168     -5757.2457     -5578.7737      2465.1747      42764.221      94.907667    
     25990   882.57304     -5754.7939     -5579.6788      2628.8493      42758.703      94.878507    
     26000   870.55526     -5753.2822     -5580.5516      2780.0682      42753.125      94.835151    
     26010   864.83163     -5752.9255     -5581.3306      2848.4159      42747.597      94.777396    
     26020   876.93075     -5756.0336     -5582.0379      2942.3018      42742.202      94.723502    
     26030   862.57435     -5753.8151     -5582.668       3425.6595      42737.072      94.69295     
     26040   866.37198     -5755.1151     -5583.2145      3637.2018      42732.516      94.700118    
     26050   888.7389      -5760.0677     -5583.7292      3440.3126      42728.669      94.732       
     26060   880.43426     -5758.9362     -5584.2454      3524.1874      42725.458      94.767674    
     26070   878.74766     -5759.113      -5584.7569      3454.5425      42722.837      94.808787    
     26080   890.7408      -5762.0266     -5585.2909      3045.4097      42720.612      94.856265    
     26090   884.9088      -5761.4385     -5585.8599      2666.2702      42718.322      94.905045    
     26100   863.08905     -5757.6797     -5586.4305      2485.985       42715.713      94.939507    
     26110   854.33531     -5756.4631     -5586.9508      2233.877       42712.918      94.955874    
     26120   853.2551      -5756.7158     -5587.4178      2105.6758      42710.105      94.980417    
     26130   850.92593     -5756.6653     -5587.8294      2042.3995      42707.135      95.032744    
     26140   857.00883     -5758.2407     -5588.1979      2022.9525      42703.842      95.101953    
     26150   851.09546     -5757.416      -5588.5465      2183.013       42700.186      95.156776    
     26160   844.11129     -5756.335      -5588.8512      2197.8171      42696.235      95.188761    
     26170   847.6506      -5757.3036     -5589.1176      2050.9709      42691.967      95.200468    
     26180   839.80806     -5755.9801     -5589.3502      2177.3922      42687.2        95.201984    
     26190   845.98233     -5757.4028     -5589.5478      2183.2209      42681.908      95.198848    
     26200   858.49481     -5760.0667     -5589.729       2107.7829      42676.182      95.171925    
     26210   864.49732     -5761.4707     -5589.9421      2279.2868      42670.149      95.116179    
     26220   867.32002     -5762.3013     -5590.2126      2418.0233      42663.864      95.066966    
     26230   857.41142     -5760.6584     -5590.5357      2817.6905      42657.241      95.058029    
     26240   861.18119     -5761.7831     -5590.9124      2999.6594      42650.377      95.101501    
     26250   865.91393     -5763.1414     -5591.3316      3135.8611      42643.463      95.183872    
     26260   876.64549     -5765.7803     -5591.8413      3090.0457      42636.784      95.285845    
     26270   875.99303     -5766.2725     -5592.4629      2997.4847      42630.415      95.388812    
     26280   866.24202     -5765.0504     -5593.1756      2983.8468      42624.284      95.46969     
     26290   871.18885     -5766.8199     -5593.9636      2829.7602      42618.436      95.506736    
     26300   856.95493     -5764.8087     -5594.7766      2983.3958      42612.924      95.509534    
     26310   842.92889     -5762.8184     -5595.5692      3072.9137      42607.924      95.498207    
     26320   841.31957     -5763.2007     -5596.2708      2870.1422      42603.548      95.490241    
     26330   846.40277     -5764.8311     -5596.8926      2483.6345      42599.823      95.477009    
     26340   845.7051      -5765.2405     -5597.4405      2223.9521      42596.634      95.447917    
     26350   850.93285     -5766.7866     -5597.9494      2144.4915      42593.697      95.413704    
     26360   836.30685     -5764.3458     -5598.4106      2540.3826      42590.849      95.382344    
     26370   834.73901     -5764.4253     -5598.8011      2831.9863      42588.268      95.35748     
     26380   847.84767     -5767.3817     -5599.1566      2897.0407      42586.289      95.352448    
     26390   845.86175     -5767.337      -5599.506       3158.1263      42584.96       95.382408    
     26400   839.64961     -5766.4589     -5599.8604      3451.2742      42584.219      95.43651     
     26410   843.92491     -5767.6611     -5600.2143      3265.0964      42584.04       95.497453    
     26420   848.58053     -5768.9597     -5600.5892      2811.9963      42584.148      95.557094    
     26430   836.65224     -5766.9961     -5600.9923      2521.3409      42584.324      95.600669    
     26440   828.62577     -5765.7957     -5601.3844      2275.8816      42584.61       95.615545    
     26450   838.98568     -5768.2544     -5601.7876      1841.449       42584.962      95.628816    
     26460   833.86971     -5767.6553     -5602.2036      1799.2809      42585.072      95.655888    
     26470   827.54815     -5766.8302     -5602.6328      1900.1532      42584.792      95.693579    
     26480   820.38229     -5765.8293     -5603.0537      2097.403       42584.12       95.73855     
     26490   801.89561     -5762.5426     -5603.435       2380.5969      42583.268      95.794529    
     26500   816.46997     -5765.7653     -5603.7659      2158.5088      42582.657      95.86258     
     26510   831.96047     -5769.156      -5604.0831      1862.5029      42582.582      95.928445    
     26520   824.73716     -5768.0625     -5604.4228      2037.6765      42582.969      95.986159    
     26530   830.34549     -5769.5479     -5604.7954      2157.3709      42583.647      96.036536    
     26540   817.96926     -5767.4938     -5605.197       2451.0645      42584.49       96.062684    
     26550   807.52062     -5765.8176     -5605.594       2615.2534      42585.476      96.058363    
     26560   798.86196     -5764.4637     -5605.9581      2631.429       42586.681      96.041675    
     26570   783.71192     -5761.7684     -5606.2688      2686.8901      42588.108      96.038187    
     26580   784.4575      -5762.142      -5606.4944      2540.3633      42589.751      96.047926    
     26590   790.99333     -5763.5801     -5606.6357      2205.8258      42591.547      96.065153    
     26600   796.0324      -5764.6743     -5606.7301      2035.4918      42593.316      96.093606    
     26610   787.44371     -5763.0135     -5606.7734      2242.1955      42594.983      96.124475    
     26620   788.24936     -5763.1729     -5606.7729      2197.7353      42596.679      96.133535    
     26630   796.7838      -5764.8138     -5606.7205      2007.8638      42598.256      96.120451    
     26640   813.84248     -5768.1244     -5606.6464      1582.0757      42599.313      96.100421    
     26650   822.66689     -5769.832      -5606.6031      1459.3971      42599.563      96.077692    
     26660   810.49518     -5767.4268     -5606.6129      1896.2284      42598.986      96.055828    
     26670   809.39632     -5767.2693     -5606.6735      2070.9613      42597.784      96.04763     
     26680   812.59284     -5767.9973     -5606.7673      1897.5046      42596.24       96.059784    
     26690   817.4563      -5769.1128     -5606.9178      1611.2631      42594.483      96.06676     
     26700   820.61892     -5769.9906     -5607.1681      1355.0702      42592.408      96.053655    
     26710   808.18174     -5767.8713     -5607.5165      1228.1472      42589.968      96.040239    
     26720   799.38096     -5766.5782     -5607.9696      1053.0184      42587.167      96.042408    
     26730   795.06311     -5766.2534     -5608.5015      747.10352      42583.818      96.061479    
     26740   791.32804     -5766.1289     -5609.1181      648.72483      42579.582      96.087397    
     26750   800.36307     -5768.6353     -5609.8318      700.76223      42574.337      96.107576    
     26760   795.4131      -5768.4749     -5610.6535      1057.3823      42568.082      96.130979    
     26770   792.45782     -5768.7839     -5611.549       1288.9679      42560.789      96.176805    
     26780   806.93142     -5772.6134     -5612.5067      1074.6816      42552.306      96.264409    
     26790   812.06908     -5774.6418     -5613.5157      936.58135      42542.5        96.369018    
     26800   808.5427      -5774.9498     -5614.5234      923.6659       42531.436      96.456937    
     26810   804.9761      -5775.1912     -5615.4724      1116.6121      42519.181      96.518491    
     26820   792.55806     -5773.5557     -5616.3008      1653.0705      42505.907      96.560161    
     26830   774.24506     -5770.578      -5616.9567      2403.7203      42492.015      96.589792    
     26840   778.59588     -5771.9198     -5617.4352      2796.4502      42478.101      96.61331     
     26850   803.87571     -5777.3291     -5617.8286      2725.5807      42464.572      96.651519    
     26860   802.31308     -5777.4016     -5618.2112      2763.0012      42451.269      96.710576    
     26870   796.82781     -5776.7091     -5618.6071      2635.2501      42437.903      96.766401    
     26880   786.75046     -5775.0938     -5618.9912      2453.6405      42424.345      96.780874    
     26890   777.03185     -5773.5355     -5619.3613      2343.2658      42410.73       96.726949    
     26900   774.62306     -5773.3865     -5619.6902      2272.1792      42397.273      96.630885    
     26910   778.51669     -5774.4668     -5619.9979      2341.2676      42384.037      96.536559    
     26920   773.82452     -5773.8215     -5620.2837      2675.1078      42371.156      96.463709    
     26930   789.41573     -5777.2148     -5620.5835      2668.461       42358.776      96.406192    
     26940   786.53149     -5776.9713     -5620.9122      2751.1891      42346.75       96.358673    
     26950   781.98475     -5776.4396     -5621.2826      2776.7766      42334.919      96.311959    
     26960   797.204       -5779.8757     -5621.699       2443.6736      42323.149      96.25336     
     26970   799.62981     -5780.848      -5622.19        2274.0564      42311.312      96.173228    
     26980   792.54584     -5780.0229     -5622.7705      2116.7749      42299.505      96.065115    
     26990   779.79906     -5778.1274     -5623.4041      2061.1868      42287.728      95.949498    
     27000   770.47495     -5776.9065     -5624.0332      2036.3942      42275.885      95.854306    
     27010   774.39397     -5778.3105     -5624.6597      1846.6364      42263.848      95.779813    
     27020   776.04213     -5779.2543     -5625.2764      1743.7592      42251.499      95.710779    
     27030   777.7074      -5780.1929     -5625.8846      1803.406       42238.786      95.664918    
     27040   780.11975     -5781.2812     -5626.4943      2018.2283      42225.872      95.659552    
     27050   774.22191     -5780.7067     -5627.09        2344.0992      42213.007      95.674425    
     27060   782.77704     -5783.0021     -5627.6879      2395.3829      42200.39       95.689005    
     27070   776.97759     -5782.4502     -5628.2867      2593.8017      42188.017      95.695497    
     27080   768.1826      -5781.3032     -5628.8848      2734.9684      42175.916      95.67971     
     27090   761.16743     -5780.4587     -5629.4322      2662.8338      42164.151      95.624963    
     27100   768.09739     -5782.3488     -5629.9472      2433.9553      42152.698      95.546218    
     27110   769.24659     -5783.0768     -5630.4472      2408.3211      42141.54       95.488847    
     27120   765.25123     -5782.7754     -5630.9386      2421.5001      42130.852      95.469139    
     27130   757.6926      -5781.7551     -5631.4181      2330.6429      42120.753      95.475309    
     27140   746.03816     -5779.8831     -5631.8584      2279.6035      42111.196      95.488111    
     27150   727.78878     -5776.6388     -5632.2351      2367.5195      42102.158      95.495663    
     27160   714.21953     -5774.2233     -5632.5119      2600.6261      42093.72       95.496521    
     27170   714.22974     -5774.3826     -5632.6692      2615.1107      42086.01       95.493121    
     27180   735.67258     -5778.6995     -5632.7315      2442.2929      42079.043      95.474635    
     27190   750.89077     -5781.7515     -5632.764       2387.0503      42072.769      95.428171    
     27200   747.60768     -5781.1318     -5632.7958      2630.8444      42067.2        95.378688    
     27210   754.7823      -5782.6172     -5632.8576      2605.6236      42062.291      95.344354    
     27220   752.04116     -5782.1638     -5632.9481      2707.3263      42057.865      95.30951     
     27230   754.88587     -5782.8545     -5633.0743      2612.9806      42053.791      95.268996    
     27240   753.69651     -5782.7922     -5633.2481      2560.5465      42049.893      95.242129    
     27250   745.48305     -5781.3776     -5633.463       2617.9921      42046.197      95.240644    
     27260   740.08819     -5780.5444     -5633.7003      2680.7495      42042.922      95.255867    
     27270   733.85304     -5779.556      -5633.9491      2653.4986      42040.191      95.266657    
     27280   750.49744     -5783.1222     -5634.2128      2208.6779      42037.957      95.283366    
     27290   759.59353     -5785.2502     -5634.536       1917.5438      42035.959      95.314595    
     27300   754.24053     -5784.5914     -5634.9393      2015.5206      42034.004      95.367641    
     27310   751.98967     -5784.6478     -5635.4423      2114.6528      42032.241      95.447373    
     27320   727.15103     -5780.2592     -5635.982       2479.5933      42030.744      95.533521    
     27330   720.86272     -5779.541      -5636.5115      2526.966       42029.534      95.598622    
     27340   726.90017     -5781.2391     -5637.0117      2259.9785      42028.472      95.624029    
     27350   728.23581     -5781.9851     -5637.4927      2076.9195      42027.356      95.613969    
     27360   726.65043     -5782.1422     -5637.9644      2022.8835      42026.132      95.59671     
     27370   726.88449     -5782.6282     -5638.4039      2088.6232      42024.972      95.593207    
     27380   737.12049     -5785.0946     -5638.8393      2129.2587      42024.087      95.601186    
     27390   730.1012      -5784.1322     -5639.2697      2522.1002      42023.593      95.608378    
     27400   725.46487     -5783.6232     -5639.6805      2862.5601      42023.605      95.616694    
     27410   738.64868     -5786.6393     -5640.0808      2824.773       42024.251      95.640467    
     27420   740.87365     -5787.4893     -5640.4893      2836.4992      42025.678      95.680784    
     27430   741.76231     -5788.0946     -5640.9183      2758.8277      42027.947      95.720159    
     27440   741.35098     -5788.4542     -5641.3596      2681.3036      42030.938      95.751143    
     27450   738.69096     -5788.3652     -5641.7984      2451.7955      42034.596      95.76635     
     27460   742.28767     -5789.5247     -5642.2442      2221.3008      42038.765      95.75637     
     27470   726.77803     -5786.8751     -5642.672       2479.7835      42043.295      95.734082    
     27480   710.55074     -5784.0344     -5643.051       2832.4275      42048.311      95.720822    
     27490   714.44613     -5785.1133     -5643.3569      2839.478       42053.971      95.72574     
     27500   720.22118     -5786.5217     -5643.6195      2801.8089      42060.316      95.746956    
     27510   718.15548     -5786.3459     -5643.8536      2795.0757      42067.405      95.773349    
     27520   727.31297     -5788.4066     -5644.0973      2488.5401      42075.259      95.802262    
     27530   715.72151     -5786.3459     -5644.3365      2428.7958      42083.768      95.847936    
     27540   722.04656     -5787.8452     -5644.5808      2148.2299      42092.925      95.923484    
     27550   733.73343     -5790.4285     -5644.8452      1977.5167      42102.484      96.035663    
     27560   724.55221     -5788.9175     -5645.1559      2233.7487      42112.219      96.169936    
     27570   725.8221      -5789.517      -5645.5035      2207.7649      42122.153      96.294464    
     27580   732.44187     -5791.2224     -5645.8955      1955.4736      42132.338      96.377973    
     27590   741.8991      -5793.561      -5646.3576      1511.2425      42142.744      96.422182    
     27600   732.4017      -5792.2148     -5646.8959      1448.9762      42153.064      96.446882    
[...]
     48200   467.08271     -5853.7742     -5761.0983      142.24446      42423.957      115.60396    
     48210   469.74803     -5853.9437     -5760.739       188.0806       42417.104      115.59562    
     48220   472.07576     -5854.1067     -5760.4401      216.96125      42411.269      115.59229    
     48230   468.58213     -5853.1897     -5760.2163      233.29861      42406.623      115.59601    
     48240   463.83343     -5852.0885     -5760.0573      128.28598      42403.23       115.60604    
     48250   459.93082     -5851.1997     -5759.9428     -30.75557       42400.555      115.62513    
     48260   459.30905     -5850.9917     -5759.8582     -114.54016      42397.719      115.6541     
     48270   457.61885     -5850.6006     -5759.8025     -65.124996      42394.245      115.694      
     48280   454.9722      -5850.0454     -5759.7724      35.338669      42390.391      115.74711    
     48290   457.70689     -5850.5782     -5759.7626      52.956213      42386.662      115.80968    
     48300   459.3062      -5850.9166     -5759.7837      128.76734      42383.267      115.87608    
     48310   459.03581     -5850.925      -5759.8458      272.41853      42380.619      115.94239    
     48320   458.27638     -5850.8928     -5759.9642      372.6078       42379.439      116.00361    
     48330   454.94097     -5850.4127     -5760.1459      366.80517      42380.285      116.04894    
     48340   446.78309     -5849.0292     -5760.381       376.10356      42383.258      116.07032    
     48350   446.92388     -5849.335      -5760.6589      235.4226       42388.294      116.07573    
     48360   454.55124     -5851.1667     -5760.9773     -35.109004      42394.607      116.07773    
     48370   459.92194     -5852.621      -5761.3659     -233.67127      42400.806      116.08215    
     48380   461.40036     -5853.3926     -5761.8441     -381.86118      42405.734      116.08955    
     48390   456.25432     -5852.9282     -5762.4008     -324.10672      42408.636      116.09759    
     48400   451.87178     -5852.6521     -5762.9943     -262.67181      42409.684      116.10885    
     48410   452.73956     -5853.4244     -5763.5944     -215.89945      42409.247      116.12426    
     48420   450.37395     -5853.5361     -5764.1755     -45.312382      42407.653      116.13436    
     48430   450.24905     -5854.051      -5764.7152      71.08747       42405.764      116.13498    
     48440   454.19617     -5855.3251     -5765.206       94.625301      42404.24       116.13421    
     48450   456.97368     -5856.327      -5765.6569      56.772849      42403.193      116.14286    
     48460   455.14935     -5856.3907     -5766.0826      53.359641      42402.46       116.16561    
     48470   446.06984     -5854.975      -5766.4683      0.96239304     42402.002      116.19689    
     48480   446.6924      -5855.4324     -5766.8022     -238.20491      42401.458      116.23003    
     48490   450.08512     -5856.397      -5767.0936     -473.3488       42399.588      116.26111    
     48500   454.83711     -5857.6143     -5767.3681     -617.30646      42395.081      116.2886     
     48510   449.0937      -5856.7375     -5767.6309     -476.39179      42387.231      116.31133    
     48520   442.46841     -5855.6591     -5767.867      -228.62641      42376.72       116.32534    
     48530   441.90262     -5855.7382     -5768.0583     -29.677688      42364.872      116.32893    
     48540   442.13402     -5855.9242     -5768.1985      180.63259      42352.832      116.32893    
     48550   445.49673     -5856.6973     -5768.3043      346.4313       42341.706      116.33475    
     48560   447.77797     -5857.2352     -5768.3897      519.9726       42332.486      116.34592    
     48570   450.57226     -5857.8666     -5768.4666      625.77309      42326.131      116.35431    
     48580   455.58048     -5858.948      -5768.5543      602.40767      42323.225      116.36633    
     48590   454.89099     -5858.9216     -5768.6647      535.74835      42323.691      116.39597    
     48600   448.52877     -5857.7856     -5768.7911      455.2313       42327.17       116.44363    
     48610   449.85035     -5858.1793     -5768.9226      259.57475      42333.156      116.49711    
     48620   450.80223     -5858.4965     -5769.0508      248.73879      42340.763      116.54583    
     48630   454.56603     -5859.3772     -5769.1848      263.49433      42349.832      116.59113    
     48640   459.52549     -5860.5179     -5769.3415      227.3682       42360.389      116.6421     
     48650   452.85047     -5859.3849     -5769.5329      275.58776      42372.336      116.70468    
     48660   441.59619     -5857.3557     -5769.7367      307.38509      42385.937      116.77269    
     48670   441.60999     -5857.5491     -5769.9273      70.677468      42401.232      116.83754    
     48680   443.93401     -5858.1749     -5770.0921     -230.41964      42416.978      116.89666    
     48690   442.35394     -5858.0131     -5770.2437     -379.80906      42431.603      116.94345    
     48700   436.92396     -5857.0624     -5770.3704     -372.72028      42444.236      116.97297    
     48710   434.16732     -5856.6017     -5770.4567     -323.52146      42454.82       116.99055    
     48720   434.48582     -5856.6987     -5770.4905     -238.82285      42463.639      117.0079     
     48730   436.12409     -5856.9976     -5770.4643     -140.38231      42471.165      117.04063    
     48740   444.50994     -5858.584      -5770.3868     -165.26346      42477.859      117.09743    
     48750   448.69953     -5859.3029     -5770.2744     -146.79165      42483.696      117.16603    
     48760   443.97988     -5858.2262     -5770.1342     -5.1517856      42488.832      117.22226    
     48770   440.93728     -5857.4385     -5769.9502      64.155032      42493.952      117.24581    
     48780   443.33602     -5857.6685     -5769.7042     -41.147124      42499.404      117.23623    
     48790   444.22665     -5857.5242     -5769.3832     -226.80093      42504.637      117.20786    
     48800   444.0074      -5857.084      -5768.9866     -413.81101      42508.635      117.17241    
     48810   447.17361     -5857.24       -5768.5143     -564.97327      42510.32       117.1369     
     48820   444.21699     -5856.1201     -5767.9811     -413.41139      42508.951      117.11014    
     48830   444.07443     -5855.5056     -5767.3949     -160.73528      42505.233      117.10198    
     48840   454.93667     -5857.0389     -5766.773      -135.90861      42500.41       117.11326    
     48850   457.68538     -5856.984      -5766.1727     -35.117625      42494.849      117.13019    
     48860   450.28473     -5854.9827     -5765.6397      147.42649      42489.124      117.13468    
     48870   453.26238     -5855.1057     -5765.172       62.738729      42483.997      117.1162     
     48880   457.63459     -5855.569      -5764.7677     -21.248189      42479.185      117.06872    
     48890   455.51387     -5854.819      -5764.4385     -27.727234      42474.235      116.99373    
     48900   457.46557     -5854.9501     -5764.1824     -138.48713      42469.048      116.91226    
     48910   461.70059     -5855.6027     -5763.9947     -189.78892      42463.097      116.84709    
     48920   463.36698     -5855.8154     -5763.8768     -157.3698       42456.086      116.8061     
     48930   463.3066      -5855.7506     -5763.8239     -85.791164      42448.173      116.78406    
     48940   460.73991     -5855.2321     -5763.8147      90.02159       42439.834      116.76738    
     48950   459.46075     -5855.0032     -5763.8396      219.88906      42431.955      116.73844    
     48960   457.62415     -5854.693      -5763.8938      316.19757      42425.293      116.68205    
     48970   458.57251     -5854.9633     -5763.9759      299.27831      42420.355      116.60295    
     48980   458.26935     -5855.0153     -5764.0881      220.36845      42417.047      116.52039    
     48990   462.37715     -5855.9813     -5764.2391      31.783459      42414.916      116.45331    
     49000   463.48782     -5856.401      -5764.4384     -168.96876      42412.974      116.41407    
     49010   455.03457     -5854.9603     -5764.675      -273.36146      42410.134      116.40713    
     49020   453.86226     -5854.9768     -5764.924      -478.9505       42405.669      116.41695    
     49030   454.79998     -5855.4104     -5765.1716     -615.52663      42398.529      116.41244    
     49040   450.29279     -5854.7673     -5765.4228     -593.20795      42388.008      116.37256    
     49050   449.65867     -5854.8882     -5765.6695     -510.87359      42374.194      116.2951     
     49060   453.70543     -5855.9355     -5765.9139     -437.15056      42357.506      116.18776    
     49070   456.61552     -5856.7698     -5766.1707     -354.78086      42338.382      116.06565    
     49080   454.82206     -5856.6907     -5766.4475     -234.88526      42317.34       115.95081    
     49090   449.19434     -5855.8561     -5766.7295     -118.28057      42295.074      115.86539    
     49100   450.33898     -5856.3512     -5766.9975     -126.69145      42272.139      115.81784    
     49110   450.71173     -5856.6812     -5767.2535      52.923879      42248.658      115.79832    
     49120   447.185       -5856.2256     -5767.4977      357.57355      42225.557      115.78712    
     49130   446.37096     -5856.2802     -5767.7138      592.33583      42204.444      115.7686     
     49140   449.32262     -5857.0609     -5767.9089      701.78362      42186.621      115.73849    
     49150   448.84039     -5857.1433     -5768.0869      800.46751      42172.751      115.69787    
     49160   449.8752      -5857.5201     -5768.2585      757.80546      42163.263      115.65128    
     49170   444.97577     -5856.7061     -5768.4165      825.89211      42158.088      115.60826    
     49180   439.61705     -5855.7704     -5768.5441      987.64427      42157.592      115.58185    
     49190   447.52166     -5857.4326     -5768.6379      921.48869      42162.513      115.58261    
     49200   454.14433     -5858.8293     -5768.7206      871.40347      42172.652      115.61052    
     49210   451.27963     -5858.3507     -5768.8104      884.7496       42187.704      115.66146    
     49220   449.54756     -5858.1006     -5768.9039      857.14598      42207.688      115.72762    
     49230   450.25278     -5858.3273     -5768.9907      700.66853      42232.366      115.80227    
     49240   448.85755     -5858.1335     -5769.0738      668.4384       42261.055      115.88271    
     49250   446.65921     -5857.7681     -5769.1445      610.68282      42293.48       115.96701    
     49260   444.6597      -5857.4264     -5769.1995      469.88083      42329.312      116.06798    
     49270   436.72348     -5855.8795     -5769.2273      375.63061      42367.845      116.19423    
     49280   432.51635     -5855.0186     -5769.2011      193.81609      42408.483      116.33373    
     49290   439.70009     -5856.3622     -5769.1194     -170.87426      42450.13       116.46355    
     49300   439.25219     -5856.1447     -5768.9907     -411.7578       42490.859      116.57318    
     49310   439.42904     -5856.0227     -5768.8337     -577.59569      42529.254      116.66603    
     49320   448.17092     -5857.5806     -5768.657      -818.86531      42564.275      116.74086    
     49330   451.45178     -5858.0676     -5768.4931     -853.60208      42594.727      116.78884    
     49340   448.77759     -5857.4026     -5768.3587     -774.11761      42620.312      116.80667    
     49350   445.89799     -5856.7196     -5768.2471     -638.24223      42641.502      116.79853    
     49360   445.78021     -5856.594      -5768.1448     -511.16405      42659.002      116.77833    
     49370   454.47095     -5858.2266     -5768.053      -538.87586      42673.434      116.76397    
     49380   462.18372     -5859.6947     -5767.9908     -591.98659      42684.784      116.76382    
     49390   463.34854     -5859.9188     -5767.9838     -605.52458      42692.761      116.77002    
     49400   459.27984     -5859.1523     -5768.0246     -519.93868      42697.313      116.7678     
     49410   452.03941     -5857.7805     -5768.0894     -368.90343      42698.922      116.75007    
     49420   448.24204     -5857.0931     -5768.1555     -289.53087      42698.387      116.72792    
     49430   447.817       -5857.066      -5768.2127     -238.19812      42696.222      116.71492    
     49440   445.97698     -5856.7485     -5768.2603     -227.49586      42692.662      116.71979    
     49450   441.77056     -5855.9396     -5768.286      -198.48169      42687.807      116.74466    
     49460   443.6916      -5856.3215     -5768.2868     -131.56927      42681.872      116.7827     
     49470   443.96835     -5856.3519     -5768.2623     -6.8698052      42675.186      116.8174     
     49480   438.72423     -5855.2548     -5768.2056      217.45281      42668.52       116.83593    
     49490   440.00491     -5855.4089     -5768.1057      397.42084      42663.118      116.83851    
     49500   449.95533     -5857.2517     -5767.9741      351.29987      42659.908      116.8326     
     49510   455.09916     -5858.1361     -5767.8379      293.00414      42658.738      116.82576    
     49520   454.38025     -5857.8739     -5767.7184      286.98489      42659.267      116.82653    
     49530   453.97351     -5857.6915     -5767.6167      319.28949      42661.465      116.84369    
     49540   452.69552     -5857.3499     -5767.5286      309.44697      42665.461      116.88493    
     49550   453.61864     -5857.4553     -5767.4509      165.65095      42671.13       116.94708    
     49560   454.79187     -5857.6249     -5767.3877     -11.477873      42677.724      117.02212    
     49570   445.91        -5855.8037     -5767.3288     -0.85568836     42684.361      117.10483    
     49580   438.42348     -5854.2469     -5767.2575      70.636767      42691.059      117.18931    
     49590   440.32016     -5854.5084     -5767.1426     -3.1129634      42698.102      117.26945    
     49600   448.58456     -5855.9861     -5766.9805     -132.6798       42705.092      117.33905    
     49610   450.48474     -5856.1714     -5766.7888     -146.35611      42711.383      117.39573    
     49620   443.73337     -5854.6205     -5766.5774      54.836357      42716.956      117.43856    
     49630   437.12585     -5853.0535     -5766.3214      143.86418      42722.746      117.46743    
     49640   440.65055     -5853.4208     -5765.9894      28.543919      42729.285      117.47998    
     49650   449.52245     -5854.7673     -5765.5756     -186.90023      42735.972      117.46903    
     49660   454.05615     -5855.194      -5765.1027     -402.3139       42741.599      117.4328     
     49670   457.28543     -5855.3368     -5764.6048     -649.03767      42744.919      117.38069    
     49680   458.15953     -5855.0057     -5764.1003     -785.49721      42744.555      117.32468    
     49690   448.25078     -5852.5474     -5763.608      -736.16512      42739.76       117.26863    
     49700   446.65909     -5851.7443     -5763.1207     -835.27656      42730.651      117.21882    
     49710   454.74391     -5852.8568     -5762.6291     -1008.4997      42716.664      117.1838     
     49720   456.20676     -5852.6876     -5762.1697     -1000.1354      42696.931      117.16589    
     49730   451.03442     -5851.255      -5761.7633     -831.732        42671.473      117.15563    
     49740   449.34136     -5850.5541     -5761.3983     -611.97244      42641.168      117.13405    
     49750   456.75285     -5851.6926     -5761.0663     -478.83746      42607.205      117.09228    
     49760   469.53774     -5853.9595     -5760.7965     -474.75907      42570.318      117.037      
     49770   474.46924     -5854.7681     -5760.6266     -366.74523      42530.7        116.97386    
     49780   471.44457     -5854.1115     -5760.5701     -133.37801      42488.986      116.89828    
     49790   466.51284     -5853.1597     -5760.5968      71.346566      42446.397      116.80314    
     49800   468.50406     -5853.6431     -5760.6852      182.49291      42404.049      116.69013    
     49810   472.26172     -5854.5352     -5760.8317      310.81386      42362.647      116.57105    
     49820   472.32526     -5854.7574     -5761.0413      477.0464       42322.949      116.46015    
     49830   470.38135     -5854.6329     -5761.3025      623.97523      42285.901      116.36395    
     49840   471.93205     -5855.2445     -5761.6064      665.35186      42252.294      116.281      
     49850   473.58653     -5855.9198     -5761.9534      642.03156      42222.402      116.20846    
     49860   468.59149     -5855.3101     -5762.3348      750.9856       42196.175      116.14375    
     49870   460.22691     -5854.0378     -5762.7222      1066.5644      42174.248      116.09181    
     49880   453.46642     -5853.052      -5763.0778      1384.7602      42158.272      116.06432    
     49890   452.94912     -5853.2644     -5763.3928      1635.8743      42149.993      116.0723     
     49900   456.88804     -5854.3304     -5763.6773      1655.0673      42150.747      116.11812    
     49910   466.42009     -5856.5076     -5763.9631      1444.6026      42160.643      116.19854    
     49920   465.80441     -5856.6987     -5764.2765      1237.9845      42178.643      116.30314    
     49930   463.30526     -5856.5442     -5764.6178      1029.3685      42203.637      116.41299    
     49940   463.57551     -5856.9584     -5764.9784      765.13164      42234.424      116.51593    
     49950   458.78423     -5856.3801     -5765.3508      642.62089      42269.649      116.60657    
     49960   445.6204      -5854.1261     -5765.7086      685.85345      42308.677      116.68658    
     49970   438.74435     -5853.0681     -5766.015       587.24446      42351.548      116.7628     
     49980   444.97344     -5854.545      -5766.2559      237.55576      42397.691      116.84141    
     49990   450.18425     -5855.7737     -5766.4507     -144.64903      42445.263      116.92889    
     50000   446.35534     -5855.1841     -5766.6208     -242.85261      42492.246      117.02935    
Loop time of 8749.13 on 1 procs for 20000 steps with 1536 atoms

Performance: 0.198 ns/day, 121.516 hours/ns, 2.286 timesteps/s, 3.511 katom-step/s
121.1% CPU use with 1 MPI tasks x 1 OpenMP threads

MPI task timing breakdown:
Section |  min time  |  avg time  |  max time  |%varavg| %total
---------------------------------------------------------------
Pair    | 8694.9     | 8694.9     | 8694.9     |   0.0 | 99.38
Bond    | 0.020242   | 0.020242   | 0.020242   |   0.0 |  0.00
Neigh   | 6.2784     | 6.2784     | 6.2784     |   0.0 |  0.07
Comm    | 0.73028    | 0.73028    | 0.73028    |   0.0 |  0.01
Output  | 45.472     | 45.472     | 45.472     |   0.0 |  0.52
Modify  | 1.5212     | 1.5212     | 1.5212     |   0.0 |  0.02
Other   |            | 0.1923     |            |       |  0.00

Nlocal:           1536 ave        1536 max        1536 min
Histogram: 1 0 0 0 0 0 0 0 0 0
Nghost:           2688 ave        2688 max        2688 min
Histogram: 1 0 0 0 0 0 0 0 0 0
Neighs:              0 ave           0 max           0 min
Histogram: 1 0 0 0 0 0 0 0 0 0
FullNghs:        56278 ave       56278 max       56278 min
Histogram: 1 0 0 0 0 0 0 0 0 0

Total # of neighbors = 56278
Ave neighs/atom = 36.639323
Ave special neighs/atom = 0
Neighbor list builds = 2000
Dangerous builds = 2000
unfix           3

write_data      structure.end.data
System init for write_data ...
write_restart   structure.end
System init for write_restart ...
                    
Total wall time: 3:40:16
