LAMMPS (29 Sep 2021 - Update 3)
OMP_NUM_THREADS environment is not set. Defaulting to 1 thread. (src/comm.cpp:98)
  using 1 OpenMP thread(s) per MPI task
units	metal
atom_style	full

read_data	mixed.data
Reading data file ...
  orthogonal box = (0.0000000 0.0000000 0.0000000) to (16.534670 17.767358 74.594796)
  1 by 2 by 8 MPI processor grid
  reading atoms ...
  864 atoms
Finding 1-2 1-3 1-4 neighbors ...
  special bond factors lj:    0        0        0       
  special bond factors coul:  0        0        0       
     0 = max # of 1-2 neighbors
     0 = max # of 1-3 neighbors
     0 = max # of 1-4 neighbors
     1 = max # of special neighbors
  special bonds CPU = 0.001 seconds
  read_data CPU = 0.039 seconds

pair_style	quip
pair_coeff	* * /ocean/projects/cts180021p/wuziqi/clease/mint-PD/PhaseDiagram-Clease/Liquid/GAP_potential/gap_LiKCl.xml "Potential xml_label=GAP_2021_9_27_0_1_17_37_618" 17 19 3

neighbor	0.3 bin
neigh_modify	delay 10

timestep	0.001
compute	msd all msd
thermo_style	custom step temp pe etotal press vol c_msd[4]
thermo	10
dump	1 all custom 10 xyz-mix.dump type id x y z
dump	2 all custom 10 force-mix.dump type id fx fy fz

fix     1 all nve
run     2000
Neighbor list info ...
  update every 1 steps, delay 10 steps, check yes
  max neighbors/atom: 2000, page size: 100000
  master list distance cutoff = 6.22
  ghost atom cutoff = 6.22
  binsize = 3.11, bins = 6 6 24
  1 neighbor lists, perpetual/occasional/extra = 1 0 0
  (1) pair quip, perpetual
      attributes: full, newton on
      pair build: full/bin
      stencil: full/bin/3d
      bin: standard
Per MPI rank memory allocation (min/avg/max) = 8.894 | 8.906 | 8.915 Mbytes
Step Temp PotEng TotEng Press Volume c_msd[4] 
       0            0   -8413.4292   -8413.4292   -12531.916    21914.265            0 
      10    63.367096   -8420.5059   -8413.4372   -13062.757    21914.265 0.00028900792 
      20    162.23389   -8431.5423   -8413.4448   -13580.932    21914.265 0.0035442006 
      30    203.76318   -8436.1707   -8413.4406   -13263.999    21914.265  0.011998633 
      40     225.5427      -8438.6   -8413.4404   -13091.981    21914.265  0.023619499 
      50    238.39464   -8440.0352   -8413.4419   -13192.953    21914.265  0.036411648 
      60    237.91747   -8439.9798   -8413.4397    -13151.82    21914.265  0.049420327 
      70    242.25882   -8440.4649   -8413.4405   -12986.142    21914.265  0.062561747 
      80    243.33226   -8440.5825   -8413.4384   -12841.846    21914.265  0.075987004 
      90     256.1439    -8442.014   -8413.4408   -12985.089    21914.265  0.088683986 
     100    260.92723   -8442.5467   -8413.4399   -13129.532    21914.265   0.10092572 
     110    263.36735   -8442.8185   -8413.4395   -13314.209    21914.265   0.11296329 
     120    267.45703   -8443.2754   -8413.4402   -13403.997    21914.265   0.12509928 
     130    267.20277   -8443.2463   -8413.4395   -13198.457    21914.265   0.13819283 
     140    269.21359   -8443.4705   -8413.4393   -12839.711    21914.265   0.15259322 
     150     276.3754   -8444.2699   -8413.4398   -12564.061    21914.265   0.16775295 
     160    282.09052   -8444.9077   -8413.4401   -12400.914    21914.265   0.18315323 
     170    283.74907   -8445.0928   -8413.4402     -12430.3    21914.265    0.1989762 
     180    279.57367   -8444.6271   -8413.4402   -12727.353    21914.265   0.21536827 
     190    272.01519   -8443.7829   -8413.4391   -12943.608    21914.265   0.23180139 
     200    272.98877   -8443.8921   -8413.4397   -13066.814    21914.265    0.2476891 
     210    278.28656   -8444.4833     -8413.44   -13119.162    21914.265   0.26290373 
     220    281.61115   -8444.8543   -8413.4402    -13052.65    21914.265   0.27743582 
     230    283.45537   -8445.0589    -8413.439   -12948.839    21914.265   0.29133107 
     240    292.81696   -8446.1046   -8413.4404   -13016.029    21914.265    0.3048675 
     250    295.20203   -8446.3705   -8413.4402   -13077.887    21914.265   0.31931215 
     260    290.46684   -8445.8415   -8413.4394   -13040.528    21914.265   0.33532684 
     270    290.61991    -8445.858   -8413.4389   -13235.455    21914.265   0.35239777 
     280    301.25443   -8447.0456   -8413.4402   -13515.282    21914.265   0.36952956 
     290    308.28623   -8447.8304   -8413.4406   -13611.572    21914.265   0.38667041 
     300    309.20907   -8447.9319   -8413.4392   -13455.868    21914.265    0.4041006 
     310     314.5316   -8448.5273   -8413.4408   -13198.597    21914.265   0.42152557 
     320    312.09261   -8448.2546   -8413.4402   -12968.083    21914.265   0.43866959 
     330    305.84421   -8447.5573   -8413.4399   -12657.381    21914.265   0.45536472 
     340    303.20988   -8447.2632   -8413.4397   -12498.026    21914.265   0.47172581 
     350    307.13857   -8447.7018     -8413.44   -12492.368    21914.265   0.48754232 
     360    312.15901   -8448.2619   -8413.4401   -12369.505    21914.265   0.50223919 
     370     318.6847   -8448.9898     -8413.44   -12195.898    21914.265   0.51545083 
     380    326.66636   -8449.8808   -8413.4407   -12030.164    21914.265   0.52751087 
     390    328.67292   -8450.1043   -8413.4403   -11786.931    21914.265   0.53983918 
     400    329.42172   -8450.1875     -8413.44   -11529.418    21914.265   0.55338123 
     410    329.12824   -8450.1558   -8413.4411   -11363.621    21914.265   0.56856317 
     420    321.17839   -8449.2675   -8413.4396   -11329.503    21914.265   0.58578319 
     430    319.73313   -8449.1067     -8413.44   -11645.546    21914.265   0.60460993 
     440    321.87014   -8449.3455   -8413.4404   -12168.872    21914.265   0.62482739 
     450    321.69175   -8449.3257   -8413.4405   -12517.526    21914.265   0.64605131 
     460    321.58625   -8449.3131   -8413.4397   -12738.117    21914.265   0.66602281 
     470    327.73765   -8450.0009   -8413.4413    -13118.13    21914.265   0.68222539 
     480    325.78012   -8449.7811   -8413.4399   -13518.975    21914.265   0.69547134 
     490    325.26696   -8449.7242   -8413.4402   -13912.333    21914.265   0.70709849 
     500    326.02809   -8449.8096   -8413.4407    -14245.82    21914.265    0.7181905 
     510     321.8067   -8449.3384   -8413.4404   -14358.421    21914.265   0.73031831 
     520    314.82643   -8448.5595   -8413.4401   -14393.561    21914.265   0.74493886 
     530    311.55922   -8448.1945   -8413.4396    -14504.26    21914.265   0.76206346 
     540    316.52181   -8448.7487   -8413.4402   -14692.451    21914.265   0.78048733 
     550    323.45997   -8449.5224     -8413.44   -14675.954    21914.265   0.79880458 
     560    332.20295   -8450.4987   -8413.4409    -14432.97    21914.265   0.81596428 
     570    332.37528   -8450.5179   -8413.4409   -14008.452    21914.265   0.83234674 
     580    324.44532    -8449.632   -8413.4397   -13682.622    21914.265   0.84880328 
     590    322.54654   -8449.4211   -8413.4405   -13611.186    21914.265   0.86493346 
     600    320.03229     -8449.14   -8413.4399   -13618.158    21914.265   0.88136827 
     610     322.0694   -8449.3667   -8413.4393   -13770.866    21914.265   0.89972436 
     620    332.97088   -8450.5844    -8413.441   -14040.679    21914.265   0.91979176 
     630    336.52886   -8450.9806   -8413.4403   -14106.634    21914.265    0.9400978 
     640    340.63169   -8451.4378   -8413.4399   -14084.373    21914.265   0.95883362 
     650     349.6267   -8452.4431   -8413.4417   -14126.089    21914.265   0.97518253 
     660     345.3101   -8451.9607   -8413.4408    -13925.09    21914.265   0.98949595 
     670    335.30236   -8450.8431   -8413.4396   -13541.064    21914.265    1.0025057 
     680    335.35657   -8450.8495     -8413.44   -13120.509    21914.265    1.0157598 
     690    342.86707   -8451.6878   -8413.4405   -12807.122    21914.265    1.0306556 
     700    350.61517   -8452.5527    -8413.441   -12613.893    21914.265    1.0481195 
     710    351.61871   -8452.6647   -8413.4411    -12558.63    21914.265     1.067876 
     720    346.37378   -8452.0785     -8413.44   -12478.274    21914.265    1.0873947 
     730    347.79156   -8452.2373   -8413.4406   -12593.955    21914.265    1.1041491 
     740    351.02442    -8452.599   -8413.4417   -12781.856    21914.265    1.1188548 
     750    344.89782   -8451.9145   -8413.4406   -12888.282    21914.265     1.133643 
     760      340.342   -8451.4064   -8413.4407   -13050.736    21914.265    1.1491825 
     770    340.04955   -8451.3737   -8413.4407   -13326.749    21914.265    1.1643304 
     780      345.357   -8451.9656   -8413.4405   -13558.373    21914.265    1.1777023 
     790    357.12317   -8453.2788   -8413.4411   -13831.043    21914.265    1.1886997 
     800    366.64045   -8454.3407   -8413.4414   -14129.874    21914.265    1.1976392 
     810    368.68447   -8454.5688   -8413.4415   -14063.484    21914.265    1.2056605 
     820    366.60174   -8454.3361   -8413.4411   -13908.726    21914.265    1.2141717 
     830    365.85586   -8454.2531   -8413.4413   -13853.131    21914.265    1.2243585 
     840     368.4524   -8454.5423   -8413.4409   -13972.673    21914.265    1.2365636 
     850    371.87492   -8454.9262    -8413.443    -14131.16    21914.265    1.2503596 
     860     358.1746   -8453.3954   -8413.4405     -13818.7    21914.265    1.2649975 
     870    354.45705   -8452.9806   -8413.4404   -13465.958    21914.265     1.278191 
     880    366.65296   -8454.3425   -8413.4418   -13399.092    21914.265    1.2880847 
     890    376.93995   -8455.4909   -8413.4426    -13274.53    21914.265    1.2959326 
     900    375.96913   -8455.3817   -8413.4418   -13062.805    21914.265    1.3041818 
     910    374.01489   -8455.1632   -8413.4413   -12824.206    21914.265    1.3130528 
     920    378.94842   -8455.7136   -8413.4414   -12747.174    21914.265    1.3222121 
     930    388.54983   -8456.7859   -8413.4426   -12880.601    21914.265    1.3329508 
     940    389.80019   -8456.9258    -8413.443   -12981.003    21914.265    1.3457299 
     950    382.52604   -8456.1127   -8413.4413   -12918.004    21914.265    1.3587946 
     960    381.75271   -8456.0275   -8413.4424   -13120.356    21914.265    1.3710856 
     970    380.20365    -8455.854   -8413.4417   -13297.868    21914.265    1.3835601 
     980    384.06597   -8456.2848   -8413.4416    -13360.21    21914.265    1.3967998 
     990    391.39252    -8457.104   -8413.4436    -13319.56    21914.265    1.4114384 
    1000    385.55287   -8456.4508   -8413.4418   -13032.957    21914.265    1.4285977 
    1010    381.98963   -8456.0536   -8413.4421   -12900.345    21914.265    1.4480597 
    1020    382.08452   -8456.0644   -8413.4423   -12891.786    21914.265    1.4678099 
    1030    380.66666   -8455.9065   -8413.4425   -12820.478    21914.265    1.4859085 
    1040    378.02017   -8455.6107    -8413.442   -12814.774    21914.265    1.5012686 
    1050    381.70997   -8456.0224   -8413.4421   -12925.622    21914.265    1.5119118 
    1060    391.42566   -8457.1073   -8413.4432    -13146.33    21914.265    1.5173209 
    1070    396.24192   -8457.6441   -8413.4428   -13102.084    21914.265    1.5196151 
    1080    397.63032   -8457.7993    -8413.443   -12889.784    21914.265    1.5211703 
    1090    396.12759   -8457.6308   -8413.4422   -12537.537    21914.265    1.5231683 
    1100    400.33119   -8458.1002   -8413.4426   -12299.668    21914.265    1.5256834 
    1110    407.17314   -8458.8635   -8413.4428   -12099.612    21914.265    1.5296348 
    1120    413.19804   -8459.5369    -8413.444   -11926.861    21914.265    1.5369315 
    1130    409.94165   -8459.1721   -8413.4425   -11927.354    21914.265    1.5487344 
    1140    411.69689   -8459.3679   -8413.4425   -12274.932    21914.265    1.5644715 
    1150    417.92932   -8460.0654   -8413.4448   -12599.199    21914.265    1.5822789 
    1160    409.45399   -8459.1175   -8413.4423   -12608.558    21914.265    1.6004412 
    1170    405.75202   -8458.7057   -8413.4435   -12496.116    21914.265    1.6169469 
    1180    399.97271   -8458.0606    -8413.443   -12466.412    21914.265    1.6317671 
    1190    393.04741   -8457.2883   -8413.4433   -12618.331    21914.265    1.6460138 
    1200    381.93867   -8456.0489   -8413.4431   -12576.103    21914.265    1.6602667 
    1210    376.72969   -8455.4667   -8413.4419   -12745.258    21914.265    1.6726433 
    1220     387.4652   -8456.6661   -8413.4437   -13270.317    21914.265    1.6819979 
    1230    392.11995   -8457.1848   -8413.4433   -13698.725    21914.265    1.6894908 
    1240    392.35374   -8457.2109   -8413.4432   -14054.078    21914.265    1.6958816 
    1250    387.63167   -8456.6848   -8413.4439   -14383.659    21914.265    1.7022745 
    1260    377.01437   -8455.4984   -8413.4419   -14780.957    21914.265    1.7098627 
    1270    380.16106   -8455.8505   -8413.4429    -15291.91    21914.265    1.7186286 
    1280    386.65141    -8456.575   -8413.4435   -15684.863    21914.265    1.7280931 
    1290    386.45138   -8456.5524   -8413.4431   -15669.118    21914.265    1.7377267 
    1300    384.49318   -8456.3333   -8413.4425   -15192.167    21914.265    1.7465203 
    1310    389.16883   -8456.8559   -8413.4435   -14748.802    21914.265    1.7543822 
    1320    395.91985   -8457.6092   -8413.4437   -14540.669    21914.265    1.7626209 
    1330    402.24128   -8458.3144   -8413.4438   -14482.176    21914.265    1.7719127 
    1340    406.72312   -8458.8138   -8413.4433   -14593.779    21914.265    1.7822942 
    1350    413.88937   -8459.6138   -8413.4438   -14633.206    21914.265    1.7929881 
    1360    418.26368   -8460.1021   -8413.4441   -14272.723    21914.265    1.8043383 
    1370    412.53709   -8459.4628   -8413.4437   -13640.472    21914.265    1.8173742 
    1380    404.03017    -8458.513   -8413.4428   -13053.663    21914.265    1.8314414 
    1390    402.11865   -8458.3013   -8413.4444   -12796.252    21914.265    1.8446224 
    1400    396.75786   -8457.7017   -8413.4428   -12890.081    21914.265    1.8555613 
    1410     401.1626   -8458.1945   -8413.4442   -13251.623    21914.265    1.8625402 
    1420    405.53922    -8458.683   -8413.4445   -13540.901    21914.265    1.8651673 
    1430    404.12534   -8458.5245   -8413.4437   -13662.885    21914.265    1.8648977 
    1440    405.72045   -8458.7027    -8413.444   -13771.634    21914.265    1.8643414 
    1450    406.67484   -8458.8092    -8413.444   -13873.149    21914.265    1.8661066 
    1460    406.94702   -8458.8395   -8413.4439   -13898.845    21914.265    1.8707341 
    1470    405.99802   -8458.7335   -8413.4438    -13583.81    21914.265    1.8783175 
    1480    405.25435   -8458.6503   -8413.4436   -13097.342    21914.265    1.8881067 
    1490    408.19865    -8458.979   -8413.4439   -12662.726    21914.265    1.8977467 
    1500    414.56579   -8459.6887   -8413.4433   -12296.863    21914.265    1.9065246 
    1510    429.03716   -8461.3044   -8413.4447   -11735.577    21914.265    1.9156573 
    1520    435.43303   -8462.0188   -8413.4456   -11140.275    21914.265    1.9269758 
    1530    420.46896   -8460.3486   -8413.4446     -10759.3    21914.265    1.9420002 
    1540    404.55727   -8458.5707   -8413.4417   -10562.297    21914.265    1.9594173 
    1550     414.5371   -8459.6878   -8413.4456   -10873.945    21914.265    1.9756145 
    1560    415.64167   -8459.8093   -8413.4438    -11180.84    21914.265    1.9896674 
    1570    417.51903   -8460.0192   -8413.4444   -11574.862    21914.265      2.00287 
    1580    420.71133   -8460.3754   -8413.4444   -12084.028    21914.265    2.0173903 
    1590    422.23753   -8460.5459   -8413.4446   -12650.323    21914.265    2.0354221 
    1600    420.26548   -8460.3254   -8413.4441   -13157.964    21914.265    2.0567995 
    1610    418.97614   -8460.1816   -8413.4442   -13379.664    21914.265    2.0784503 
    1620    422.99101    -8460.629   -8413.4437   -13476.483    21914.265    2.0978277 
    1630    431.41255   -8461.5707    -8413.446   -13473.665    21914.265     2.115193 
    1640    426.28653   -8460.9963   -8413.4434   -13430.412    21914.265    2.1338075 
    1650    431.13487   -8461.5387    -8413.445   -13658.596    21914.265       2.1559 
    1660    436.17822   -8462.1019   -8413.4456   -13638.641    21914.265    2.1797337 
    1670    428.12023   -8461.2022   -8413.4447   -13252.346    21914.265    2.2035441 
    1680    422.66155   -8460.5919   -8413.4434   -13022.696    21914.265    2.2262152 
    1690    430.34848   -8461.4521    -8413.446   -12966.155    21914.265    2.2464937 
    1700    426.21611   -8460.9896   -8413.4446   -12849.343    21914.265    2.2649593 
    1710    421.63281   -8460.4781   -8413.4443    -12902.06    21914.265    2.2822078 
    1720    425.52952   -8460.9136   -8413.4451   -13254.993    21914.265    2.2992296 
    1730    433.21398   -8461.7705   -8413.4448   -13760.925    21914.265    2.3170264 
    1740    441.86781   -8462.7372   -8413.4461   -14050.542    21914.265    2.3352522 
    1750    438.27813    -8462.336   -8413.4454   -13921.401    21914.265    2.3528289 
    1760    429.17186   -8461.3192   -8413.4444   -13408.002    21914.265    2.3694072 
    1770    428.81898   -8461.2807   -8413.4453    -12917.73    21914.265    2.3858611 
    1780    433.34916   -8461.7857    -8413.445   -12638.931    21914.265    2.4026666 
    1790     441.0669   -8462.6474   -8413.4457   -12705.172    21914.265     2.419074 
    1800    447.24535   -8463.3359    -8413.445   -12842.309    21914.265    2.4345236 
    1810    451.04914   -8463.7611   -8413.4459   -13058.485    21914.265    2.4502124 
    1820    445.08252   -8463.0941   -8413.4445   -13035.825    21914.265    2.4671851 
    1830    441.70858   -8462.7187   -8413.4454   -12922.342    21914.265    2.4853863 
    1840    432.65555   -8461.7082   -8413.4449   -13058.866    21914.265    2.5046773 
    1850    428.24526   -8461.2146   -8413.4432   -13494.155    21914.265    2.5239509 
    1860    442.70809   -8462.8312   -8413.4464     -14052.9    21914.265    2.5417036 
    1870    445.34398   -8463.1238   -8413.4451   -14177.248    21914.265    2.5577578 
    1880    449.56383   -8463.5931   -8413.4436   -14088.107    21914.265    2.5732932 
    1890    469.70151   -8465.8424   -8413.4465   -13965.821    21914.265    2.5900107 
    1900    475.61979   -8466.5029   -8413.4468   -13338.709    21914.265    2.6092547 
    1910    460.77113   -8464.8444   -8413.4447   -12266.897    21914.265    2.6300063 
    1920    453.29076   -8464.0097   -8413.4444   -11600.031    21914.265    2.6488623 
    1930    455.01355   -8464.2038   -8413.4464   -11532.276    21914.265     2.664581 
    1940    446.57627   -8463.2611   -8413.4448   -11610.068    21914.265    2.6787843 
    1950    442.24787   -8462.7779   -8413.4445    -12067.88    21914.265     2.691974 
    1960    445.34565   -8463.1243   -8413.4453   -12574.104    21914.265    2.7033659 
    1970     445.3849   -8463.1293   -8413.4459   -12683.518    21914.265    2.7130116 
    1980    438.45896   -8462.3558    -8413.445   -12521.804    21914.265    2.7223802 
    1990    435.82997    -8462.062   -8413.4445   -12590.151    21914.265    2.7312795 
    2000    445.20858   -8463.1089   -8413.4452   -13039.215    21914.265    2.7384799 
Loop time of 1242.11 on 16 procs for 2000 steps with 864 atoms

Performance: 0.139 ns/day, 172.515 hours/ns, 1.610 timesteps/s
97.2% CPU use with 16 MPI tasks x 1 OpenMP threads

MPI task timing breakdown:
Section |  min time  |  avg time  |  max time  |%varavg| %total
---------------------------------------------------------------
Pair    | 450.88     | 697.59     | 1200.3     | 867.4 | 56.16
Bond    | 0.00016356 | 0.00040786 | 0.00075603 |   0.0 |  0.00
Neigh   | 0.017065   | 0.029056   | 0.053235   |   6.4 |  0.00
Comm    | 41.626     | 486.36     | 720.89     | 964.3 | 39.16
Output  | 0.13584    | 38.474     | 89.913     | 527.9 |  3.10
Modify  | 0.0080776  | 0.010237   | 0.012169   |   1.0 |  0.00
Other   |            | 19.63      |            |       |  1.58

Nlocal:        54.0000 ave          84 max          36 min
Histogram: 3 3 4 0 0 2 1 0 1 2
Nghost:        477.750 ave         592 max         348 min
Histogram: 2 0 2 1 3 3 1 0 0 4
Neighs:         0.00000 ave           0 max           0 min
Histogram: 16 0 0 0 0 0 0 0 0 0
FullNghs:      2234.12 ave        4892 max        1038 min
Histogram: 5 5 0 0 2 0 2 0 0 2

Total # of neighbors = 35746
Ave neighs/atom = 41.372685
Ave special neighs/atom = 0.0000000
Neighbor list builds = 199
Dangerous builds = 198
unfix   1

velocity    all create 1050.0 1312343 dist gaussian
fix     2 all npt temp 1050.0 1050.0 $(100.0*dt) aniso 0.0 1.01325 $(1000.0*dt)
fix     2 all npt temp 1050.0 1050.0 0.10000000000000000555 aniso 0.0 1.01325 $(1000.0*dt)
fix     2 all npt temp 1050.0 1050.0 0.10000000000000000555 aniso 0.0 1.01325 1
run     3000
Per MPI rank memory allocation (min/avg/max) = 8.894 | 8.907 | 8.916 Mbytes
Step Temp PotEng TotEng Press Volume c_msd[4] 
    2000         1050   -8463.1089   -8345.9798   -9750.9014    21914.265    2.7384799 
    2010    935.18241   -8450.3324   -8346.0114   -8335.4037    21908.761    2.7418828 
    2020    787.35314   -8433.7753   -8345.9448   -6277.6195    21893.741    2.7482313 
    2030    767.96314   -8431.2419   -8345.5744   -6094.2209    21871.333    2.7510227 
    2040    760.36898   -8429.6287   -8344.8084   -5656.5901    21842.053    2.7501298 
    2050    759.44689   -8428.4787   -8343.7613   -5100.7405    21806.431    2.7481048 
    2060    776.82142   -8429.2923   -8342.6367   -4799.5857     21765.17    2.7478426 
    2070    773.88152   -8427.9463   -8341.6187   -3648.6995    21718.922    2.7513619 
    2080    774.57398   -8427.0955   -8340.6906   -2221.7164    21669.126     2.758273 
    2090    785.14988    -8427.311   -8339.7264    -1452.879    21617.533    2.7672509 
    2100    790.90019   -8426.8876   -8338.6615   -1380.9954     21565.26    2.7744353 
    2110    810.08439   -8427.8643   -8337.4982   -1820.5239     21512.66    2.7769916 
    2120    828.40957   -8428.6561   -8336.2458    -2287.282    21459.575    2.7784098 
    2130    834.61839    -8428.059   -8334.9561   -2675.9851    21405.778    2.7841043 
    2140    832.70493   -8426.5246   -8333.6351   -3057.9503    21351.164     2.796511 
    2150    836.38488   -8425.5842   -8332.2842   -3250.7993    21295.684    2.8139205 
    2160    846.92552   -8425.3699   -8330.8941   -3009.1786    21239.514    2.8314306 
    2170    857.05945   -8425.0432    -8329.437   -2054.1529    21183.284    2.8456136 
    2180    873.68307   -8425.3423   -8327.8817   -641.64624    21128.264    2.8569668 
    2190    905.51063   -8427.2376   -8326.2265    496.84209    21076.027    2.8683957 
    2200    931.91304   -8428.4935   -8324.5372    1199.9567    21027.729    2.8824551 
    2210    924.53611   -8426.0279   -8322.8945    2077.7712    20984.027    2.9023991 
    2220    910.21544   -8422.8508   -8321.3149    2642.9353    20945.517    2.9288853 
    2230    929.04213   -8423.3778   -8319.7417    2005.9888    20912.331    2.9550855 
    2240    945.48399   -8423.6099   -8318.1397    1220.4784    20883.563    2.9752934 
    2250    946.39622   -8422.0926   -8316.5207    905.41856    20858.135    2.9923603 
    2260    947.50135   -8420.5811   -8314.8859    1292.4051    20835.503    3.0126071 
    2270    967.07699   -8421.1075   -8313.2286    1550.5315    20815.743    3.0366733 
    2280    995.65688   -8422.6428   -8311.5758    1295.2356    20798.844    3.0639122 
    2290    1008.9557   -8422.5437   -8309.9932    763.31678    20784.322    3.0945546 
    2300    1009.2889   -8421.0944   -8308.5067    785.82785    20771.527    3.1288556 
    2310    1017.7108   -8420.6113   -8307.0842    1531.6699    20760.357    3.1651345 
    2320    1026.4908   -8420.1887   -8305.6821    2637.1763    20751.403    3.2010932 
    2330    1034.1437   -8419.6804   -8304.3201    3299.2941    20745.556    3.2358229 
    2340    1053.7363   -8420.5557   -8303.0098    3074.0828    20743.238     3.272663 
    2350    1046.7902   -8418.5532   -8301.7822    2510.8283     20744.09    3.3166438 
    2360    1058.0655   -8418.6688   -8300.6401    1334.7173    20747.364    3.3684625 
    2370    1064.3252   -8418.2874   -8299.5603     646.7629    20751.884    3.4262163 
    2380    1043.4145   -8414.9482   -8298.5537    577.00067    20756.923    3.4858543 
    2390    1055.7832   -8415.3617   -8297.5875    448.89572    20762.329    3.5443982 
    2400    1087.3813   -8417.9566   -8296.6575    456.14228    20767.994    3.6001422 
    2410      1092.76   -8417.7247   -8295.8257    872.90367    20773.951    3.6544969 
    2420    1075.1122   -8415.0528   -8295.1225    1547.6359    20780.627    3.7123056 
    2430    1085.2637   -8415.5837   -8294.5209    1469.7619    20788.584    3.7726773 
    2440    1099.8131   -8416.6842   -8293.9984    1402.4409    20797.795    3.8357345 
    2450    1102.7227   -8416.6073   -8293.5969    1713.4728    20808.191    3.9079436 
    2460    1101.0555   -8416.1442   -8293.3198    2143.7943    20820.037     3.986345 
    2470    1124.0122   -8418.5593    -8293.174    2595.8731    20833.714    4.0625618 
    2480    1139.8107   -8420.3645   -8293.2169    3107.6658     20849.66    4.1375314 
    2490    1121.6448   -8418.6046   -8293.4834    3375.8815    20868.293    4.2143077 
    2500    1124.4466   -8419.3815   -8293.9477    3438.1551    20889.799    4.2924204 
    2510    1107.8441   -8418.1637   -8294.5821    3612.4911    20914.205    4.3740541 
    2520    1068.0746   -8414.4712   -8295.3258    3670.8749    20941.586    4.4558988 
    2530    1063.9396   -8414.7964   -8296.1123     3417.127    20971.875    4.5318545 
    2540    1071.5178   -8416.4455   -8296.9161    3141.7464     21004.75    4.6040711 
    2550    1071.9581     -8417.31   -8297.7314     2659.516    21039.786    4.6808889 
    2560    1091.9615   -8420.3945   -8298.5845      1772.28    21076.342    4.7685936 
    2570    1109.1662   -8423.2628   -8299.5336    807.37569    21113.449    4.8663557 
    2580    1103.2652   -8423.6393   -8300.5684   -60.707679    21150.049    4.9683793 
    2590    1117.6023   -8426.3682    -8301.698   -1009.6219    21185.172     5.066122 
    2600    1095.2867   -8425.1001   -8302.9192   -1250.5281    21217.952    5.1583732 
    2610    1049.8538    -8421.247   -8304.1342   -1660.5072    21248.098    5.2474337 
    2620    1050.9901   -8422.5128   -8305.2732   -2913.9889    21275.171    5.3333984 
    2630    1071.6698   -8425.9211   -8306.3747   -3715.0851    21298.064    5.4182563 
    2640     1056.883   -8425.3815   -8307.4846   -3085.2744    21316.199     5.507182 
    2650    1038.7387   -8424.4387   -8308.5659   -2256.9071    21330.287    5.6013675 
    2660    1058.2402   -8427.6584   -8309.6101   -1807.4168    21341.328    5.6972368 
    2670    1044.8112   -8427.1792    -8310.629    -1547.028    21349.947    5.7946375 
    2680    1003.8092   -8423.5264     -8311.55   -1490.7024    21356.523    5.8916728 
    2690     1017.575   -8425.8341   -8312.3221   -2000.6076     21361.15    5.9813251 
    2700    1050.9967   -8430.2554   -8313.0151    -1925.268    21363.494    6.0616328 
    2710    1030.6852   -8428.6294   -8313.6549     -782.395    21363.785    6.1367054 
    2720    1014.6176   -8427.3898   -8314.2077    506.08956    21363.263    6.2110236 
    2730    1046.2729    -8431.408   -8314.6947    671.08708    21363.207    6.2893741 
    2740    1061.8266    -8433.622   -8315.1737    258.07725    21363.829    6.3762444 
    2750    1044.0952    -8432.158   -8315.6876   -250.85843    21364.691    6.4707128 
    2760    1011.7215   -8429.0624   -8316.2034   -866.69932    21365.235    6.5652387 
    2770    996.45969   -8427.8087   -8316.6521   -1800.1395    21364.801    6.6512896 
    2780    1009.2879   -8429.5912   -8317.0036   -2947.2964    21362.443    6.7243354 
    2790    1018.3007   -8430.8602   -8317.2673    -3474.935    21357.118     6.779995 
    2800    1008.1068   -8429.9037   -8317.4479   -3213.5775    21348.401    6.8193919 
    2810    1010.4855   -8430.2514   -8317.5302   -2788.1665    21336.669    6.8553799 
    2820    1048.6305   -8434.5174   -8317.5411     -3062.94    21322.425     6.896488 
    2830    1068.0384    -8436.685   -8317.5437   -3081.0813    21305.585    6.9447156 
    2840    1060.8461   -8435.9141   -8317.5752   -2601.4846    21286.263    6.9993924 
    2850    1060.0066   -8435.8753   -8317.6299   -2375.0603    21265.021    7.0533067 
    2860    1054.6653   -8435.3481   -8317.6986   -1660.7802    21242.271    7.0978482 
    2870     1036.604   -8433.3903   -8317.7555   -204.09835    21218.859    7.1308737 
    2880    1069.5824   -8437.1173   -8317.8037    643.73753    21196.192    7.1520326 
    2890    1075.2284   -8437.8305   -8317.8871     1877.179    21175.225    7.1684829 
    2900    1047.3753   -8434.8397   -8318.0034    3050.7439    21157.132    7.1884836 
    2910    1082.3254   -8438.8919   -8318.1569    2720.7746    21142.863    7.2170529 
    2920       1102.9   -8441.4265   -8318.3964    2651.8704    21132.079    7.2578478 
    2930    1080.0701    -8439.234   -8318.7505    3353.4882    21124.593    7.3097883 
    2940     1075.557   -8439.1675   -8319.1875    3086.9791    21120.813    7.3668201 
    2950    1087.6254   -8441.0197   -8319.6934    2148.2118    21120.358     7.426789 
    2960    1073.2305   -8440.0068   -8320.2864     1860.097     21122.26    7.4885247 
    2970    1057.4683   -8438.9104   -8320.9482    1292.1872    21126.011    7.5495668 
    2980    1052.0647   -8439.0108   -8321.6514    235.50649    21130.911    7.6102199 
    2990    998.15833   -8433.6557   -8322.3096   -17.875568    21135.945    7.6743299 
    3000    1007.1233   -8435.2142   -8322.8681   -858.68934    21140.691    7.7430514 
    3010    1049.7083   -8440.4357   -8323.3392   -1742.0606    21144.346    7.8176842 
    3020    1047.4912   -8440.6273   -8323.7781   -1287.3725    21146.177    7.8990758 
    3030    1035.8767   -8439.7687   -8324.2151   -796.98669    21146.582    7.9863738 
    3040    1036.6884   -8440.2547   -8324.6106   -383.71727    21146.146    8.0774184 
    3050    1047.9478   -8441.8487   -8324.9485   -223.70703    21145.296    8.1721148 
    3060     1056.887   -8443.1507   -8325.2533     158.9276    21144.265    8.2715629 
    3070    1072.6498   -8445.2368   -8325.5811    389.29289    21143.443    8.3729653 
    3080    1067.6723   -8445.0681   -8325.9676    404.32686    21143.061    8.4709489 
    3090    1054.9009   -8444.0642   -8326.3884     27.04909    21143.086      8.55956 
    3100     1087.279   -8448.1496    -8326.862   -756.57118     21143.08    8.6400271 
    3110    1105.9023   -8450.8034   -8327.4383   -766.78881    21142.354    8.7203825 
    3120    1094.8901   -8450.2782   -8328.1416   -600.41125    21140.868    8.8050372 
    3130    1073.8266   -8448.7163   -8328.9294   -748.30416    21138.785    8.8920619 
    3140    1050.8177   -8446.9353    -8329.715   -423.04747    21136.076    8.9812977 
    3150    1053.2505   -8447.9692   -8330.4775   -172.80709    21133.015    9.0728689 
    3160     1053.751    -8448.771   -8331.2235     155.3131    21129.909    9.1662806 
    3170    1046.9125   -8448.7371   -8331.9524  -0.46409011    21127.027    9.2570939 
    3180    1026.3508    -8447.131     -8332.64    85.508034     21124.29    9.3417002 
    3190    1011.1439   -8446.0382   -8333.2436    265.30247    21121.781     9.420629 
    3200    1036.5142   -8449.4176   -8333.7929   -450.16587    21119.557    9.4944189 
    3210    1044.9124   -8450.8642   -8334.3027    -560.4781    21117.026     9.561247 
    3220    1072.3456   -8454.4278   -8334.8061    -335.9728    21114.022    9.6233687 
    3230     1087.141   -8456.6251   -8335.3528   -104.36752    21110.764    9.6883068 
    3240    1058.6921   -8454.0633   -8335.9646    291.44122    21107.521    9.7646817 
    3250    1038.9521   -8452.4499   -8336.5533    738.71495     21104.74    9.8557858 
    3260    1085.0978   -8458.1811   -8337.1368    231.05438    21102.747     9.959433 
    3270    1067.4874   -8456.8284   -8337.7486    157.41827     21101.13    10.067691 
    3280    1069.7621   -8457.7322   -8338.3987    -229.1456    21099.702    10.169432 
    3290    1086.6401   -8460.3055   -8339.0891   -545.62713    21098.103    10.259862 
    3300    1096.4915   -8462.1683    -8339.853   -795.36144    21095.984     10.33495 
    3310     1110.071   -8464.5516   -8340.7215   -1173.5562    21093.108    10.397864 
    3320    1100.3395   -8464.4411   -8341.6966   -1312.2753    21089.135    10.463981 
    3330    1082.5898   -8463.4737   -8342.7091   -980.04995    21083.975    10.546748 
    3340    1090.9577   -8465.4423   -8343.7443    -741.4889    21077.957    10.649337 
    3350    1051.2756    -8462.001   -8344.7297   -472.49469    21071.404    10.764017 
    3360    1043.9641   -8462.0624   -8345.6066   -948.52104    21064.523    10.880512 
    3370    1079.6227   -8466.8553   -8346.4217   -2082.8707    21056.832      10.9923 
    3380     1057.242   -8465.1466   -8347.2096   -2372.7494    21047.344    11.096199 
    3390    1022.3615    -8461.957   -8347.9111   -2101.9044    21035.789    11.187871 
    3400    1041.5219   -8464.6917   -8348.5084   -2210.6619    21022.422    11.268564 
    3410    1062.8132   -8467.6105   -8349.0521   -2206.1048    21007.234    11.346989 
    3420    1050.8051   -8466.8019    -8349.583   -2063.6051    20990.282    11.426562 
    3430     1021.418   -8464.0049   -8350.0642   -1747.5987    20971.823    11.502464 
    3440    1039.7432    -8466.458   -8350.4731    -1986.769    20952.159    11.568116 
    3450    1078.7123   -8471.2029   -8350.8709   -2205.0505    20931.134    11.620752 
    3460     1056.628   -8469.1585   -8351.2901   -1065.3302    20908.737    11.663422 
    3470    1070.0155   -8471.0768    -8351.715   -459.70572    20885.966    11.701355 
    3480     1114.881   -8476.5888   -8352.2222   -327.17676    20863.479    11.741202 
    3490    1104.4125   -8476.0587   -8352.8598    683.35074    20841.555    11.792145 
    3500    1103.3579   -8476.7003   -8353.6191    1467.9952    20821.069    11.857684 
    3510    1071.0298   -8473.9087   -8354.4337    2025.0268    20802.769    11.931965 
    3520     1078.114   -8475.5204   -8355.2551    1790.7472    20787.084    12.007277 
    3530    1097.7172   -8478.5703   -8356.1183    1211.1434    20773.744    12.075942 
    3540    1068.9931   -8476.2365   -8356.9887    527.45736    20762.095    12.133898 
    3550    1068.4038    -8477.009    -8357.827   -1062.6882    20751.295    12.184357 
    3560    1069.2749   -8477.9107   -8358.6315   -2178.1439    20739.841    12.234228 
    3570    1052.1444   -8476.7505   -8359.3822   -2485.6818    20726.642    12.286727 
    3580    1044.7143   -8476.6073   -8360.0679   -2627.4143    20711.384    12.337435 
    3590    1028.0181   -8475.3353   -8360.6584   -2435.1865    20694.029    12.382449 
    3600    1059.2949   -8479.3342   -8361.1682   -2178.2874    20674.797    12.419345 
    3610    1087.3418   -8482.9596    -8361.665   -1701.1118    20654.001    12.449434 
    3620     1070.853    -8481.632   -8362.1767   -507.95642    20632.246    12.476404 
    3630    1078.6525   -8483.0273   -8362.7019    244.28026    20610.643    12.504699 
    3640    1081.8168   -8483.9316   -8363.2533    723.97763    20589.944    12.543142 
    3650    1080.1516   -8484.3236   -8363.8311    1395.1796    20570.651    12.594286 
    3660    1065.0166   -8483.2242     -8364.42     1768.835    20553.325    12.653532 
    3670    1045.2934   -8481.5841     -8364.98     1537.783    20538.256    12.717141 
    3680    1077.3282   -8485.7075   -8365.5299    371.92819    20525.091    12.783162 
    3690    1085.4599   -8487.1954   -8366.1107    95.567132    20512.791    12.848108 
    3700    1063.4952     -8485.36   -8366.7255    645.40231    20501.031    12.908529 
    3710    1032.1392    -8482.439   -8367.3023    621.23583    20490.217    12.966458 
    3720    1039.6329   -8483.7935   -8367.8209   -37.545191    20480.279     13.02389 
    3730    1025.6355   -8482.6777   -8368.2665    738.37071    20470.737    13.084542 
    3740    1019.9925   -8482.4052   -8368.6235    2252.5717    20462.266    13.152657 
    3750    1051.8859   -8486.2595     -8368.92    3144.2533    20456.194    13.225934 
    3760    1054.6866   -8486.8486   -8369.1968    3977.7944     20453.42    13.295969 
    3770    1075.2235   -8489.4298    -8369.487    3548.1758    20454.531    13.357712 
    3780    1117.5991    -8494.516   -8369.8461    2451.8258     20459.07    13.416831 
    3790    1117.8576   -8495.0289   -8370.3302    1532.2992     20465.94    13.485341 
    3800    1115.2232   -8495.3629   -8370.9581    711.07525    20474.146    13.563385 
    3810     1099.177     -8494.32   -8371.7052    755.67766    20482.945    13.638719 
    3820    1090.4594   -8494.1751   -8372.5327    1013.9923    20492.298    13.704657 
    3830    1104.8394   -8496.6635    -8373.417    505.28968     20502.35    13.769983 
    3840    1103.1291   -8497.4155   -8374.3598    219.98879    20512.699    13.844282 
    3850     1095.304   -8497.4936   -8375.3108   -409.81154    20522.995    13.930697 
    3860     1093.107    -8498.165   -8376.2272    -1815.382    20532.568    14.028576 
    3870    1061.8129   -8495.5052   -8377.0584   -2843.6556    20540.145    14.133462 
    3880    1053.9704   -8495.3386   -8377.7666   -3199.0689    20544.777    14.238185 
    3890    1053.8521   -8495.9152   -8378.3564   -3258.9312     20546.12    14.338172 
    3900    1037.8339   -8494.6103   -8378.8383     -2901.96     20544.22    14.431725 
    3910    1045.4331   -8495.8523   -8379.2327   -3195.3393    20539.431     14.51753 
    3920    1057.6877   -8497.5712   -8379.5846   -3965.1966    20531.545    14.601906 
    3930    1062.6589   -8498.4576   -8379.9164   -3958.0691    20519.981    14.691579 
    3940    1091.6296   -8502.0308   -8380.2578   -3065.4614    20504.853    14.785803 
    3950    1105.2503   -8503.9479   -8380.6556   -1722.3021    20487.099      14.8788 
    3960    1080.7933   -8501.6852   -8381.1211    301.37799    20468.169    14.968659 
    3970    1065.4794   -8500.4636   -8381.6077    1784.6711    20450.009    15.060153 
    3980    1073.3615   -8501.8485   -8382.1134    2362.8776     20434.02    15.160302 
    3990    1074.4873    -8502.509   -8382.6483    2465.4162    20420.753    15.270365 
    4000    1105.2411   -8506.5389   -8383.2476    1814.3762    20410.186    15.384083 
    4010    1124.7183   -8509.4321   -8383.9681    1906.4145     20401.75    15.488958 
    4020    1096.3475   -8507.0911   -8384.7919    2839.3884    20395.489    15.585195 
    4030    1092.1057   -8507.5167   -8385.6907    3476.0691    20392.146    15.688368 
    4040    1078.8462   -8506.9591   -8386.6122    3558.4611    20392.268    15.809117 
    4050    1083.7079   -8508.4246   -8387.5354    2756.7414    20395.833    15.948161 
    4060    1094.5865   -8510.5772   -8388.4745    1447.0594    20401.958    16.106287 
    4070    1086.7468    -8510.664   -8389.4358    1148.5683    20409.433    16.287207 
    4080    1062.6674   -8508.8769   -8390.3347    1215.7641    20417.871    16.487356 
    4090    1076.1891   -8511.1698   -8391.1193    578.97081    20427.213     16.69458 
    4100    1072.3442   -8511.4403   -8391.8187    136.37718    20436.885    16.903543 
    4110    1054.4609   -8510.0811   -8392.4544     14.30906    20446.425    17.111015 
    4120    1051.9675   -8510.3522   -8393.0037    -236.3598    20455.684    17.316568 
    4130     1053.312   -8510.9721   -8393.4736   -969.96088    20464.383    17.521151 
    4140    1062.4949   -8512.4366   -8393.9137   -1979.8802    20471.826    17.722005 
    4150    1053.7711   -8511.8816   -8394.3318   -2560.4391    20477.129     17.91394 
    4160     1052.279   -8512.1074   -8394.7241   -3021.2998    20479.731    18.092166 
    4170    1059.0009   -8513.2433   -8395.1102   -3189.8636    20479.295    18.254709 
    4180    1061.3132   -8513.8823   -8395.4913   -2989.0851    20475.771    18.402345 
    4190    1081.8439   -8516.5965   -8395.9151   -2504.9627     20469.43    18.530182 
    4200    1041.1507   -8512.4997   -8396.3578   -622.32131    20460.977    18.638817 
    4210    1029.1808    -8511.572   -8396.7653    1006.4744     20452.17    18.736133 
    4220    1040.5488   -8513.1971   -8397.1223    1697.1913    20444.559    18.835079 
    4230    1040.1181   -8513.4711   -8397.4443    2150.0548    20438.869    18.942363 
    4240    1050.8208   -8514.9603   -8397.7397    2025.2419    20435.423    19.052508 
    4250    1073.0443   -8517.7393   -8398.0396    1724.0264    20434.077    19.157037 
    4260    1072.7503   -8518.0524   -8398.3855     1814.146    20434.508    19.258784 
    4270    1052.3645    -8516.173   -8398.7801    2426.2712    20436.769    19.371498 
    4280    1058.5477    -8517.272   -8399.1894    2576.1524    20441.334     19.50142 
    4290    1102.8142   -8522.6719   -8399.6513    1538.5267    20448.191    19.639149 
    4300    1098.5126   -8522.7544   -8400.2136     693.1773    20456.371    19.771558 
    4310    1079.0368   -8521.2421   -8400.8739    653.40142    20465.049    19.890382 
    4320    1061.9329   -8520.0404   -8401.5802    748.74364     20474.12    19.996841 
    4330    1052.6273   -8519.7033   -8402.2811    668.41041    20483.672    20.098645 
    4340    1077.3145   -8523.1699   -8402.9939   -116.31949    20493.547    20.206368 
    4350    1053.5075   -8521.2356   -8403.7152    329.49745    20503.168    20.321234 
    4360    1035.7726   -8519.9254   -8404.3834    1046.2017    20512.877    20.431837 
    4370    1063.2964   -8523.6194   -8405.0071    1432.7389    20523.333    20.531204 
    4380    1057.7805   -8523.5787   -8405.5817    1504.4382    20534.934    20.623577 
    4390    1097.0639   -8528.5356   -8406.1565    434.29687    20547.625    20.714448 
    4400    1083.7474   -8527.6406   -8406.7469    334.41896    20560.527    20.812917 
    4410    1061.8833   -8525.7778   -8407.3231    847.45481    20573.508    20.925462 
    4420    1107.9524     -8531.49   -8407.8963    192.24026     20586.89    21.050852 
    4430    1103.3876   -8531.6051   -8408.5206    145.53858    20600.209     21.18541 
    4440    1055.7499   -8526.9134   -8409.1429    515.69186    20613.387    21.325013 
    4450    1074.9667   -8529.6281    -8409.714   -383.43933    20626.639    21.460896 
    4460      1088.82   -8531.7113   -8410.2518   -1272.6981    20639.201    21.587277 
    4470    1070.7687   -8530.2168   -8410.7709   -1333.9119     20650.26    21.709558 
    4480    1075.7935   -8531.2743   -8411.2679    -1518.082    20659.697    21.837295 
    4490    1077.9352   -8531.9927   -8411.7475    -1899.534     20667.38    21.969257 
    4500    1070.1514   -8531.6071   -8412.2301   -2131.9034    20672.962    22.096569 
    4510    1032.3389   -8527.8345   -8412.6755   -1946.3865    20676.303    22.212735 
    4520    1038.7637    -8528.924   -8413.0483    -2692.258    20677.532     22.31832 
    4530    1068.6637   -8532.5893   -8413.3782   -4174.9898     20675.96    22.419272 
    4540    1066.9024   -8532.7385   -8413.7239   -5305.5614    20670.237    22.526842 
    4550     1061.732   -8532.5617   -8414.1239   -5916.4768    20659.344    22.645753 
    4560    1043.1672   -8530.9178    -8414.551   -6001.5548    20642.805    22.762347 
    4570    1043.5596   -8531.3837   -8414.9731   -5795.9878    20620.664    22.858167 
    4580    1059.1468    -8533.532   -8415.3826   -5342.2925    20593.297    22.920211 
    4590    1061.8649    -8534.232   -8415.7794   -3856.6389    20561.433    22.948613 
    4600    1065.4724   -8534.9992   -8416.1441   -2432.0437    20526.612    22.956228 
    4610    1073.9606   -8536.3153   -8416.5133   -1586.9823    20490.342    22.963009 
    4620    1076.6108   -8537.0138   -8416.9163   -1440.3721    20453.531    22.986153 
    4630    1099.5789   -8540.0546   -8417.3949   -1271.0806    20416.457    23.027715 
    4640    1093.5842   -8539.9487   -8417.9577   -552.61727    20379.356    23.079243 
    4650    1075.7243   -8538.5818   -8418.5831    505.80689    20342.955    23.128116 
    4660    1061.3793   -8537.6104    -8419.212    1809.8255    20308.305    23.167248 
    4670    1061.4707   -8538.2367    -8419.828     3027.579     20276.58    23.199091 
    4680    1054.1256   -8538.0082   -8420.4189    3827.5104    20248.817    23.232681 
    4690    1066.7029   -8539.9915   -8420.9992    4562.0496    20225.675    23.276177 
    4700    1066.9642   -8540.6031   -8421.5816    5186.3735    20207.701    23.333344 
    4710     1062.467   -8540.6873   -8422.1675    4750.3638    20195.232    23.406127 
    4720    1086.4095   -8543.9721   -8422.7815     3446.974    20187.654    23.498543 
    4730    1073.2554   -8543.1467   -8423.4234    2824.3526    20183.707    23.611909 
    4740    1056.7548   -8541.9298   -8424.0472    2628.9909    20182.648    23.742564 
    4750    1085.0704    -8545.709   -8424.6678     1839.346    20184.065    23.891631 
    4760    1096.5088   -8547.6325   -8425.3153    1936.1548    20187.288      24.0614 
    4770    1105.1001   -8549.2695   -8425.9939    1912.5937    20192.256    24.247071 
    4780    1120.7642   -8551.7259   -8426.7029    725.20783    20198.792    24.437654 
    4790    1107.8874   -8551.0047   -8427.4182   -272.56134    20205.847    24.624811 
    4800    1102.9544   -8551.1485   -8428.1123   -739.22615    20212.462    24.802726 
    4810    1119.1011   -8553.6453   -8428.8079   -748.95822    20218.201    24.970139 
    4820    1119.9557   -8554.4669   -8429.5342   -82.453656    20223.122    25.131593 
    4830    1134.2387   -8556.8297   -8430.3036    311.87114    20227.785    25.292102 
    4840    1139.1663   -8558.2249   -8431.1492    201.67721    20232.557    25.452381 
    4850    1082.8354   -8552.8036   -8432.0117    521.39224    20237.428    25.611104 
    4860    1048.9856   -8549.7819    -8432.766    353.80568    20242.594    25.764005 
    4870    1079.1737   -8553.8075   -8433.4241    26.472702    20247.931    25.906928 
    4880    1083.7146   -8554.9317   -8434.0417    197.44507    20253.194    26.037581 
    4890    1084.4767    -8555.641    -8434.666   -153.48053    20258.434    26.155824 
    4900    1074.7235   -8555.1861    -8435.299   -1128.0735    20263.315    26.266103 
    4910    1077.6073   -8556.1463   -8435.9375   -2167.3761    20266.944    26.375432 
    4920    1080.3819   -8557.1135   -8436.5953    -2221.843     20268.45    26.482963 
    4930    1074.5866   -8557.1426   -8437.2708   -1431.6867    20267.831     26.58531 
    4940    1073.2109   -8557.6779   -8437.9596   -256.54679    20265.889    26.687999 
    4950    1057.5221   -8556.6165   -8438.6483    1102.6641    20263.787    26.800257 
    4960    1045.0432   -8555.8869   -8439.3107    2662.3265    20262.866    26.932139 
    4970    1075.4423   -8559.9385   -8439.9713    2873.3243    20264.426    27.089002 
    4980    1091.3571   -8562.3904   -8440.6478    2445.2059    20268.684    27.256875 
    4990    1090.7676    -8563.045   -8441.3682     2240.286    20275.219     27.42163 
    5000    1054.6492   -8559.7525   -8442.1048    2539.4885    20283.788    27.591819 
Loop time of 1980.77 on 16 procs for 3000 steps with 864 atoms

Performance: 0.131 ns/day, 183.405 hours/ns, 1.515 timesteps/s
96.3% CPU use with 16 MPI tasks x 1 OpenMP threads

MPI task timing breakdown:
Section |  min time  |  avg time  |  max time  |%varavg| %total
---------------------------------------------------------------
Pair    | 740.67     | 1201.1     | 1955.2     |1125.9 | 60.64
Bond    | 0.0002985  | 0.0010778  | 0.0018134  |   1.5 |  0.00
Neigh   | 0.026994   | 0.045921   | 0.088203   |   9.3 |  0.00
Comm    | 2.3663     | 516.51     | 1062.3     |1418.5 | 26.08
Output  | 1.2658     | 1.2693     | 1.3204     |   1.2 |  0.06
Modify  | 0.1945     | 261.87     | 795.7      |1565.1 | 13.22
Other   |            | 0.01306    |            |       |  0.00

Nlocal:        54.0000 ave          90 max          32 min
Histogram: 2 6 0 2 0 1 2 1 0 2
Nghost:        496.500 ave         677 max         352 min
Histogram: 4 2 0 1 2 3 0 2 0 2
Neighs:         0.00000 ave           0 max           0 min
Histogram: 16 0 0 0 0 0 0 0 0 0
FullNghs:      2537.38 ave        6008 max         913 min
Histogram: 8 0 2 0 1 2 1 0 0 2

Total # of neighbors = 40598
Ave neighs/atom = 46.988426
Ave special neighs/atom = 0.0000000
Neighbor list builds = 300
Dangerous builds = 300
unfix   2

fix     3 all npt temp 1050.0 1050.0 $(100.0*dt) aniso 1.01325 1.01325 $(1000.0*dt)
fix     3 all npt temp 1050.0 1050.0 0.10000000000000000555 aniso 1.01325 1.01325 $(1000.0*dt)
fix     3 all npt temp 1050.0 1050.0 0.10000000000000000555 aniso 1.01325 1.01325 1
run     20000
Per MPI rank memory allocation (min/avg/max) = 8.895 | 8.909 | 8.923 Mbytes
Step Temp PotEng TotEng Press Volume c_msd[4] 
    5000    1054.6492   -8559.7525   -8442.1048    2539.4885    20283.788    27.591819 
    5010    1052.0869    -8559.462   -8442.1001    2351.4511    20285.085    27.626301 
    5020    1117.8508   -8566.8378   -8442.1398    140.27872    20288.498    27.691867 
    5030    1095.2225   -8564.4793   -8442.3056   -975.57678    20292.166    27.783148 
    5040    1052.7685     -8560.02   -8442.5821   -828.16924    20294.991    27.890058 
    5050     1097.524   -8565.3723   -8442.9418   -1059.1743    20296.949    28.003147 
    5060    1073.8522    -8563.175   -8443.3852   -584.74735     20297.96     28.11861 
    5070    1060.2363   -8562.1692   -8443.8983   -902.56455    20298.328    28.237917 
    5080     1073.946   -8564.2826   -8444.4823   -1590.3347     20297.78    28.360308 
    5090    1053.5181   -8562.6443   -8445.1227   -1463.1359    20295.759     28.48766 
    5100    1061.2802   -8564.1812   -8445.7938   -1753.2276    20292.247    28.619291 
    5110    1093.6804   -8568.5408   -8446.5391   -2114.7051    20286.999    28.753372 
    5120    1079.1754   -8567.7815   -8447.3978   -1649.3501    20279.779    28.894776 
    5130    1067.5705   -8567.4166   -8448.3275   -1434.8015    20270.917    29.049701 
    5140    1061.2588   -8567.6556   -8449.2706   -1189.3373    20260.653    29.211817 
    5150    1063.8946   -8568.8579   -8450.1789   -458.88819     20249.28    29.373303 
    5160    1085.6732   -8572.1838   -8451.0754    524.49905    20237.486    29.534163 
    5170    1047.6065    -8568.757   -8451.8949     2475.541    20226.347    29.691169 
    5180    1031.6303   -8567.6428   -8452.5629    2782.9628    20217.503     29.84131 
    5190    1062.7958   -8571.6707   -8453.1143    1432.9194    20211.254    29.989833 
    5200    1047.8989   -8570.4717    -8453.577    501.92415     20206.49    30.152957 
    5210    1054.2433   -8571.5587   -8453.9563   -460.75194    20202.235    30.338364 
    5220    1049.5673   -8571.3434   -8454.2626   -1024.0545    20197.582    30.533529 
    5230    1030.1965   -8569.4036   -8454.4836   -430.27814    20192.079     30.72072 
    5240    1064.6116    -8573.406   -8454.6469   -628.45999    20186.078    30.892413 
    5250    1067.6607   -8573.9097   -8454.8105   -556.24391    20179.518    31.053633 
    5260    1057.3614   -8572.9554   -8455.0051   -289.83315    20172.482    31.213933 
    5270    1042.9512   -8571.5471   -8455.2043   -366.19363    20165.159    31.379784 
    5280    1060.3272   -8573.6708   -8455.3897   -1030.3351    20157.452    31.548519 
    5290    1099.5285   -8578.2574   -8455.6033   -2062.2072    20148.726    31.707587 
    5300    1083.8869    -8576.796   -8455.8868   -1352.5926    20138.225    31.849759 
    5310    1060.1612   -8574.4876    -8456.225     355.5961    20126.571    31.981266 
    5320    1047.0623   -8573.3641   -8456.5627     2244.132    20115.367    32.113053 
    5330    1053.6385   -8574.4129    -8456.878    3429.2965    20106.362    32.247295 
    5340    1091.2152   -8578.9287    -8457.202    2563.7767    20100.529    32.376626 
    5350    1088.9987   -8579.0749   -8457.5954    1587.3482    20097.198    32.497418 
    5360    1056.9313   -8575.9554   -8458.0531    1177.9405    20095.466     32.61466 
    5370    1053.4278   -8576.0481   -8458.5366    408.94728    20094.836    32.733858 
    5380    1043.6831   -8575.4362   -8459.0118   -138.33452    20094.631    32.856916 
    5390    1045.8506   -8576.1593   -8459.4931   -712.80957    20094.282    32.987068 
    5400    1022.7394   -8574.0388   -8459.9507   -728.56731      20093.3     33.12471 
    5410    1035.7807   -8575.8966   -8460.3537     -1046.13    20091.601    33.263215 
    5420    1072.8049   -8580.4275   -8460.7545   -1610.4267    20088.893    33.396213 
    5430    1052.2971   -8578.5533    -8461.168   -1151.8073     20084.76    33.526376 
    5440    1052.7117   -8579.0208   -8461.5892   -265.23299    20079.601    33.658426 
    5450    1054.4793   -8579.6468    -8462.018    373.65924    20074.213     33.79451 
    5460     1075.988   -8582.5109   -8462.4828     597.2241    20069.233    33.933063 
    5470    1076.4404   -8583.1057   -8463.0272     262.9016    20064.819    34.073339 
    5480    1040.1345   -8579.6254   -8463.5968    11.878861    20060.716     34.22823 
    5490    1074.4999   -8584.0271    -8464.165   -610.51907    20056.643    34.405289 
    5500    1072.1864   -8584.3438   -8464.7398   -643.08821    20052.096    34.592765 
    5510    1064.2927   -8584.0706   -8465.3472    42.182162    20047.037    34.774689 
    5520    1058.5734   -8584.0498   -8465.9644     904.0299      20042.1    34.953372 
    5530    1063.2454    -8585.169   -8466.5624    956.62687    20038.034    35.135109 
    5540    1074.2668   -8587.0173   -8467.1813    486.73186    20034.885    35.317264 
    5550    1061.3289   -8586.2009   -8467.8081    247.91692     20032.25    35.500764 
    5560    1053.8183   -8585.9846   -8468.4296    351.52135    20029.903    35.680742 
    5570    1027.2263   -8583.5811   -8468.9924    1014.0026    20027.996    35.854829 
    5580    1024.0922   -8583.6917   -8469.4526    1306.4377    20027.048    36.024864 
    5590    1031.7795   -8584.8785   -8469.7819    1462.4416    20027.355    36.190286 
    5600    1051.9992   -8587.3795   -8470.0274    480.58649    20028.953    36.349621 
    5610    1041.1329   -8586.3577   -8470.2178   -815.39027    20030.968    36.501618 
    5620    1039.6624   -8586.3381   -8470.3621   -1317.3465    20032.256    36.639925 
    5630    1060.2517    -8588.739   -8470.4663    -883.5848    20032.362    36.760976 
    5640    1085.2336   -8591.6359   -8470.5765    39.049175    20031.663     36.87064 
    5650    1107.2705   -8594.2706   -8470.7529    986.28297    20031.034    36.978753 
    5660      1082.89   -8591.8173   -8471.0193    1818.3391    20031.349    37.089497 
    5670    1033.9148    -8586.619   -8471.2843    2420.1572    20033.426    37.204679 
    5680    1086.7834   -8592.7766   -8471.5442    1025.5813    20037.573     37.32811 
    5690    1114.3894   -8596.1673   -8471.8555    228.69186    20042.691    37.459317 
    5700    1086.6959   -8593.4694   -8472.2469     625.0073    20048.082    37.599253 
    5710    1091.6112   -8594.4681   -8472.6973    319.09953    20053.904     37.74919 
    5720    1081.3969   -8593.8086   -8473.1771   -109.40734    20059.961    37.911073 
    5730    1071.1908   -8593.1593   -8473.6664   -1344.9672    20065.764    38.081331 
    5740    1083.0404   -8594.9906   -8474.1758   -2765.5887    20070.172    38.251213 
    5750    1068.2139   -8593.8523   -8474.6915   -2872.2149    20071.987    38.410802 
    5760     1085.388   -8596.3043   -8475.2276   -2660.4328    20071.046    38.552916 
    5770    1086.9318   -8597.0409   -8475.7921   -2650.3943    20067.554    38.683471 
    5780     1113.791   -8600.6782   -8476.4331   -3598.9821    20061.516      38.8222 
    5790    1115.6972   -8601.6481   -8477.1904   -4511.4612    20052.143    38.977125 
    5800    1068.7827   -8597.2192   -8477.9949   -3819.8329     20038.77    39.131636 
    5810    1055.1251   -8596.4479   -8478.7471   -2535.3638    20022.034    39.272099 
    5820    1063.5457    -8598.064   -8479.4239   -1277.1155    20003.162    39.402207 
    5830    1066.1785   -8598.9745   -8480.0407    68.490422    19983.451    39.528525 
    5840    1081.7178   -8601.3081   -8480.6408    792.09186    19964.134    39.667974 
    5850    1097.7702   -8603.7159    -8481.258    1003.4943     19945.93    39.839264 
    5860     1106.481   -8605.3477    -8481.918    708.47207    19929.011    40.038889 
    5870    1087.5152   -8603.9117   -8482.5977      1328.73    19913.247    40.254904 
    5880    1078.1852   -8603.5218   -8483.2486    1783.0212    19899.083       40.474 
    5890    1086.5656   -8605.0842   -8483.8762    2135.3108    19886.922    40.685943 
    5900     1083.439   -8605.3342    -8484.475    2645.4999    19877.089    40.886607 
    5910    1084.2452   -8606.0135   -8485.0643    2929.8368    19869.969    41.079661 
    5920     1083.503   -8606.5553   -8485.6889    2928.5097    19865.732    41.276194 
    5930    1062.2317   -8604.8176    -8486.324    3437.1523    19864.393    41.480458 
    5940    1059.6824   -8605.1614   -8486.9522    3304.5699     19866.24    41.697187 
    5950    1054.8443   -8605.2227   -8487.5532    1952.4153    19871.039    41.939441 
    5960    1083.0695   -8608.9553   -8488.1373   -242.63772    19877.478    42.217302 
    5970    1108.4801   -8612.3979   -8488.7452   -1932.8508     19883.59    42.518793 
    5980    1100.8904    -8612.223    -8489.417   -2414.4001    19887.845    42.822462 
    5990    1040.2257    -8606.127   -8490.0883   -1449.3813    19889.881    43.111202 
    6000    1033.7397   -8606.0015   -8490.6862   -794.95778    19890.501    43.384998 
    6010    1093.8727   -8613.2886   -8491.2655    -1850.725    19890.203     43.65792 
    6020    1094.2984   -8613.9896    -8491.919   -2122.5335    19888.267    43.936503 
    6030    1056.2955   -8610.4349   -8492.6035   -1588.1003    19884.464    44.223201 
    6040    1037.2391   -8608.9354   -8493.2298   -1025.8568    19879.285    44.516214 
    6050    1039.6077   -8609.7173   -8493.7475   -883.08532    19873.253    44.814572 
    6060    1072.2725   -8613.8322   -8494.2186   -1234.1688    19866.515    45.123374 
    6070    1056.1528   -8612.4972   -8494.6818   -1158.5039    19858.867    45.439977 
    6080    1064.3281   -8613.8807   -8495.1533   -1330.3702    19850.342    45.750546 
    6090    1068.0693   -8614.7898    -8495.645   -1537.3323    19840.835    46.039936 
    6100    1015.7768   -8609.4183   -8496.1069   -797.45288    19830.297    46.298955 
    6110    1011.3426   -8609.2772   -8496.4604   -464.91499    19819.293    46.529509 
    6120    1066.3967   -8615.6991    -8496.741   -704.54856    19808.116    46.732791 
    6130    1076.6348   -8617.1204   -8497.0202   -89.999392    19796.707    46.916222 
    6140    1084.6415   -8618.3396   -8497.3462     572.2754    19785.554    47.086897 
    6150    1076.3753   -8617.7848   -8497.7136    1332.1055    19775.284      47.2419 
    6160    1070.9308   -8617.5885   -8498.1245    1668.7444    19766.509     47.38534 
    6170     1052.951   -8616.0333    -8498.575     2402.949    19759.588    47.526953 
    6180    1036.3099   -8614.6167   -8499.0148    2642.5465    19755.036    47.674465 
    6190    1078.2297   -8619.7446   -8499.4665    1646.3724    19752.918    47.820805 
    6200    1078.3013   -8620.2444   -8499.9583    1829.6263    19752.481    47.948029 
    6210    1088.8348   -8621.9755   -8500.5143    2717.1984      19753.8     48.05185 
    6220    1082.4784   -8621.8914   -8501.1393    3203.6296    19757.575    48.153346 
    6230    1064.9381   -8620.5876   -8501.7921    2746.9715    19764.153     48.27167 
    6240    1066.5486   -8621.4321    -8502.457    2237.0573    19773.121    48.414539 
    6250    1043.2207   -8619.4585   -8503.0856    2031.8668    19783.985     48.57819 
    6260    1064.1258   -8622.3854   -8503.6806    1633.2012    19796.468    48.752802 
    6270    1076.8053   -8624.3691   -8504.2499    1250.7805    19810.213    48.933931 
    6280     1095.655   -8627.0585   -8504.8365    42.063821    19824.773    49.119702 
    6290    1084.4847   -8626.4061   -8505.4302   -1421.5985    19839.061    49.298791 
    6300    1075.0276   -8625.9297   -8506.0087    -2490.753    19851.775    49.455446 
    6310    1069.7899   -8625.8872   -8506.5505   -3137.2748    19861.979    49.578641 
    6320     1059.167   -8625.1901   -8507.0384    -3402.205    19869.104     49.67882 
    6330     1080.334   -8628.0044   -8507.4915   -3187.5805     19872.97    49.779023 
    6340    1088.5379   -8629.3849   -8507.9568   -2756.9933    19873.813    49.890321 
    6350      1070.68   -8627.8559   -8508.4199   -2604.7885    19872.028    50.002728 
    6360    1083.0076   -8629.6892   -8508.8781   -2709.5343    19867.787    50.100654 
    6370    1066.1573    -8628.241   -8509.3095   -1858.1029    19861.186    50.185236 
    6380    1075.9298   -8629.7613   -8509.7397   -1446.0709    19852.907    50.268629 
    6390    1087.5354   -8631.5122    -8510.196   -882.58476    19843.406     50.36342 
    6400    1080.4588   -8631.2154   -8510.6886    788.31751    19833.318     50.47539 
    6410    1066.4283   -8630.1654   -8511.2038     2605.787    19824.121    50.609978 
    6420    1054.9541   -8629.3948   -8511.7131    3692.3566    19817.426    50.789832 
    6430    1065.7615   -8631.1022   -8512.2149    4204.2297    19814.228    51.040832 
    6440    1079.7772   -8633.1959   -8512.7452    4335.1565    19814.963    51.369909 
    6450    1076.1673   -8633.3601    -8513.312    4110.5146    19819.716    51.763328 
    6460    1076.2582    -8633.932   -8513.8738    3374.4011    19828.205    52.192394 
    6470    1073.2494   -8634.1416    -8514.419    2441.1542    19839.713    52.636613 
    6480    1074.4519   -8634.8217    -8514.965    1517.5386    19853.362    53.085313 
    6490    1104.7733   -8638.8136   -8515.5745    305.68027    19868.196    53.533216 
    6500    1101.3086   -8639.1312   -8516.2786   -561.70637      19883.1    53.980336 
    6510    1077.2869   -8637.1974   -8517.0244   -907.14455    19897.293    54.422512 
    6520    1059.3336   -8635.9239   -8517.7537   -1272.0068    19910.413    54.855868 
    6530    1040.4708   -8634.4607   -8518.3946    -2087.212    19922.079    55.273279 
    6540    1054.1841   -8636.5569   -8518.9611    -2929.767    19931.573    55.660751 
    6550    1049.9003   -8636.6069   -8519.4889   -2694.3815     19938.25    56.013523 
    6560    1059.7009   -8638.2177   -8520.0065   -2266.2579    19942.267    56.339309 
    6570    1068.2108   -8639.6735    -8520.513   -1670.3824    19944.104    56.643374 
    6580    1080.4393   -8641.5476    -8521.023   -1213.2881    19944.314    56.933627 
    6590    1074.0891   -8641.3429   -8521.5266    135.14432    19943.483    57.220626 
    6600    1066.5376   -8640.9796   -8522.0057    1839.9212    19942.846    57.512678 
    6610    1086.2558   -8643.6623   -8522.4888    2491.8657    19943.858    57.812784 
    6620     1100.985   -8645.8482   -8523.0316    2267.0942    19947.131    58.123252 
    6630    1091.4869   -8645.4122   -8523.6552    2047.4147    19952.478     58.44488 
    6640    1064.8951   -8643.1174   -8524.3267    2661.0649    19959.739    58.773585 
    6650    1040.7429   -8641.0516   -8524.9552    3156.4689     19969.37    59.106263 
    6660    1072.1948    -8645.132   -8525.5271    2285.0118     19981.67    59.443282 
    6670    1087.4166   -8647.3869    -8526.084    1199.9388    19995.885    59.780035 
    6680    1071.5691   -8646.1675   -8526.6324    23.266319    20010.943     60.10557 
    6690    1047.1619    -8643.941   -8527.1285   -1361.9561    20025.688    60.409813 
    6700    1032.7179     -8642.75   -8527.5487    -2374.754    20038.855       60.685 
    6710    1040.5324   -8643.9651   -8527.8921   -2912.7806    20049.529    60.927438 
    6720    1070.6135   -8647.6355    -8528.207   -3598.7779    20057.189    61.138759 
    6730    1074.3688   -8648.4034   -8528.5559   -3446.4039    20061.349    61.329784 
    6740    1057.1905   -8646.8633   -8528.9321   -2024.0231    20062.269    61.516818 
    6750    1051.9518   -8646.6397   -8529.2929   -1056.9393    20061.198    61.712093 
    6760    1055.4729    -8647.369   -8529.6294   -635.66779    20059.107    61.916015 
    6770    1072.9747   -8649.6614   -8529.9695   -466.82559    20056.417    62.117062 
    6780    1075.2925   -8650.2907   -8530.3402     3.098396    20053.354    62.310383 
    6790    1082.0098   -8651.4538    -8530.754     674.2289    20050.371    62.497719 
    6800    1081.3849    -8651.847   -8531.2169    1907.7936    20048.158    62.685705 
    6810    1079.5066   -8652.1288   -8531.7082    2165.2787    20047.716    62.869448 
    6820     1088.478    -8653.648   -8532.2266    997.34411    20049.232    63.036841 
    6830    1070.6062   -8652.1937   -8532.7659     38.80189    20051.681    63.182148 
    6840    1063.1503   -8651.9105   -8533.3145   -394.43548    20054.156    63.308384 
    6850    1073.2344   -8653.5865   -8533.8656   -829.21624    20056.222    63.421533 
    6860    1064.5467   -8653.1791   -8534.4273    -872.5627    20057.507    63.521715 
    6870    1033.3686   -8650.2322   -8534.9584   -412.62964    20057.979    63.608984 
    6880    1032.6625    -8650.606   -8535.4109    344.80276    20058.087    63.683689 
    6890    1057.4925   -8653.7669   -8535.8021    846.73887    20058.482    63.748864 
    6900     1058.319   -8654.2221   -8536.1651    1824.9657    20059.729    63.811884 
    6910    1055.8568   -8654.3074    -8536.525     2987.053     20062.73    63.880199 
    6920    1062.2642   -8655.3715   -8536.8743     3455.844    20068.475    63.962591 
    6930    1067.4169   -8656.3004   -8537.2284    3838.8626    20077.425    64.066209 
    6940    1025.2955   -8651.9305   -8537.5572    4408.6852    20089.972    64.193187 
    6950    1019.7525   -8651.5753   -8537.8203    3243.0974    20106.454    64.341817 
    6960    1054.7872   -8655.6657   -8538.0026    1050.2963    20125.801    64.489519 
    6970    1062.8795   -8656.7173   -8538.1515   -544.59372    20146.008    64.616784 
    6980    1046.0142   -8654.9738   -8538.2894    -1877.462     20165.46    64.728722 
    6990    1048.1378   -8655.3387   -8538.4173   -3113.7316    20182.883    64.832254 
    7000    1024.5715   -8652.8136   -8538.5212     -3279.18    20197.186    64.914431 
    7010    1023.4054   -8652.7468   -8538.5844   -3397.0952     20208.15    64.971177 
    7020    1062.6189    -8657.158   -8538.6212   -3703.0534    20215.684    65.009372 
    7030    1063.1345   -8657.2678   -8538.6735   -2659.9742    20219.668    65.030102 
    7040    1074.2804   -8658.6074   -8538.7698   -1121.2388    20221.065    65.033193 
    7050    1058.8058   -8656.9965   -8538.8851    449.16382    20221.355    65.031949 
    7060    1037.2474   -8654.6933   -8538.9868    1612.9235    20222.052    65.040048 
    7070    1059.8803   -8657.3198   -8539.0885    1643.2652    20224.212    65.065348 
    7080    1035.9734   -8654.7617   -8539.1973    1555.6025     20227.96    65.119351 
    7090    1057.2632   -8657.2494   -8539.3101    216.84169    20233.076    65.200978 
    7100    1096.9752   -8661.7996   -8539.4304   -1518.4219      20238.3    65.305171 
    7110     1069.487   -8658.9137   -8539.6108   -1108.0756    20242.189    65.446176 
    7120    1035.7943   -8655.3722   -8539.8278   -230.28867    20245.009     65.64058 
    7130    1029.7757   -8654.9151   -8540.0421   -795.81767    20247.433    65.883472 
    7140    1008.1251   -8652.6691   -8540.2112   -1445.7479    20249.058     66.14587 
    7150    1034.9299   -8655.7626   -8540.3146   -2440.9148    20249.226    66.395099 
    7160    1089.1975   -8661.9098   -8540.4082   -2867.3059    20247.083    66.617937 
    7170    1113.9761   -8664.8741   -8540.6084   -2598.3599    20242.243     66.82166 
    7180    1082.7028   -8661.7444   -8540.9673   -1798.5105    20234.992    67.012567 
    7190     1039.042   -8657.3366   -8541.4299   -1491.1698    20226.027    67.192755 
    7200    1033.2655   -8657.2181   -8541.9558   -1587.0069    20215.706    67.357768 
    7210    1026.8851   -8657.1032   -8542.5526   -1050.2199    20204.063    67.503893 
    7220    1025.6289   -8657.6504     -8543.24    49.615859    20191.613    67.634566 
    7230    1007.4786   -8656.4116   -8544.0259    1664.1454    20179.419    67.760176 
    7240    996.27947   -8655.9997   -8544.8632    2645.5797    20168.957    67.889003 
    7250    1021.5399   -8659.7204   -8545.7661    1401.6769    20160.981    68.019221 
    7260    1018.2879   -8660.3304   -8546.7389   -311.22627    20154.441    68.146948 
    7270    1020.0793   -8661.5391   -8547.7477    -1947.098    20147.689    68.265766 
    7280    1032.2337   -8663.9202    -8548.773   -2981.7194    20139.199    68.364245 
    7290    1024.6466   -8664.0801   -8549.7792   -2418.3023    20128.101    68.436005 
    7300    997.07202   -8661.8996   -8550.6747   -824.65961    20114.892    68.481765 
    7310    1004.5038   -8663.4472   -8551.3932    661.10841    20101.062    68.499495 
    7320    1031.2395   -8667.0236   -8551.9873    1310.3652     20087.99     68.48654 
    7330    993.72686   -8663.3195   -8552.4677     2270.612    20076.392    68.445156 
    7340     980.5534   -8662.1593   -8552.7771    1888.4029     20067.01    68.383922 
    7350    1059.7233    -8671.202   -8552.9883   -477.34539    20059.379    68.313092 
    7360    1039.3655   -8669.1091   -8553.1664   -1237.4411    20051.556    68.236303 
    7370    1036.4389   -8668.9469   -8553.3306   -1917.0638    20042.625    68.152659 
    7380    1067.9834     -8672.62   -8553.4849    -2749.643    20031.937    68.054274 
    7390    1045.8921    -8670.323   -8553.6521   -1967.5855    20018.886    67.936035 
    7400    1032.8472   -8669.0328   -8553.8171   -567.57529    20004.175    67.812416 
    7410    1011.5529   -8666.7577   -8553.9174    670.50915    19989.109    67.702246 
    7420    1035.9383    -8669.508   -8553.9475    644.62706    19974.758    67.606153 
    7430    1054.1783   -8671.5354   -8553.9402   -65.045728    19961.137    67.517727 
    7440    1061.9887   -8672.4071   -8553.9407   -433.86826    19947.629    67.439338 
    7450    1069.0465   -8673.2254   -8553.9716   -234.41398    19933.887    67.379308 
    7460    1052.0743   -8671.3774   -8554.0169    513.82993     19920.13    67.343441 
    7470    1082.1886   -8674.8015   -8554.0818    802.08885    19906.958    67.328031 
    7480     1092.673   -8676.0897   -8554.2004    594.16203    19894.624    67.323766 
    7490     1061.267   -8672.7965   -8554.4106    509.31721        19883    67.315469 
    7500    1002.8058   -8666.5054   -8554.6409    1555.2248    19872.094    67.288568 
    7510    988.90417   -8665.0884   -8554.7746     2733.514    19862.796    67.236157 
    7520    1051.5697   -8672.1266   -8554.8224    2863.8531     19856.07    67.159856 
    7530    1063.8437   -8673.5349   -8554.8616    3437.9164    19852.146    67.075066 
    7540    1060.2269   -8673.2238   -8554.9538    4310.5347     19851.52    67.013312 
    7550    1065.5795   -8673.9689   -8555.1019    4674.6885    19854.902    66.994887 
    7560     1074.608   -8675.2107   -8555.3365    4268.9029    19862.589     67.01508 
    7570    1082.5335   -8676.4539   -8555.6957    3205.2016    19874.187    67.060915 
    7580     1087.936   -8677.5945   -8556.2336    1447.1817    19888.654    67.110493 
    7590    1041.8679   -8673.1706   -8556.9486   -181.81583    19904.418    67.144567 
    7600    1026.7964   -8672.3129   -8557.7722   -2731.2173    19919.815    67.168288 
    7610     1071.575   -8678.2837   -8558.7479   -5625.7824    19932.466    67.186808 
    7620    1032.5088   -8675.0544   -8559.8765   -6119.8075    19939.909     67.18864 
    7630    1012.5177   -8673.9911   -8561.0432   -5948.3768    19941.535    67.156581 
    7640    1032.8271   -8677.3953   -8562.1819   -6131.2204    19937.466    67.073522 
    7650    1053.5377   -8680.8054   -8563.2817   -5355.6459     19927.71    66.930963 
    7660    1047.8738   -8681.2137   -8564.3218   -3930.2922     19913.01     66.74199 
    7670    1026.9273   -8679.7835   -8565.2282   -2540.1367    19894.729    66.524101 
    7680    1039.1656   -8681.9138   -8565.9933   -1667.7565     19874.17    66.285039 
    7690    1039.7215   -8682.6069   -8566.6244   -248.94289    19852.284    66.037895 
    7700    1028.9791   -8681.9236   -8567.1394    1171.5836    19830.366    65.797436 
    7710    1004.9475    -8679.624   -8567.5206    2107.7103    19809.732    65.566172 
    7720    1028.1393   -8682.4796   -8567.7891    1935.1002    19791.178    65.340051 
    7730    1053.9076   -8685.5604   -8567.9954    1794.2439    19774.607    65.118675 
    7740    1026.7209   -8682.6966   -8568.1643    2909.4925    19759.984    64.904022 
    7750    1027.7801   -8682.9262   -8568.2758    3962.1857    19748.194     64.69781 
    7760    1067.1931   -8687.3962   -8568.3492    4204.9629    19740.125    64.506556 
    7770     1069.806    -8687.775   -8568.4365    4100.1876     19736.02    64.341804 
    7780    1070.4392    -8687.976   -8568.5669    3298.0567    19735.708    64.211389 
    7790    1074.0718   -8688.5637   -8568.7494    2243.4986    19738.426    64.108902 
    7800    1031.6948   -8684.0601    -8568.973    2868.2076    19743.348    64.025907 
    7810     1019.095    -8682.869   -8569.1875    3308.8145    19750.891    63.962082 
    7820    1052.8024   -8686.8083   -8569.3666    2406.6759    19761.341    63.925886 
    7830    1093.1484   -8691.5104    -8569.568    1448.9876    19773.938    63.924621 
    7840    1083.4774   -8690.7218   -8569.8583    720.85859    19787.818     63.95097 
    7850    1052.2644   -8687.5896   -8570.2079   -337.28436    19802.239    63.976755 
    7860    1069.9741   -8689.9563   -8570.5991   -1530.1545    19816.201    63.978552 
    7870    1035.9194     -8686.57   -8571.0116   -1721.3145     19828.73    63.962377 
    7880    1024.3657   -8685.6729   -8571.4033   -2112.5495    19839.517     63.94666 
    7890     1045.195   -8688.3597   -8571.7667   -2918.9963    19848.187     63.93793 
    7900    1029.7032   -8686.9795   -8572.1146   -3713.5675    19854.063    63.936292 
    7910    1008.3027   -8684.9103   -8572.4326   -4421.4434    19856.429      63.9474 
    7920    1014.3466   -8685.8575   -8572.7056   -5048.5768    19854.652    63.971424 
    7930    1033.9701   -8688.3027   -8572.9618   -5831.3661    19848.156    63.998121 
    7940    1031.0493   -8688.2438   -8573.2287   -6564.6189    19836.255    64.015577 
    7950    1033.2394   -8688.7703   -8573.5109   -6782.1491    19818.362    64.010717 
    7960    1010.8932   -8686.5592   -8573.7925   -5789.3763    19794.386     63.97322 
    7970    974.89586   -8682.7422   -8573.9911   -4284.1324    19765.302    63.904804 
    7980    1006.4424   -8686.3416   -8574.0714   -3828.8502    19732.444    63.813588 
    7990    1022.9109   -8688.1184   -8574.0112   -2581.8033    19696.521    63.710135 
    8000    1047.2566   -8690.6503   -8573.8273   -970.29182    19658.711    63.611995 
    8010    1056.0787    -8691.334   -8573.5269    700.40945    19620.548    63.539462 
    8020    1054.5495   -8690.7642   -8573.1276    2220.3015    19583.578    63.496877 
    8030    1049.1479    -8689.664     -8572.63     3478.699    19549.205    63.480351 
    8040    1058.4482   -8690.1184   -8572.0469    4314.9625    19518.515    63.480891 
    8050    1090.0493    -8693.007   -8571.4103    4542.9231    19492.167    63.488236 
    8060    1075.1832    -8690.689   -8570.7507     5455.345    19470.445    63.489863 
    8070    1075.8153   -8690.1085   -8570.0997    6007.8002    19453.977    63.480694 
    8080    1092.6861   -8691.3682   -8569.4774    5812.2272    19443.113    63.464958 
    8090    1072.2529   -8688.5343   -8568.9229    6783.8597    19437.765    63.454092 
    8100    1059.6953   -8686.6339   -8568.4233    6850.2835    19438.501    63.463658 
    8110    1082.7288   -8688.7273   -8567.9473    5304.7154    19445.239    63.495543 
    8120    1084.6735   -8688.5107   -8567.5137    4299.2484    19456.703     63.53844 
    8130    1084.4275    -8688.114   -8567.1445    3478.3173     19471.86    63.578835 
    8140    1104.1079   -8690.0178   -8566.8529    2396.4038    19489.895    63.608948 
    8150    1068.4634   -8685.8265   -8566.6378    1739.0019    19509.893    63.636936 
    8160    1047.4018   -8683.3104   -8566.4712    281.59987    19531.097    63.666595 
    8170    1057.5037   -8684.2487   -8566.2826    -1557.374    19552.235    63.685118 
    8180    1074.2623   -8685.9134   -8566.0779   -2476.5672    19571.728    63.682757 
    8190    1067.7877    -8685.002   -8565.8887   -2318.9666    19588.774    63.665418 
    8200    1072.7297   -8685.3963   -8565.7317   -2390.2682    19603.438    63.639562 
    8210    1097.7843   -8688.0781   -8565.6186   -2678.7339    19615.694     63.60362 
    8220    1087.0868   -8686.8574   -8565.5913   -2599.0427    19625.364    63.562161 
    8230    1059.2574   -8683.8051   -8565.6433   -1931.3585    19632.585    63.527068 
    8240    1096.1054   -8688.0463   -8565.7741   -2557.1802    19637.808    63.495609 
    8250    1105.5552     -8689.35   -8566.0236   -3625.6464    19640.575    63.456486 
    8260    1077.4371   -8686.6244   -8566.4347   -3712.3112    19640.054    63.408436 
    8270    1067.5516   -8686.0538   -8566.9668   -3716.0048    19636.153    63.358322 
    8280    1072.7131   -8687.2744   -8567.6117   -3501.5493    19628.929    63.319992 
    8290    1065.9087   -8687.2558   -8568.3521   -2578.7457    19618.692    63.299426 
    8300    1093.6139   -8691.2231   -8569.2288   -2825.3694    19606.157    63.292314 
    8310    1074.1737   -8690.0692   -8570.2435   -3120.8923    19591.224    63.289045 
    8320    1049.7868   -8688.4105   -8571.3052   -2657.8542    19573.718    63.279769 
    8330    1070.7126   -8691.8145   -8572.3749   -2096.4915    19554.041     63.26893 
    8340    1086.8122   -8694.6778   -8573.4423   -1464.2273    19532.761    63.272152 
    8350    1086.7797   -8695.7248   -8574.4929   -428.35093    19510.513    63.295954 
    8360     1072.658   -8695.1175   -8575.4609    1185.9186    19488.263    63.337006 
    8370    1088.9747   -8697.8159   -8576.3391    2574.2541    19467.419    63.400534 
    8380    1088.4305   -8698.5628   -8577.1467    3877.5051    19449.241    63.495286 
    8390    1062.9005   -8696.4334   -8577.8653    5137.3384    19434.835    63.618444 
    8400     1048.843   -8695.4836   -8578.4836    5701.7816    19425.206    63.765999 
    8410     1077.232   -8699.2091   -8579.0422    5539.5392    19420.795    63.950516 
    8420    1102.7423   -8702.6308   -8579.6183    4927.6357    19421.376     64.19178 
    8430    1076.1558   -8700.2594   -8580.2126    4260.0815    19426.383    64.484553 
    8440    1075.9481   -8700.8129   -8580.7893    2781.1897    19435.054    64.801746 
    8450    1072.7428   -8700.9846   -8581.3185    975.74385    19446.027    65.116797 
    8460    1070.0138   -8701.1669   -8581.8052   -157.23839    19457.754    65.410262 
    8470    1056.9449   -8700.1784   -8582.2746   -1203.6546    19469.124    65.667757 
[...]
   22890    1083.1483   -8827.3745   -8706.5477   -434.35158    19129.442     109.0914 
   22900    1048.4114   -8822.9094   -8705.9575    155.05231    19112.561    109.24145 
   22910    1057.1132   -8823.3638   -8705.4412    857.41997    19096.031    109.35908 
   22920    1076.7323   -8825.0878   -8704.9767    1614.6903    19080.439     109.4435 
   22930    1078.0476   -8824.8652   -8704.6073    2801.9966    19066.457    109.50695 
   22940    1084.6895   -8825.3449   -8704.3461    3733.8531    19055.045    109.57134 
   22950    1095.8617   -8826.4422   -8704.1972    4135.3096    19046.932    109.65112 
   22960    1096.3953   -8826.4628   -8704.1582    4958.7795    19042.527    109.74575 
   22970    1093.1358   -8826.1853   -8704.2444     4918.094     19042.38    109.85051 
   22980    1071.4436   -8823.9404   -8704.4193    4459.1034    19046.472     109.9596 
   22990    1086.3559   -8825.8556    -8704.671    3421.8484    19054.344    110.07191 
   23000    1061.3574   -8823.3727   -8704.9767    2952.5907    19065.197    110.18589 
   23010    1054.4948   -8822.9429   -8705.3125    1640.2478    19078.457    110.30098 
   23020    1079.1291    -8826.055   -8705.6765   -94.068367    19093.028    110.38898 
   23030    1067.8323   -8825.2079   -8706.0896   -1391.1748    19107.455    110.42558 
   23040    1064.5677   -8825.3046   -8706.5505   -1592.8982    19120.667    110.42113 
   23050     1067.002   -8826.0729   -8707.0472   -1029.4917    19132.442    110.37761 
   23060    1050.5934   -8824.7693    -8707.574    315.73805    19143.322    110.30715 
   23070     1049.335   -8825.1563   -8708.1014    1121.7971    19154.393    110.23067 
   23080    1063.9493   -8827.3011   -8708.6159     333.4442     19166.25    110.16101 
   23090    1074.4859   -8829.0096   -8709.1491   -944.16026    19178.289    110.09907 
   23100    1050.6894   -8826.9081   -8709.7022   -1230.9512    19189.518    110.04973 
   23110    1021.3042   -8824.1604   -8710.2323    -885.5593    19199.645       110.05 
   23120    1011.4252   -8823.5178   -8710.6918   -1175.6141    19208.874    110.13371 
   23130    1036.3163   -8826.6798   -8711.0772   -2039.8849    19216.975    110.28117 
   23140    1063.8667   -8830.1246   -8711.4487   -2278.5236    19223.302    110.45119 
   23150    1049.0818   -8828.8626   -8711.8359   -1881.8935    19227.647    110.62306 
   23160    1052.0905   -8829.5905   -8712.2282   -2223.6867    19230.232    110.78693 
   23170    1043.3468   -8828.9889    -8712.602   -2262.7202    19230.875    110.94515 
   23180    1022.4443   -8826.9958   -8712.9406   -2352.5866    19229.509    111.11729 
   23190    1021.4823   -8827.1688   -8713.2209   -2821.0723    19226.046    111.31535 
   23200    1042.9407   -8829.7955   -8713.4539   -3278.6315    19220.118    111.51099 
   23210    1022.4612   -8827.7171     -8713.66   -3241.3322     19211.37    111.66662 
   23220    999.12444   -8825.2563   -8713.8024   -2401.7305    19199.883    111.76997 
   23230    1043.0721   -8830.2306   -8713.8743   -1571.9588    19186.328    111.82927 
   23240    1027.2619   -8828.4808   -8713.8882   -475.14285    19171.494    111.85639 
   23250    1013.1044   -8826.8714   -8713.8581    122.31393    19156.269    111.86284 
   23260    1011.6095   -8826.5951   -8713.7485    340.25984    19141.187    111.86184 
   23270    1017.7959   -8827.0808   -8713.5441    1093.2613    19126.527    111.86361 
   23280    1050.4431   -8830.4355    -8713.257    2191.1648    19112.892    111.86597 
   23290     1029.277   -8827.6954    -8712.878    4799.7674    19101.384    111.86732 
   23300    1039.9552   -8828.3966   -8712.3881     6119.349    19093.999    111.87451 
   23310    1065.8733   -8830.6559   -8711.7561     6527.591    19091.923    111.89511 
   23320    1049.2016   -8828.0436   -8711.0036    6483.0461    19095.528    111.92531 
   23330    1053.1108   -8827.5674   -8710.0913    4611.5627    19104.639    111.96056 
   23340    1064.6205   -8827.7107   -8708.9507    2074.8714    19117.698    112.00648 
   23350    1083.9069   -8828.5228   -8707.6113    23.691548    19132.591    112.06772 
   23360    1101.0853   -8829.0043   -8706.1766   -1723.7322    19147.476    112.12937 
   23370    1082.0101   -8825.5005   -8704.8007   -2560.6084    19160.887    112.18369 
   23380    1096.7612   -8825.9395   -8703.5942    -3675.327    19171.985    112.22817 
   23390    1090.4897   -8824.2251   -8702.5793   -4657.7926    19179.829    112.25447 
   23400    1059.5933   -8819.9883   -8701.7891   -5155.4717    19183.604    112.25405 
   23410    1088.2382   -8822.5585   -8701.1639   -5375.2186    19182.849    112.21036 
   23420    1103.8771   -8823.8409   -8700.7017    -4315.005    19177.484    112.09844 
   23430    1128.9897   -8826.3893   -8700.4488   -3003.4609    19168.379      111.912 
   23440    1125.5924   -8825.9788   -8700.4172    -1931.061    19156.664    111.67439 
   23450    1075.6714   -8820.5216   -8700.5288   -679.15238    19143.369    111.42788 
   23460    1107.3847   -8824.2753   -8700.7448   -491.88342    19129.425    111.19936 
   23470     1078.828   -8821.3854   -8701.0405    1481.6428    19115.285    110.98388 
   23480    1082.3234   -8822.1126   -8701.3778    3190.9688     19102.47    110.77134 
   23490    1115.1172   -8826.1722   -8701.7792    3859.9874    19092.407    110.57327 
   23500    1060.4211   -8820.5245   -8702.2329    4729.9525    19085.799    110.42508 
   23510    1066.1512   -8821.6548    -8702.724    3995.2784    19083.218    110.34051 
   23520    1064.3971   -8821.9609   -8703.2258    3121.2503     19084.14    110.30068 
   23530    1091.7939   -8825.5556   -8703.7643    2175.2434    19087.759    110.29494 
   23540    1114.3086   -8828.6679   -8704.3651    742.74425    19093.203    110.32924 
   23550    1069.7518   -8824.3618   -8705.0293    115.07189    19099.339    110.39171 
   23560    1040.2955   -8821.6952   -8705.6487   -1252.9679    19105.459    110.44897 
   23570    1061.1228    -8824.556   -8706.1861   -3040.3735    19110.419    110.47285 
   23580    1057.3525   -8824.6266   -8706.6774   -3580.2269    19112.818     110.4568 
   23590    1034.4373   -8822.5214   -8707.1284   -3072.5798    19112.186    110.40335 
   23600    1029.4233   -8822.3387   -8707.5049   -2657.7173    19108.867    110.31669 
   23610    1040.6925   -8823.8868    -8707.796   -1824.0652    19103.295    110.20037 
   23620    1074.2395   -8827.8871    -8708.054   -415.92465    19096.252    110.07385 
   23630    1096.7724    -8830.698   -8708.3514    893.94632    19088.914    109.97133 
   23640    1101.5159   -8831.6326   -8708.7569    1729.2981    19082.359    109.91524 
   23650    1088.9152   -8830.7243   -8709.2542    3239.7282    19077.432    109.91787 
   23660    1083.9777   -8830.7481   -8709.8288    3803.1248    19075.262    109.97468 
   23670    1064.8767   -8829.2337   -8710.4451    3061.5112    19076.322    110.07275 
   23680    1045.4506   -8827.6643   -8711.0427    2413.8619    19080.055    110.21374 
   23690    1053.5329    -8829.096   -8711.5728    1051.9445    19085.778    110.38926 
   23700    1087.8067   -8833.4176   -8712.0711   -861.27645    19092.338    110.56903 
   23710    1049.9328   -8829.6931   -8712.5715   -829.24772    19098.283    110.72323 
   23720    1003.3792   -8824.9197   -8712.9912    -606.1515    19103.474    110.82554 
   23730    1066.4419   -8832.2929   -8713.3297    -2300.684    19107.937    110.87895 
   23740    1076.2794   -8833.7134   -8713.6528   -3200.1976    19110.438    110.89537 
   23750    1045.7125   -8830.6253   -8713.9745   -2932.3137    19110.256     110.8886 
   23760    1043.6628   -8830.6755   -8714.2534   -3096.3882    19107.476    110.86973 
   23770    1044.1962   -8830.9702   -8714.4886   -2726.9277    19102.073    110.83956 
   23780     1050.008    -8831.836    -8714.706   -1953.4248    19094.377    110.78505 
   23790    1049.0276   -8831.9299   -8714.9093    -1326.078    19085.016    110.68966 
   23800     1018.691   -8828.7055    -8715.069    58.057412    19074.654    110.58367 
   23810    1018.5202    -8828.748   -8715.1305    600.59084    19064.354    110.50762 
   23820    1076.1745   -8835.1891   -8715.1402    -112.1296    19054.557    110.46577 
   23830    1057.8323   -8833.1787   -8715.1759   -379.78958    19044.769    110.44818 
   23840    1040.0418   -8831.2658   -8715.2475   -302.76717    19034.754    110.44844 
   23850    1059.1601   -8833.4827   -8715.3318   -68.529498     19024.57    110.46379 
   23860    1020.4005   -8829.2232    -8715.396    717.82356    19014.425    110.48568 
   23870     1009.998   -8828.0658    -8715.399    876.85249    19004.912    110.50644 
   23880    1056.0586   -8833.1477   -8715.3428    94.549839     18996.14    110.50807 
   23890    1041.4078   -8831.4446   -8715.2739    523.65464    18987.599    110.46468 
   23900    1008.4627   -8827.6747   -8715.1792    1703.3152    18979.625    110.37871 
   23910    1059.3638   -8833.2192   -8715.0456    1283.3648    18973.011    110.27519 
   23920    1068.2815   -8834.0708   -8714.9024    1479.0384    18967.594    110.16483 
   23930    1060.4801    -8833.098   -8714.7999    2652.0205    18963.546    110.03431 
   23940    1075.0265   -8834.6473   -8714.7265    3135.4918    18961.741    109.88707 
   23950     1087.926   -8836.0717   -8714.7119    2770.8526    18962.575    109.74655 
   23960    1088.1516   -8836.1727   -8714.7877    2331.9398    18965.788    109.61949 
   23970    1093.9397     -8837.01   -8714.9794    1769.2958    18970.965    109.49675 
   23980    1056.8784   -8833.1748   -8715.2784     1440.127    18977.643    109.37519 
   23990    1020.1155   -8829.4144   -8715.6189    1381.5482    18985.579      109.258 
   24000    1035.0811   -8831.4051   -8715.9403    602.14869    18994.626    109.15669 
   24010    1045.7982   -8832.9342   -8716.2739   -342.57828    19004.167    109.07678 
   24020      1010.33   -8829.3381   -8716.6342   -1152.6622    19013.406    109.00282 
   24030    1035.7982   -8832.5753   -8717.0305   -2416.0054    19021.605    108.92283 
   24040    1079.0252   -8837.9148   -8717.5479   -3564.1585    19027.697    108.81965 
   24050    1067.1515   -8837.3246   -8718.2822   -3446.3435    19030.771    108.67003 
   24060    1028.1447   -8833.8966   -8719.2055   -3576.1802    19030.827    108.46936 
   24070    1002.0779   -8831.9804   -8720.1971   -4743.2661    19027.712    108.21791 
   24080     999.7231   -8832.6922   -8721.1716   -4991.2553    19020.599    107.91061 
   24090    995.84657   -8833.1602    -8722.072   -3811.6597    19009.301    107.55286 
   24100    998.75271   -8834.2679   -8722.8556   -1826.7884    18994.849    107.17002 
   24110    1018.8391   -8837.1687   -8723.5156   -423.34647    18978.882    106.79101 
   24120    1020.1017   -8837.8711   -8724.0772    600.85062     18962.64    106.44423 
   24130    997.33333   -8835.7835   -8724.5295    1466.3981     18947.03    106.16868 
   24140    998.47986   -8836.2466   -8724.8646    1766.2311     18932.74    105.98855 
   24150    1008.8733   -8837.6427   -8725.1014    1928.5083    18920.051    105.89421 
   24160    1005.1345   -8837.3875   -8725.2633    2482.4883    18909.143    105.86279 
   24170    994.45434   -8836.2783   -8725.3454    3136.1047    18900.446    105.86795 
   24180    977.89979   -8834.3927   -8725.3065    3161.5979    18894.442    105.89585 
   24190     980.1899   -8834.4798   -8725.1382    2395.4407    18891.098    105.93664 
   24200    963.95649   -8832.3433   -8724.8125    1796.7892    18889.854    105.98369 
   24210    993.64802   -8835.1692   -8724.3263    485.05432    18890.093    106.03398 
   24220    1011.6496   -8836.5283   -8723.6773    137.94603    18890.829    106.09649 
   24230    1002.6277   -8834.7697   -8722.9251    327.80239    18891.744    106.19069 
   24240    1015.4645   -8835.3751   -8722.0985   -627.91602    18892.849    106.32469 
   24250    981.86454   -8830.7385     -8721.21   -923.36508    18893.487    106.47657 
   24260    1010.4924   -8833.0025   -8720.2805   -1396.4819    18893.318     106.6179 
   24270    1062.9744   -8837.9016   -8719.3253   -1956.0236    18891.928    106.74195 
   24280    1029.7032   -8833.3415   -8718.4765   -478.40631    18889.066    106.84947 
   24290     1015.942   -8831.0831   -8717.7532    513.32394    18885.769    106.95765 
   24300    1040.4512    -8833.152   -8717.0881    202.13451    18882.811     107.0814 
   24310    1050.7684   -8833.7022   -8716.4874   -32.888965    18880.066    107.20126 
   24320    1060.0061    -8834.229   -8715.9838   -697.28078    18877.285     107.2977 
   24330    1067.0793    -8834.625   -8715.5907   -730.82705    18873.978    107.36919 
   24340    1055.4639   -8833.0325   -8715.2939   -45.526721    18870.124    107.41786 
   24350    1047.0448   -8831.8611   -8715.0617     124.4848    18866.206    107.44185 
   24360    1046.8792   -8831.6322   -8714.8512    130.34396    18862.411    107.44803 
   24370    1071.8704   -8834.2383   -8714.6695   -650.09934    18858.671    107.43729 
   24380    1074.6723   -8834.4264   -8714.5451   -1712.6231    18854.369    107.38684 
   24390    1064.2154   -8833.1977   -8714.4829   -1933.1096    18848.696    107.29066 
   24400    1085.7907   -8835.6006   -8714.4791   -1156.1227    18841.456    107.15808 
   24410    1074.5562   -8834.3808   -8714.5124    865.41093    18833.367     106.9977 
   24420    1075.3964   -8834.5539   -8714.5918    2282.3403     18825.98    106.82126 
   24430    1070.9041   -8834.1703   -8714.7093    3336.8166     18820.52    106.65812 
   24440    1056.2886    -8832.702   -8714.8714    4222.6194    18817.887    106.54766 
   24450    1067.8195   -8834.1907   -8715.0739    4053.3496    18818.764    106.49353 
   24460    1076.3142   -8835.4026   -8715.3381    3003.5629    18823.029    106.46965 
   24470    1067.9105   -8834.7901   -8715.6631    1482.5811    18829.806    106.44648 
   24480    1071.7553   -8835.6029    -8716.047   -64.127244    18837.819    106.40554 
   24490    1069.4823   -8835.7873    -8716.485   -1057.4716    18845.813      106.347 
   24500    1066.5844   -8835.9542   -8716.9751   -1710.9559    18852.938     106.2813 
   24510     1072.802   -8837.2027     -8717.53   -1374.5992    18858.669    106.20499 
   24520    1051.3294   -8835.4252   -8718.1478   -224.03528    18863.275    106.11495 
   24530    1044.4303   -8835.2864   -8718.7787    330.73427    18867.645    106.01663 
   24540    1068.5403   -8838.6036   -8719.4064   -173.50467    18872.233    105.91803 
   24550    1065.2438   -8838.8912   -8720.0617   -993.66634    18876.656    105.82705 
   24560    1033.6752    -8836.031    -8720.723   -1244.1604    18880.287    105.73669 
   24570    1023.3048   -8835.4819   -8721.3307   -1245.6333    18882.872    105.64632 
   24580    1031.2013   -8836.9154   -8721.8834   -1029.3764    18884.406     105.5769 
   24590     1028.142   -8837.0669   -8722.3761   -842.04934    18885.055    105.54536 
   24600    1028.7858   -8837.5739   -8722.8113   -1024.1743    18884.936    105.55851 
   24610    1025.3794   -8837.5513   -8723.1687   -949.24366    18883.983    105.60703 
   24620    1038.9731   -8839.3801   -8723.4811   -1168.8381    18882.199    105.65766 
   24630    1001.0809   -8835.3961    -8723.724   -758.91111    18879.461    105.67866 
   24640    1004.9507   -8835.9681   -8723.8643   -599.76981    18876.048    105.67025 
   24650    1036.1916   -8839.4999   -8723.9111   -297.45828    18872.139    105.64847 
   24660     1041.391   -8840.0864   -8723.9177    824.19633     18868.03    105.62497 
   24670    1029.1027   -8838.6979   -8723.8999    1395.6562    18864.583    105.61858 
   24680    1033.3919   -8839.1222   -8723.8458    616.46415    18862.222    105.65339 
   24690    1062.1487   -8842.2566   -8723.7723    22.417511     18860.39     105.7218 
   24700    1033.6193   -8839.0041   -8723.7024    1277.1118    18858.719     105.8047 
   24710    1016.2773   -8836.9722    -8723.605    2586.1941    18858.167     105.8973 
   24720    1034.6519   -8838.8724   -8723.4554    2743.9955    18859.729     105.9964 
   24730    1014.1973   -8836.3773   -8723.2421     2937.499    18863.667    106.09812 
   24740    1049.0283   -8839.9853   -8722.9646    1515.1131    18870.002    106.20397 
   24750    1064.1542   -8841.3356   -8722.6276    19.176868    18877.676    106.32515 
   24760    1060.3592   -8840.5591   -8722.2745   -1422.4081    18885.416    106.47491 
   24770    1080.2332   -8842.4141   -8721.9125   -3207.5405    18891.923    106.65183 
   24780    1024.1475   -8835.7741   -8721.5289   -3142.5743     18895.87    106.82753 
   24790    1002.7975   -8832.9264   -8721.0628   -3328.6574    18897.124    106.96083 
   24800     1033.388   -8835.6681   -8720.3921   -4499.1351    18895.452    107.02914 
   24810    1048.6552   -8836.4572   -8719.4781   -3998.6856    18890.062    107.04042 
   24820    1083.1834    -8839.159   -8718.3283   -2713.6985    18881.248     107.0145 
   24830     1057.996   -8834.9984   -8716.9774   -448.50742    18870.162    106.96199 
   24840    1053.4595   -8833.0348   -8715.5198    1240.9138     18858.61    106.89356 
   24850    1095.9254   -8836.2579   -8714.0058    1945.7158    18847.993    106.83167 
   24860    1094.6506   -8834.7553   -8712.6453    2219.6013    18838.944    106.80484 
   24870    1101.0949   -8834.4063   -8711.5775     1405.642     18831.65    106.83246 
   24880    1125.5994   -8836.3576   -8710.7953    502.79016      18825.5     106.9083 
   24890    1117.9979   -8834.9973    -8710.283    192.97923     18819.78    107.00082 
   24900    1091.9499   -8831.8105   -8710.0018    87.743315     18814.21    107.07569 
   24910    1071.8876   -8829.4253   -8709.8547    80.392926    18808.708    107.11128 
   24920    1073.8816   -8829.5753   -8709.7822   -573.70997    18803.189    107.10003 
   24930    1078.2191   -8830.0611   -8709.7841   -711.29493    18797.212    107.02821 
   24940    1075.1782   -8829.8069   -8709.8692    430.42988    18790.695    106.87715 
   24950    1072.1545   -8829.6016   -8710.0012    1485.8248    18784.494    106.65411 
   24960    1123.0254   -8835.4931   -8710.2179    717.03883    18779.351     106.3958 
   24970    1102.6059   -8833.5545   -8710.5572     538.1104    18774.865    106.13353 
   24980    1077.9294   -8831.2449   -8711.0003    306.64489    18770.787    105.87977 
   24990    1065.4383   -8830.3243   -8711.4731    519.53823    18766.986    105.63244 
   25000    1056.7046   -8829.8116   -8711.9346    897.85999     18763.63    105.38739 
Loop time of 13274 on 16 procs for 20000 steps with 864 atoms

Performance: 0.130 ns/day, 184.361 hours/ns, 1.507 timesteps/s
95.7% CPU use with 16 MPI tasks x 1 OpenMP threads

MPI task timing breakdown:
Section |  min time  |  avg time  |  max time  |%varavg| %total
---------------------------------------------------------------
Pair    | 3443.4     | 7081.8     | 12745      |4401.6 | 53.35
Bond    | 0.0017281  | 0.0039805  | 0.0068929  |   2.5 |  0.00
Neigh   | 0.15648    | 0.33233    | 0.64129    |  32.7 |  0.00
Comm    | 84.553     | 4559.7     | 9042.8     |4918.4 | 34.35
Output  | 1.3993     | 1.4228     | 1.7642     |   7.4 |  0.01
Modify  | 334.89     | 1630.7     | 7311.9     |5698.0 | 12.28
Other   |            | 0.08664    |            |       |  0.00

Nlocal:        54.0000 ave          90 max          30 min
Histogram: 3 6 1 0 0 0 1 1 0 4
Nghost:        528.938 ave         731 max         352 min
Histogram: 4 0 3 1 1 1 0 2 2 2
Neighs:         0.00000 ave           0 max           0 min
Histogram: 16 0 0 0 0 0 0 0 0 0
FullNghs:      2786.50 ave        5914 max         808 min
Histogram: 6 4 0 0 0 0 1 1 0 4

Total # of neighbors = 44584
Ave neighs/atom = 51.601852
Ave special neighs/atom = 0.0000000
Neighbor list builds = 2000
Dangerous builds = 2000
unfix   3
                
Total wall time: 4:35:02
