LAMMPS (2 Aug 2023)
OMP_NUM_THREADS environment is not set. Defaulting to 1 thread. (src/comm.cpp:98)
  using 1 OpenMP thread(s) per MPI task
Reading data file ...
  orthogonal box = (0 0 0) to (21.536477 21.536477 64.60943)
  1 by 1 by 1 MPI processor grid
  reading atoms ...
  1536 atoms
Finding 1-2 1-3 1-4 neighbors ...
  special bond factors lj:    0        0        0       
  special bond factors coul:  0        0        0       
     0 = max # of 1-2 neighbors
     0 = max # of 1-3 neighbors
     0 = max # of 1-4 neighbors
     1 = max # of special neighbors
  special bonds CPU = 0.002 seconds
  read_data CPU = 0.041 seconds
768 atoms in group gSolid
768 atoms in group gLiquid
Neighbor list info ...
  update: every = 1 steps, delay = 10 steps, check = yes
  max neighbors/atom: 2000, page size: 100000
  master list distance cutoff = 6.3
  ghost atom cutoff = 6.3
  binsize = 3.15, bins = 7 7 21
  1 neighbor lists, perpetual/occasional/extra = 1 0 0
  (1) pair chgnet/gpu, perpetual
      attributes: full, newton on
      pair build: full/bin
      stencil: full/bin/3d
      bin: standard
Setting up Verlet run ...
  Unit style    : metal
  Current step  : 0
  Time step     : 0.0005
Per MPI rank memory allocation (min/avg/max) = 6.605 | 6.605 | 6.605 Mbytes
   Step          Temp          PotEng         TotEng         Press          Volume        c_msd[4]   
         0   300           -5749.0148     -5689.4905      44194.126      29967.135      0            
        10   319.25949     -5755.4004     -5692.0547      43024.222      30060.675      0.0018303163 
        20   368.22759     -5772.2018     -5699.1402      38470.416      30335.257      0.012862295  
        30   435.2684      -5795.3456     -5708.9821      32138.288      30759.308      0.04619652   
        40   504.46049     -5819.4243     -5719.3321      25193.9        31261.085      0.11110521   
        50   563.92976     -5840.3177     -5728.426       19025.386      31750.591      0.20157518   
        60   609.35025     -5856.4069     -5735.503       14471.139      32174.532      0.30278468   
        70   636.44055     -5867.7191     -5741.4402      11460.969      32532.406      0.40576274   
        80   642.08582     -5874.6544     -5747.2554      9529.292       32845.873      0.50925905   
        90   628.80244     -5877.7855     -5753.0221      8229.4419      33133.358      0.61448409   
       100   600.85378     -5877.765      -5758.547       7363.914       33404.684      0.72218039   
       110   562.12875     -5875.2609     -5763.7265      6802.1116      33663.944      0.83230012   
       120   516.65216     -5870.9667     -5768.4555      6389.4351      33912.445      0.94432446   
       130   468.541       -5865.6171     -5772.6518      6009.0999      34150.269      1.0574238    
       140   421.93099     -5859.9965     -5776.2793      5572.1709      34376.973      1.1705131    
       150   380.60335     -5854.8534     -5779.3362      4964.5156      34591.774      1.282277     
       160   347.43083     -5850.7991     -5781.8638      4269.5466      34793.454      1.3911959    
       170   324.25589     -5848.2715     -5783.9345      3446.655       34980.752      1.4957289    
       180   311.57868     -5847.449      -5785.6273      2562.3167      35152.293      1.5943351    
       190   308.2979      -5848.2059     -5787.0352      1664.5574      35306.767      1.6855381    
       200   312.14014     -5850.1798     -5788.2467      827.09801      35443.097      1.7680665    
       210   320.59574     -5852.9619     -5789.3511      79.258411      35560.634      1.8409514    
       220   331.3592      -5856.1791     -5790.4327     -534.06301      35659.18       1.9036588    
       230   342.5972      -5859.5365     -5791.5603     -998.52327      35739.058      1.9560977    
       240   353.07121     -5862.8503     -5792.796      -1309.4448      35801.136      1.9985808    
       250   361.38334     -5865.8712     -5794.1676     -1446.48        35846.765      2.0318185    
       260   366.23825     -5868.3435     -5795.6766     -1424.389       35877.831      2.0569419    
       270   367.49945     -5870.2137     -5797.2966     -1303.8268      35896.632      2.0754006    
       280   365.75705     -5871.5544     -5798.983      -1063.5478      35905.634      2.0887062    
       290   362.06715     -5872.5245     -5800.6852     -773.33371      35907.494      2.0984031    
       300   357.46127     -5873.2976     -5802.3722     -480.39733      35904.743      2.1058954    
       310   352.3345      -5873.9268     -5804.0185     -148.17426      35899.627      2.1123293    
       320   347.08201     -5874.4783     -5805.6122      188.12622      35894.286      2.1187398    
       330   341.45845     -5874.8947     -5807.1444      491.55572      35890.612      2.1259561    
       340   335.31613     -5875.1393     -5808.6078      771.99486      35890.163      2.1346214    
       350   329.36157     -5875.3502     -5810.0002      1011.0347      35894.194      2.145259     
       360   324.47851     -5875.7043     -5811.3232      1176.6217      35903.599      2.1582008    
       370   321.2416      -5876.3229     -5812.5839      1244.3864      35918.781      2.173546     
       380   319.89657     -5877.2644     -5813.7923      1246.4887      35939.594      2.1912127    
       390   320.61491     -5878.5813     -5814.9667      1157.2837      35965.518      2.2109206    
       400   322.85743     -5880.1827     -5816.1232      975.38309      35995.592      2.2322279    
       410   325.1831      -5881.7981     -5817.2771      786.5441       36028.477      2.2545922    
       420   326.32646     -5883.1838     -5818.436       640.73198      36062.883      2.2775251    
       430   325.7486      -5884.2334     -5819.6002      535.85889      36097.872      2.3007048    
       440   323.49084     -5884.9424     -5820.7572      496.67688      36132.846      2.3239797    
       450   320.15643     -5885.4196     -5821.8959      503.08401      36167.613      2.347337     
       460   316.55978     -5885.814      -5823.004       513.96298      36202.242      2.3708335    
       470   312.94744     -5886.167      -5824.0737      555.07256      36236.865      2.3946442    
       480   309.01096     -5886.4072     -5825.095       641.23199      36271.787      2.4191752    
       490   305.03496     -5886.5885     -5826.0652      739.18875      36307.522      2.4450443    
       500   301.83699     -5886.8712     -5826.9824      816.44668      36344.613      2.4728932    
       510   299.6923      -5887.307      -5827.8438      853.18686      36383.446      2.5031529    
       520   297.65056     -5887.7124     -5828.6543      866.01459      36424.136      2.53597      
       530   294.88393     -5887.9215     -5829.4123      903.96055      36466.673      2.5713718    
       540   291.16034     -5887.8838     -5830.1134      936.52408      36511.155      2.6094203    
       550   286.94238     -5887.6838     -5830.7504      951.01192      36557.634      2.6500394    
       560   283.07738     -5887.481      -5831.3143      963.92718      36606.1        2.6930278    
       570   280.39616     -5887.4337     -5831.7991      937.10643      36656.485      2.7379973    
       580   279.62912     -5887.6824     -5832.2         846.78321      36708.478      2.7843702    
       590   281.02811     -5888.2793     -5832.5193      702.10696      36761.443      2.831395     
       600   283.96369     -5889.1069     -5832.7645      532.95494      36814.452      2.8782684    
       610   287.16154     -5889.9214     -5832.9444      347.9161       36866.482      2.9241344    
       620   289.8857      -5890.5879     -5833.0704      157.75215      36916.491      2.968133     
       630   292.02308     -5891.0955     -5833.1539      5.87083        36963.508      3.0094868    
       640   293.75527     -5891.4884     -5833.2031     -119.4493       37006.845      3.0476645    
       650   294.72664     -5891.7059     -5833.2279     -221.48053      37046.012      3.0822707    
       660   294.84832     -5891.733      -5833.2309     -302.38469      37080.715      3.1130817    
       670   294.32799     -5891.6115     -5833.2126     -345.21435      37110.843      3.1401979    
       680   293.47744     -5891.4049     -5833.1748     -358.25881      37136.491      3.1639653    
       690   292.96127     -5891.239      -5833.1113     -348.01282      37157.923      3.1848425    
       700   293.52774     -5891.2632     -5833.0231     -346.51574      37175.517      3.2034332    
       710   294.88082     -5891.4181     -5832.9095     -325.65782      37189.619      3.2203637    
       720   296.13887     -5891.5345     -5832.7764     -292.29213      37200.615      3.2362365    
       730   296.78517     -5891.5148     -5832.6283     -207.30269      37208.993      3.2515472    
       740   297.29275     -5891.4529     -5832.4657     -106.26066      37215.467      3.266683     
       750   298.1021      -5891.4412     -5832.2934     -2.3086678      37220.803      3.2819668    
       760   298.85162     -5891.4086     -5832.1121      153.96383      37225.784      3.2976627    
       770   299.4363      -5891.3394     -5831.9269      337.95946      37231.381      3.314197     
       780   300.00966     -5891.2654     -5831.7392      527.64548      37238.731      3.3321935    
       790   300.85366     -5891.2452     -5831.5516      701.77776      37248.909      3.3522184    
       800   301.91155     -5891.2753     -5831.3717      841.26215      37262.796      3.3747856    
       810   302.41143     -5891.2039     -5831.2011      914.12198      37280.997      3.400308     
       820   301.74506     -5890.9127     -5831.0422      982.32073      37303.742      3.4288747    
       830   300.41841     -5890.5029     -5830.8956      997.82613      37331.13       3.4604771    
       840   299.62582     -5890.2023     -5830.7522      967.51159      37362.979      3.4949732    
       850   300.01856     -5890.1382     -5830.6102      877.43872      37398.814      3.5320862    
       860   301.4929      -5890.2869     -5830.4664      738.87016      37437.819      3.5713526    
       870   303.30822     -5890.5048     -5830.3241      540.40918      37478.902      3.6121583    
       880   304.85226     -5890.6769     -5830.1898      341.30711      37520.731      3.6536441    
       890   305.48541     -5890.6809     -5830.0682      150.52154      37561.967      3.6949251    
       900   305.01543     -5890.4824     -5829.963      -7.1383825      37601.432      3.7352294    
       910   303.87459     -5890.1689     -5829.8759     -99.447725      37638.273      3.774046     
       920   302.99322     -5889.9218     -5829.8036     -123.38816      37672.086      3.8111349    
       930   302.84244     -5889.8302     -5829.7419     -162.66215      37702.852      3.8464848    
       940   303.57171     -5889.9272     -5829.6943     -175.11514      37730.565      3.8801075    
       950   304.71496     -5890.118      -5829.6582     -198.30205      37755.305      3.9121474    
       960   305.65724     -5890.2905     -5829.6438     -191.35508      37777.172      3.9428236    
       970   306.11444     -5890.3861     -5829.6486     -164.99742      37796.39       3.9723405    
       980   306.47314     -5890.4894     -5829.6807     -119.07449      37813.297      4.0007913    
       990   306.75077     -5890.6022     -5829.7384     -82.729558      37828.34       4.02826      
      1000   306.42409     -5890.6216     -5829.8227     -24.523034      37841.903      4.0546667    
      1010   305.05639     -5890.4612     -5829.9336      40.735949      37854.458      4.0799205    
      1020   302.93246     -5890.1711     -5830.065       104.19972      37866.508      4.1039807    
      1030   300.83335     -5889.8983     -5830.2087      145.70308      37878.499      4.1268859    
      1040   299.27549     -5889.7354     -5830.3548      174.36215      37890.737      4.1486745    
      1050   298.23875     -5889.6735     -5830.4986      142.13737      37903.337      4.1694473    
      1060   297.49427     -5889.6625     -5830.6354      119.80571      37916.127      4.1892953    
      1070   296.88226     -5889.6687     -5830.763       97.604445      37928.958      4.2082879    
      1080   296.35634     -5889.6782     -5830.8769      39.133162      37941.642      4.2264254    
      1090   296.37708     -5889.7822     -5830.9768      1.159097       37953.864      4.2436468    
      1100   297.42119     -5890.0737     -5831.0611     -78.140313      37965.35       4.2597936    
      1110   299.37838     -5890.5374     -5831.1364     -151.2683       37975.651      4.274579     
      1120   301.33369     -5890.9984     -5831.2095     -187.20755      37984.39       4.2878358    
      1130   302.27102     -5891.2639     -5831.289      -181.20481      37991.436      4.2995522    
      1140   301.46505     -5891.1929     -5831.3779     -104.22013      37996.941      4.3099192    
      1150   299.2543      -5890.8464     -5831.4701      0.90909657     38001.459      4.3193921    
      1160   296.72673     -5890.4352     -5831.5603      115.48102      38005.753      4.3285796    
      1170   294.5052      -5890.0712     -5831.6371      212.85023      38010.588      4.338139     
      1180   292.8699      -5889.8027     -5831.6932      275.08415      38016.561      4.3486082    
      1190   292.47674     -5889.7526     -5831.721       302.70081      38024.039      4.3602961    
      1200   293.76475     -5890.0071     -5831.7199      264.67822      38033.106      4.3732423    
      1210   296.27435     -5890.4813     -5831.6962      223.12429      38043.472      4.3871692    
      1220   299.01656     -5890.9871     -5831.6579      163.5178       38054.761      4.4017281    
      1230   301.2442      -5891.3848     -5831.6136      125.0711       38066.569      4.4166574    
      1240   302.15766     -5891.5265     -5831.5741      132.8735       38078.635      4.431967     
      1250   301.75739     -5891.4163     -5831.5433      180.78207      38091.01       4.4479865    
      1260   300.5194      -5891.1478     -5831.5205      206.90262      38103.956      4.4651351    
      1270   299.01722     -5890.8281     -5831.4988      233.22027      38117.633      4.4837442    
      1280   297.98604     -5890.6011     -5831.4764      243.31212      38132.181      4.5041       
      1290   298.27486     -5890.6289     -5831.4469      230.22754      38147.633      4.5262752    
      1300   300.22795     -5890.9805     -5831.4109      197.4146       38163.864      4.5500914    
      1310   303.53703     -5891.603      -5831.3769      159.9686       38180.624      4.5751798    
      1320   306.90976     -5892.2498     -5831.3545      124.19622      38197.645      4.6012021    
      1330   308.81567     -5892.635      -5831.3616      97.556184      38214.671      4.627967     
      1340   308.68642     -5892.6508     -5831.4029      105.28502      38231.574      4.6553788    
      1350   307.15951     -5892.4241     -5831.4792      123.66173      38248.395      4.6833741    
      1360   304.71636     -5892.0432     -5831.5831      155.57121      38265.259      4.7118618    
      1370   301.44311     -5891.5155     -5831.7049      186.62356      38282.361      4.7406441    
      1380   298.21179     -5890.9999     -5831.8304      221.84236      38299.931      4.7694698    
      1390   296.39711     -5890.7556     -5831.9462      223.20365      38318.165      4.7981529    
      1400   296.51878     -5890.8838     -5832.0502      221.52439      38337.075      4.8265148    
      1410   297.93375     -5891.2533     -5832.139       154.69173      38356.575      4.8543218    
      1420   299.47157     -5891.6393     -5832.2198      79.549555      38376.25       4.8811581    
      1430   299.89779     -5891.8015     -5832.2975      11.669188      38395.592      4.9067283    
      1440   298.98893     -5891.696      -5832.3724     -48.206926      38414.151      4.9308706    
      1450   297.53832     -5891.4792     -5832.4434     -93.371815      38431.578      4.9535695    
      1460   296.32169     -5891.3009     -5832.5064     -154.6786       38447.591      4.9748445    
      1470   295.25698     -5891.1376     -5832.5544     -201.44618      38461.854      4.9945818    
      1480   294.49281     -5891.0167     -5832.5851     -256.3691       38474.09       5.0125389    
      1490   294.44618     -5891.0193     -5832.5969     -288.50017      38484.047      5.0282875    
      1500   295.12233     -5891.1434     -5832.5869     -319.96686      38491.582      5.0413418    
      1510   296.82365     -5891.4525     -5832.5585     -349.96052      38496.599      5.0512602    
      1520   299.90443     -5892.0249     -5832.5196     -342.28274      38499.055      5.0577748    
      1530   303.76986     -5892.7526     -5832.4803     -326.22052      38499.077      5.061045     
      1540   306.98865     -5893.366      -5832.455      -293.56395      38496.88       5.0613873    
      1550   308.36962     -5893.6447     -5832.4597     -219.70147      38492.811      5.0592887    
      1560   308.00358     -5893.6077     -5832.4953     -99.664367      38487.468      5.0552833    
      1570   307.05358     -5893.4883     -5832.5645     -20.824558      38481.651      5.0501707    
      1580   306.88488     -5893.5538     -5832.6635      17.889971      38475.92       5.0447088    
      1590   307.76451     -5893.856      -5832.7911      48.96807       38470.557      5.0394282    
      1600   308.82187     -5894.2244     -5832.9497      44.881508      38465.705      5.0346447    
      1610   308.85696     -5894.4265     -5833.1449      26.827335      38461.348      5.0304454    
      1620   307.56846     -5894.4027     -5833.3767      4.6079156      38457.349      5.0267088    
      1630   305.89012     -5894.3309     -5833.638      -52.432555      38453.505      5.0231079    
      1640   304.61837     -5894.3613     -5833.9207     -134.58696      38449.429      5.019125     
      1650   303.40526     -5894.417      -5834.217      -189.77431      38444.621      5.0141962    
      1660   301.93962     -5894.4309     -5834.5218     -216.07306      38438.736      5.0079403    
      1670   300.31481     -5894.4166     -5834.8299     -241.20545      38431.6        5.0001764    
      1680   298.63135     -5894.3859     -5835.1331     -233.47225      38423.126      4.9908249    
      1690   296.42759     -5894.2412     -5835.4257     -202.53377      38413.411      4.9800023    
      1700   293.37362     -5893.9087     -5835.6992     -126.21779      38402.729      4.9680498    
      1710   289.62327     -5893.407      -5835.9416     -5.1179863      38391.64       4.955628     
      1720   285.71645     -5892.8291     -5836.1389      106.16543      38380.948      4.9438397    
      1730   282.64302     -5892.3604     -5836.2799      216.44969      38371.397      4.9337867    
      1740   281.56693     -5892.223      -5836.3561      273.39445      38363.635      4.9264794    
      1750   282.91829     -5892.5006     -5836.3656      300.81912      38358.001      4.922544     
      1760   286.52521     -5893.1638     -5836.3131      306.52463      38354.622      4.9223199    
      1770   291.50896     -5894.0482     -5836.2087      305.63542      38353.465      4.926005     
      1780   296.98127     -5894.9963     -5836.071       316.55506      38354.457      4.9338221    
      1790   301.84713     -5895.8093     -5835.9185      319.3449       38357.562      4.9459847    
      1800   304.87224     -5896.2645     -5835.7735      340.39909      38362.754      4.9626578    
      1810   305.61507     -5896.2876     -5835.6492      329.36696      38370.051      4.9840395    
      1820   304.74041     -5896.0115     -5835.5466      307.38297      38379.314      5.0099886    
      1830   303.23774     -5895.6335     -5835.4668      262.01964      38390.326      5.0401821    
      1840   301.60202     -5895.2421     -5835.3999      197.45741      38402.731      5.0740996    
      1850   300.40344     -5894.9454     -5835.3411      106.89601      38416.021      5.1108866    
      1860   300.12709     -5894.8312     -5835.2817      4.8496885      38429.563      5.1493867    
      1870   300.75633     -5894.8967     -5835.2224     -88.537078      38442.683      5.1882965    
      1880   301.21896     -5894.9242     -5835.158      -143.23048      38454.76       5.2262498    
      1890   300.7162      -5894.7612     -5835.0948     -168.70091      38465.441      5.2620898    
      1900   299.84469     -5894.5232     -5835.0297     -187.67094      38474.588      5.2948806    
      1910   299.07237     -5894.3042     -5834.964      -168.03284      38482.149      5.3239079    
      1920   298.35288     -5894.0903     -5834.8928     -111.76223      38488.316      5.3489494    
      1930   297.92228     -5893.9288     -5834.8168     -34.945868      38493.527      5.3701666    
      1940   298.47243     -5893.9548     -5834.7336      25.203681      38498.322      5.3878795    
      1950   300.01806     -5894.1735     -5834.6456      36.370884      38503.108      5.4023776    
      1960   301.52553     -5894.3866     -5834.5596      13.465006      38507.968      5.4138949    
      1970   302.30655     -5894.4624     -5834.4805      24.051368      38512.795      5.4226601    
      1980   302.13994     -5894.361      -5834.4121      24.299358      38517.622      5.4290574    
      1990   301.39246     -5894.1544     -5834.3538      26.474636      38522.455      5.4334485    
      2000   301.37279     -5894.0966     -5834.2999     -37.37881       38527.256      5.4361412    
      2010   303.01905     -5894.3749     -5834.2516     -117.55589      38531.634      5.4371757    
      2020   305.9039      -5894.9099     -5834.2142     -203.7708       38535.045      5.436579     
      2030   308.82182     -5895.4742     -5834.1996     -263.44821      38536.964      5.434363     
      2040   310.8723      -5895.9005     -5834.219      -294.59273      38537.022      5.4305558    
      2050   311.53847     -5896.0972     -5834.2835     -271.15515      38535.087      5.4252881    
      2060   310.03704     -5895.9089     -5834.3931     -206.74684      38531.348      5.4189723    
      2070   306.50731     -5895.3574     -5834.542      -57.225809      38526.359      5.4122549    
      2080   302.13266     -5894.6627     -5834.7153      104.25772      38521.142      5.4060052    
      2090   298.37048     -5894.0944     -5834.8934      273.49531      38516.801      5.4010321    
      2100   296.17604     -5893.8311     -5835.0655      423.41361      38514.455      5.3981244    
      2110   296.06155     -5893.9669     -5835.2241      496.35568      38515.035      5.3979869    
      2120   297.40236     -5894.3782     -5835.3693      523.27871      38519.007      5.4009953    
      2130   299.11838     -5894.8561     -5835.5067      523.41157      38526.47       5.4071698    
      2140   300.19358     -5895.2054     -5835.6427      504.80311      38537.302      5.4161825    
      2150   300.7699      -5895.4578     -5835.7807      463.8542       38551.283      5.4275615    
      2160   301.28685     -5895.7017     -5835.922       397.84517      38568.063      5.4406708    
      2170   301.94725     -5895.9807     -5836.0701      325.34433      38587.11       5.4547968    
      2180   302.67931     -5896.2817     -5836.2258      222.95661      38607.842      5.4693345    
      2190   303.18188     -5896.5469     -5836.3912      125.64874      38629.55       5.4836633    
      2200   303.07172     -5896.7014     -5836.5676      35.776162      38651.525      5.4974164    
      2210   301.80921     -5896.6395     -5836.7563     -26.395159      38673.152      5.5106261    
      2220   299.364       -5896.3447     -5836.9466     -65.404389      38694.009      5.5238121    
      2230   296.5853      -5895.9833     -5837.1365     -102.63679      38713.831      5.5378379    
      2240   294.75575     -5895.7943     -5837.3105     -105.10477      38732.424      5.5535462    
      2250   294.78976     -5895.9573     -5837.4668     -128.89353      38749.757      5.5716283    
      2260   296.30591     -5896.3975     -5837.6061     -160.8496       38765.709      5.5923035    
      2270   298.54823     -5896.9684     -5837.7321     -199.49897      38780.103      5.61539      
      2280   300.2147      -5897.4214     -5837.8545     -239.56732      38792.709      5.6404216    
      2290   300.34396     -5897.5657     -5837.9731     -260.01826      38803.31       5.6666159    
      2300   298.81825     -5897.3818     -5838.092      -241.8608       38811.836      5.6929267    
      2310   296.2658      -5896.9816     -5838.1982     -214.03747      38818.436      5.718308     
      2320   293.83961     -5896.593      -5838.291      -190.98271      38823.365      5.7419698    
      2330   292.38033     -5896.3707     -5838.3583     -181.18111      38826.829      5.7633613    
      2340   292.43614     -5896.4202     -5838.3966     -198.46659      38828.918      5.7820536    
      2350   293.5285      -5896.6479     -5838.4077     -201.59126      38829.566      5.7976651    
      2360   294.84128     -5896.8977     -5838.397      -194.5397       38828.779      5.8101084    
      2370   295.52369     -5897.0006     -5838.3645     -188.39567      38826.622      5.8196285    
      2380   295.47665     -5896.942      -5838.3152     -162.57138      38823.201      5.8265485    
      2390   295.25411     -5896.8314     -5838.2488     -110.07821      38818.747      5.8313469    
      2400   295.52809     -5896.8003     -5838.1633     -55.59632       38813.628      5.8345994    
      2410   296.50117     -5896.8907     -5838.0607     -15.556764      38808.242      5.8368176    
      2420   297.83974     -5897.0376     -5837.9419      11.974138      38802.874      5.8383568    
      2430   298.56657     -5897.0563     -5837.8164      62.170683      38797.726      5.8393489    
      2440   298.04531     -5896.8201     -5837.6836      139.50004      38793.157      5.8399689    
      2450   296.35801     -5896.344      -5837.5423      236.28526      38789.696      5.8406067    
      2460   294.10317     -5895.7419     -5837.3877      341.51909      38787.977      5.841785     
      2470   292.24422     -5895.1967     -5837.2112      417.50804      38788.67       5.8440782    
      2480   291.21199     -5894.7891     -5837.0084      496.7312       38792.301      5.8479081    
      2490   291.23462     -5894.5591     -5836.774       562.36619      38799.331      5.8535577    
      2500   292.75653     -5894.595      -5836.5079      590.03128      38810.127      5.861174     
      2510   295.99608     -5894.9447     -5836.2148      544.06453      38824.767      5.8708271    
      2520   300.10164     -5895.4523     -5835.9078      470.56992      38842.897      5.882417     
      2530   303.86949     -5895.8921     -5835.6         386.70278      38863.931      5.895824     
      2540   306.41487     -5896.1045     -5835.3074      301.73798      38887.227      5.9109362    
      2550   307.33796     -5896.0217     -5835.0415      231.59004      38912.17       5.9275584    
      2560   306.56845     -5895.6317     -5834.8041      176.08137      38938.229      5.945489     
      2570   305.10053     -5895.1318     -5834.5955      115.06821      38964.987      5.9645662    
      2580   304.15426     -5894.7557     -5834.4072      53.797321      38991.993      5.9843809    
      2590   303.717       -5894.499      -5834.2372     -11.237338      39018.803      6.0044385    
      2600   303.46479     -5894.2917     -5834.08       -71.210293      39044.99       6.0242056    
      2610   303.49837     -5894.1544     -5833.936      -165.3427       39070.091      6.0429791    
      2620   304.09178     -5894.1398     -5833.8036     -273.36659      39093.485      6.0598775    
      2630   305.11142     -5894.2262     -5833.6877     -389.93102      39114.45       6.0739356    
      2640   305.7781      -5894.2592     -5833.5884     -477.27895      39132.232      6.0842843    
      2650   305.71094     -5894.172      -5833.5146     -558.73725      39146.226      6.09021      
      2660   305.42501     -5894.0647     -5833.464      -606.48923      39155.959      6.0912709    
      2670   305.19309     -5893.9907     -5833.436      -626.78302      39161.184      6.087446     
      2680   304.48559     -5893.845      -5833.4307     -607.77178      39161.873      6.0790624    
      2690   303.25588     -5893.6143     -5833.4439     -574.0131       39158.221      6.0666826    
      2700   301.9549      -5893.3835     -5833.4714     -493.44835      39150.585      6.0510568    
      2710   301.06053     -5893.2426     -5833.5078     -386.23149      39139.599      6.0332733    
      2720   300.88773     -5893.2484     -5833.548      -278.26326      39126.061      6.0145588    
      2730   301.56471     -5893.4257     -5833.5909     -133.57558      39110.816      5.9959424    
      2740   302.94014     -5893.749      -5833.6414     -5.9134356      39094.895      5.9784944    
      2750   304.22326     -5894.064      -5833.7017      94.468093      39079.219      5.963117     
      2760   304.653       -5894.2288     -5833.7812      203.82166      39064.519      5.9504033    
      2770   304.51598     -5894.2972     -5833.8769      288.28106      39051.511      5.9407819    
      2780   304.36883     -5894.3829     -5833.9918      371.84745      39040.798      5.9344854    
      2790   304.6765      -5894.5781     -5834.1259      435.89756      39032.919      5.9315877    
      2800   305.69925     -5894.9341     -5834.279       476.24856      39028.268      5.932016     
      2810   306.85651     -5895.3442     -5834.4595      504.64165      39027.076      5.9355009    
      2820   306.47417     -5895.475      -5834.6661      532.72219      39029.489      5.9417757    
      2830   303.61281     -5895.1395     -5834.8984      562.66195      39035.636      5.9506508    
      2840   299.71817     -5894.6125     -5835.1442      585.2821       39045.704      5.9621442    
      2850   296.64044     -5894.2434     -5835.3857      540.34931      39059.759      5.9762826    
      2860   294.87511     -5894.1193     -5835.6118      437.29209      39077.422      5.9927918    
      2870   294.2755      -5894.2046     -5835.8161      295.8987       39097.938      6.0111759    
      2880   294.93687     -5894.5148     -5835.9951      127.49282      39120.245      6.0307913    
      2890   296.63658     -5895.011      -5836.154      -27.442308      39143.128      6.0509738    
      2900   298.8922      -5895.605      -5836.3005     -154.34901      39165.497      6.0711971    
      2910   301.31182     -5896.2279     -5836.4433     -246.64628      39186.451      6.0910343    
      2920   303.6654      -5896.8428     -5836.5912     -328.81221      39205.317      6.1102613    
      2930   305.7329      -5897.417      -5836.7552     -400.14087      39221.552      6.1286983    
      2940   307.26732     -5897.9095     -5836.9433     -439.44911      39234.684      6.1461349    
      2950   307.52473     -5898.1802     -5837.1629     -467.77346      39244.481      6.1626238    
      2960   306.26052     -5898.1772     -5837.4108     -465.00111      39250.794      6.1783385    
      2970   304.06157     -5898.0132     -5837.683      -415.62578      39253.674      6.1935583    
      2980   301.10238     -5897.7089     -5837.9658     -332.04309      39253.513      6.2088005    
      2990   297.52975     -5897.2826     -5838.2484     -251.6111       39250.964      6.2245806    
      3000   293.88754     -5896.8245     -5838.513      -162.90062      39246.664      6.241023     
      3010   291.27535     -5896.5414     -5838.7482     -125.30381      39241.213      6.2580123    
      3020   290.12254     -5896.511      -5838.9465     -111.84053      39234.935      6.2751547    
      3030   290.47177     -5896.7402     -5839.1065     -121.64229      39227.945      6.292027     
      3040   291.81891     -5897.1306     -5839.2296     -142.27035      39220.177      6.3081517    
      3050   293.17404     -5897.4932     -5839.3232     -122.37535      39211.528      6.3232747    
      3060   293.81149     -5897.6869     -5839.3905     -63.249863      39202.16       6.3376036    
      3070   293.37437     -5897.6426     -5839.4329      0.39525384     39192.485      6.3517451    
      3080   291.90769     -5897.3687     -5839.45        76.60818       39182.975      6.3663394    
      3090   289.91822     -5896.96       -5839.436       197.51004      39174.223      6.3821345    
      3100   288.27481     -5896.582      -5839.3842      308.05802      39167.01       6.4000706    
      3110   287.44268     -5896.322      -5839.2893      389.4698       39162.088      6.4210715    
      3120   287.32468     -5896.1554     -5839.1461      461.3812       39160.035      6.4457879    
      3130   287.82215     -5896.0624     -5838.9543      513.52566      39161.309      6.4744421    
      3140   289.04884     -5896.0679     -5838.7164      538.64307      39166.24       6.5068466    
      3150   290.94601     -5896.1646     -5838.4367      510.01655      39174.943      6.5424776    
      3160   293.09196     -5896.2784     -5838.1248      457.0211       39187.192      6.5805404    
      3170   295.3285      -5896.3857     -5837.7883      370.25013      39202.518      6.6201343    
      3180   297.4873      -5896.4648     -5837.4391      251.75113      39220.275      6.6602938    
      3190   299.28355     -5896.4681     -5837.086       108.57603      39239.6        6.7000071    
      3200   300.42541     -5896.3458     -5836.7371     -32.094476      39259.451      6.7382476    
      3210   301.0202      -5896.1228     -5836.3961     -137.57247      39278.841      6.7739347    
      3220   301.40541     -5895.8694     -5836.0662     -226.3706       39296.987      6.8062809    
      3230   301.99038     -5895.668      -5835.7488     -320.2706       39313.236      6.8347738    
      3240   302.99279     -5895.564      -5835.4459     -387.60289      39326.984      6.8590214    
      3250   304.19867     -5895.5178     -5835.1604     -441.22034      39337.751      6.8787083    
      3260   304.80424     -5895.3739     -5834.8964     -453.3617       39345.205      6.8936076    
      3270   304.15483     -5895.0029     -5834.6543     -428.39082      39349.289      6.9036812    
      3280   302.4931      -5894.4521     -5834.4332     -375.65165      39350.232      6.9091327    
      3290   300.5586      -5893.86       -5834.2249     -311.84935      39348.447      6.9104411    
      3300   298.67139     -5893.285      -5834.0244     -250.14389      39344.423      6.9082387    
      3310   297.30652     -5892.8123     -5833.8224     -169.37479      39338.655      6.9031269    
      3320   297.06792     -5892.5533     -5833.6108     -65.643378      39331.748      6.8958246    
      3330   298.31149     -5892.5797     -5833.3904      17.445441      39324.433      6.8870594    
      3340   300.86453     -5892.8591     -5833.1633      87.550873      39317.322      6.8774729    
      3350   303.73036     -5893.203      -5832.9386      143.95917      39310.918      6.8676548    
      3360   305.69929     -5893.3832     -5832.7281      190.35789      39305.625      6.8580444    
      3370   306.02258     -5893.2583     -5832.539       289.89124      39301.812      6.8488013    
      3380   305.29409     -5892.9492     -5832.3745      377.77541      39300.108      6.8402229    
      3390   304.78555     -5892.7053     -5832.2315      437.33234      39301.134      6.8324754    
      3400   305.69271     -5892.7654     -5832.1116      440.73351      39305.293      6.8255656    
      3410   307.95133     -5893.1162     -5832.0143      340.84244      39312.528      6.8192488    
      3420   310.68349     -5893.593      -5831.949       217.66727      39322.147      6.8127759    
      3430   312.87343     -5894.0068     -5831.9283      78.907242      39333.222      6.8054223    
      3440   313.84185     -5894.231      -5831.9602     -37.151707      39344.773      6.7966705    
      3450   313.22626     -5894.1951     -5832.0465     -120.39315      39355.969      6.7863798    
      3460   311.53134     -5893.998      -5832.1858     -181.96055      39366.208      6.7747954    
      3470   309.30023     -5893.741      -5832.3714     -211.96279      39375.053      6.7624315    
      3480   306.9703      -5893.4982     -5832.5909     -255.58454      39382.238      6.7498998    
      3490   304.87079     -5893.3253     -5832.8346     -245.13805      39387.534      6.7376856    
      3500   303.09304     -5893.2334     -5833.0954     -197.82671      39391.029      6.7264466    
      3510   301.58134     -5893.2019     -5833.3638     -166.91081      39393.04       6.7168861    
      3520   300.26663     -5893.2089     -5833.6317     -126.24943      39393.813      6.7094357    
      3530   298.59047     -5893.1433     -5833.8987     -56.882529      39393.691      6.704448     
      3540   296.00735     -5892.8848     -5834.1527      51.54328       39393.194      6.7023411    
      3550   293.1605      -5892.553      -5834.3857      166.5444       39393.067      6.7036446    
      3560   291.18988     -5892.3655     -5834.5892      295.99276      39394.175      6.7090238    
      3570   290.73634     -5892.4427     -5834.7565      390.8526       39397.413      6.7192645    
      3580   291.58565     -5892.7478     -5834.893       471.8358       39403.48       6.7350066    
      3590   293.36319     -5893.2048     -5834.9974      465.59348      39412.861      6.7566481    
      3600   295.57522     -5893.7256     -5835.0792      420.32341      39425.558      6.7840642    
      3610   297.64517     -5894.1998     -5835.1428      350.94402      39441.249      6.8167164    
      3620   298.82637     -5894.4899     -5835.1984      293.6507       39459.446      6.8538454    
      3630   299.41895     -5894.6576     -5835.2486      239.1785       39479.691      6.8946577    
      3640   300.40205     -5894.8978     -5835.2938      163.28841      39501.561      6.9381861    
      3650   302.54064     -5895.3699     -5835.3415      35.191735      39524.48       6.983218     
      3660   305.41621     -5895.9987     -5835.3997     -122.00368      39547.529      7.0282102    
      3670   307.50085     -5896.4875     -5835.475      -297.87533      39569.524      7.0714388    
      3680   307.90914     -5896.6754     -5835.5818     -453.28871      39589.215      7.111267     
      3690   306.75158     -5896.5857     -5835.7218     -572.1918       39605.462      7.1463386    
      3700   304.44292     -5896.2949     -5835.8891     -625.65848      39617.428      7.1757784    
      3710   301.74074     -5895.9459     -5836.0762     -617.46023      39624.766      7.1992816    
      3720   299.37258     -5895.6724     -5836.2726     -632.52008      39627.474      7.2171437    
      3730   297.61533     -5895.5186     -5836.4674     -612.12439      39625.511      7.2298102    
      3740   296.11412     -5895.4065     -5836.6532     -538.29063      39619.087      7.2380987    
      3750   294.34779     -5895.2267     -5836.8239     -425.6399       39608.749      7.2430293    
      3760   292.15201     -5894.9385     -5836.9713     -314.27356      39595.302      7.2456889    
      3770   290.04128     -5894.636      -5837.0876     -213.20944      39579.601      7.2470736    
      3780   287.92115     -5894.2932     -5837.1655     -97.742327      39562.427      7.2479103    
      3790   285.93531     -5893.9292     -5837.1955      16.760898      39544.62       7.2488627    
      3800   285.39971     -5893.7985     -5837.1711      117.2685       39527.03       7.2503621    
      3810   287.14517     -5894.0636     -5837.0899      143.60941      39510.356      7.2525844    
      3820   290.2236      -5894.5437     -5836.9592      91.952168      39494.784      7.2552406    
      3830   293.26315     -5894.9714     -5836.7838      47.104306      39479.991      7.2574473    
      3840   295.90017     -5895.2908     -5836.5799     -30.499914      39465.592      7.258251     
      3850   298.16442     -5895.5164     -5836.3563     -112.93613      39451.036      7.2566525    
      3860   300.03665     -5895.6581     -5836.1265     -157.21941      39435.765      7.2519227    
      3870   301.29988     -5895.6786     -5835.8964     -153.50176      39419.44       7.2439228    
      3880   301.88242     -5895.5728     -5835.675      -97.716435      39402.094      7.2331252    
      3890   302.15126     -5895.4135     -5835.4623     -18.68153       39384.12       7.2205123    
      3900   302.36331     -5895.2534     -5835.2602      108.37792      39366.131      7.2073261    
      3910   302.70266     -5895.1271     -5835.0665      226.17434      39348.991      7.1948826    
      3920   303.21908     -5895.0476     -5834.8846      377.50551      39333.606      7.1842925    
      3930   303.87469     -5895.0088     -5834.7157      531.35996      39321.041      7.176613     
      3940   304.82869     -5895.0458     -5834.5634      636.80566      39312.351      7.1728065    
      3950   306.01001     -5895.1479     -5834.4312      691.87353      39308.297      7.1736065    
      3960   306.69202     -5895.1776     -5834.3255      726.01818      39309.286      7.1795421    
      3970   306.15139     -5894.993      -5834.2482      736.92947      39315.549      7.1909972    
      3980   304.34541     -5894.5833     -5834.1968      745.43691      39327.176      7.2081513    
      3990   301.90606     -5894.0673     -5834.1648      732.57902      39344.192      7.2309968    
      4000   300.07727     -5893.6846     -5834.1449      702.11045      39366.516      7.2593364    
      4010   299.41703     -5893.5341     -5834.1254      623.69748      39393.901      7.2928448    
      4020   299.76501     -5893.5817     -5834.104       488.31047      39425.766      7.3308498    
      4030   300.35215     -5893.6725     -5834.0783      340.92537      39461.172      7.3722567    
      4040   300.57962     -5893.689      -5834.0497      193.09702      39499.048      7.4157589    
      4050   300.2117      -5893.5861     -5834.0198      45.167978      39538.306      7.4598917    
      4060   299.76747     -5893.4619     -5833.9838     -105.21856      39577.822      7.5032881    
      4070   300.17589     -5893.4996     -5833.9404     -295.43257      39616.428      7.5447166    
      4080   301.88655     -5893.7911     -5833.8925     -500.15907      39652.748      7.5828954    
      4090   304.5012      -5894.265      -5833.8476     -686.9497       39685.295      7.6167227    
      4100   307.028       -5894.7378     -5833.819      -829.69294      39712.683      7.6454296    
      4110   308.70354     -5895.0707     -5833.8195     -884.54753      39733.895      7.6686691    
      4120   309.48549     -5895.2659     -5833.8595     -895.95091      39748.488      7.686524     
      4130   309.55085     -5895.3669     -5833.9476     -859.52685      39756.406      7.6993001    
      4140   308.97079     -5895.3878     -5834.0836     -788.58105      39757.943      7.7076412    
      4150   308.1092      -5895.4028     -5834.2696     -686.01644      39753.619      7.7122933    
      4160   307.17959     -5895.449      -5834.5001     -557.65562      39744.206      7.714149     
      4170   305.60742     -5895.4069     -5834.77       -405.45177      39730.699      7.7141365    
      4180   303.03832     -5895.1934     -5835.0662     -267.06378      39714.216      7.7130691    
      4190   300.27421     -5894.9535     -5835.3748     -144.45495      39695.792      7.7115732    
      4200   298.43255     -5894.8883     -5835.675       6.4758339      39676.402      7.7101446    
      4210   297.78509     -5895.0439     -5835.9591      124.4347       39657.096      7.7093947    
      4220   297.85816     -5895.3201     -5836.2207      244.02259      39638.773      7.709776     
      4230   298.19914     -5895.6248     -5836.4578      376.12677      39622.354      7.7116435    
      4240   298.5921      -5895.9185     -5836.6735      493.54704      39608.777      7.7152545    
      4250   298.65014     -5896.1232     -5836.8667      573.3516       39598.853      7.7206255    
      4260   297.99395     -5896.1678     -5837.0416      633.89598      39593.195      7.7275591    
      4270   297.03176     -5896.1316     -5837.1962      669.28971      39592.219      7.7357007    
      4280   296.2017      -5896.099      -5837.3283      698.6263       39596.167      7.7445904    
      4290   296.11184     -5896.1938     -5837.441       678.89963      39605.195      7.7538667    
      4300   297.01589     -5896.4689     -5837.5367      631.06114      39619.169      7.7632308    
      4310   298.76883     -5896.9017     -5837.6217      523.7528       39637.689      7.7723443    
      4320   300.64953     -5897.3555     -5837.7023      372.43288      39659.975      7.7807214    
      4330   301.86994     -5897.6836     -5837.7883      213.49845      39684.935      7.7878435    
      4340   302.36022     -5897.8696     -5837.877       26.465607      39711.354      7.793193     
      4350   301.94153     -5897.8843     -5837.9748     -170.52456      39737.878      7.796021     
      4360   300.59289     -5897.7195     -5838.0775     -375.17516      39763.028      7.795261     
      4370   298.86729     -5897.4785     -5838.179      -508.6954       39785.359      7.7897139    
      4380   297.58079     -5897.3196     -5838.2753     -623.65976      39803.835      7.7786463    
      4390   296.84983     -5897.2595     -5838.3603     -709.11282      39817.616      7.7617658    
      4400   296.48205     -5897.2617     -5838.4354     -770.07711      39826.079      7.7391256    
      4410   296.61292     -5897.3511     -5838.4988     -776.75998      39828.818      7.7110452    
      4420   297.05831     -5897.4954     -5838.5547     -759.292        39825.739      7.6780374    
      4430   297.40949     -5897.614      -5838.6037     -740.18058      39816.979      7.6403941    
      4440   297.2605      -5897.6287     -5838.6479     -682.16488      39802.781      7.5984173    
      4450   296.40184     -5897.4961     -5838.6857     -585.86822      39783.619      7.5526561    
      4460   294.77839     -5897.1995     -5838.7112     -434.27011      39760.264      7.5040938    
      4470   293.0048      -5896.8523     -5838.7159     -261.46543      39733.837      7.4540179    
      4480   291.44258     -5896.5139     -5838.6875     -99.430813      39705.629      7.404018     
      4490   290.48289     -5896.2469     -5838.611       59.484145      39676.895      7.3557962    
      4500   290.12068     -5896.0378     -5838.4737      205.13666      39648.814      7.3109371    
      4510   289.79886     -5895.7603     -5838.26        335.74808      39622.431      7.2707897    
      4520   289.9751      -5895.4882     -5837.9529      469.3811       39598.718      7.2365199    
      4530   292.29468     -5895.5398     -5837.5443      546.27959      39578.611      7.208878     
      4540   297.72329     -5896.1206     -5837.048       548.91204      39562.628      7.1878479    
      4550   304.71433     -5896.9706     -5836.5109      515.87835      39550.759      7.1726544    
      4560   310.51923     -5897.6122     -5836.0007      496.31633      39542.757      7.1622639    
      4570   313.20131     -5897.7155     -5835.5718      533.14715      39538.492      7.1558934    
      4580   313.02568     -5897.354      -5835.2452      604.39227      39538.195      7.1532731    
      4590   311.18815     -5896.7589     -5835.0147      686.94168      39542.341      7.1544596    
      4600   309.44054     -5896.2568     -5834.8594      747.00526      39551.49       7.1597749    
      4610   309.01159     -5896.0752     -5834.7629      766.11501      39566.06       7.1696597    
      4620   309.69509     -5896.1624     -5834.7144      704.95105      39586.131      7.1843114    
      4630   310.26984     -5896.2722     -5834.7102      617.69801      39611.292      7.2034638    
      4640   309.98836     -5896.251      -5834.7448      496.51158      39640.894      7.2265503    
      4650   308.81072     -5896.0935     -5834.821       366.53109      39674.053      7.2526412    
      4660   307.11453     -5895.8602     -5834.9243      226.16997      39709.786      7.2805327    
      4670   305.72261     -5895.7115     -5835.0518      49.729251      39747.026      7.3087998    
      4680   305.26845     -5895.7643     -5835.1946     -153.84946      39784.47       7.3358403    
      4690   305.81543     -5896.0302     -5835.352      -355.67277      39820.601      7.3601045    
      4700   306.75111     -5896.3923     -5835.5285     -525.97026      39853.915      7.3802804    
      4710   306.71638     -5896.585      -5835.728      -688.68332      39883.122      7.3953567    
      4720   304.87227     -5896.4392     -5835.9482     -800.34337      39907.076      7.4046232    
      4730   301.9687      -5896.0972     -5836.1823     -887.76702      39924.941      7.4079076    
      4740   299.35507     -5895.8134     -5836.417      -911.51         39936.132      7.4053263    
      4750   297.78447     -5895.7273     -5836.6426     -911.17934      39940.464      7.3973466    
      4760   297.00205     -5895.7815     -5836.852      -884.86628      39937.969      7.3845764    
      4770   296.5893      -5895.8917     -5837.0442     -810.5162       39928.86       7.3677469    
      4780   296.56547     -5896.0591     -5837.2162     -676.54987      39913.749      7.3477803    
      4790   296.90312     -5896.2766     -5837.3668     -515.36262      39893.658      7.3258394    
      4800   297.33737     -5896.4934     -5837.4974     -344.65245      39869.815      7.3031291    
      4810   296.78382     -5896.4967     -5837.6105     -163.13249      39843.502      7.2807578    
      4820   294.72523     -5896.1766     -5837.6989      42.537952      39816.113      7.2598021    
      4830   292.28232     -5895.7548     -5837.7618      226.00415      39789.168      7.241371     
      4840   290.99534     -5895.5303     -5837.7926      381.06269      39764.017      7.226413     
      4850   291.9282      -5895.7086     -5837.7859      482.51273      39741.787      7.2158192    
      4860   295.411       -5896.3645     -5837.7507      501.18333      39723.207      7.210156     
      4870   300.17759     -5897.2603     -5837.7007      491.90143      39708.441      7.2093883    
      4880   304.13045     -5897.9963     -5837.6525      461.38171      39697.377      7.2131937    
      4890   305.74903     -5898.2864     -5837.6214      438.1434       39689.773      7.2210889    
      4900   304.578       -5898.0454     -5837.6128      468.6199       39685.482      7.2324827    
      4910   301.52684     -5897.451      -5837.6238      502.16794      39684.668      7.2469819    
      4920   298.43926     -5896.8534     -5837.6388      539.42004      39687.592      7.2641746    
      4930   296.59948     -5896.4985     -5837.6489      553.3192       39694.501      7.2836317    
      4940   295.97438     -5896.3715     -5837.6459      508.28462      39705.448      7.3049738    
      4950   296.09495     -5896.3744     -5837.6249      429.32459      39720.131      7.3275744    
      4960   296.48518     -5896.4088     -5837.5819      326.95772      39737.953      7.3506842    
      4970   297.18684     -5896.4821     -5837.5159      221.19195      39758.155      7.3735357    
      4980   298.51277     -5896.6509     -5837.4217      114.23454      39779.956      7.395268     
      4990   300.5671      -5896.9296     -5837.2927      14.002064      39802.558      7.414983     
      5000   302.64312     -5897.1793     -5837.1306     -57.431793      39825.224      7.4320074    
      5010   304.24394     -5897.3002     -5836.9338     -65.319254      39847.448      7.4459857    
      5020   305.02837     -5897.2306     -5836.7086     -58.861589      39869.133      7.4570334    
      5030   305.21911     -5897.0145     -5836.4547     -27.08136       39890.36       7.4654038    
      5040   305.47891     -5896.79       -5836.1786     -19.516489      39911.315      7.4714473    
      5050   306.10708     -5896.6238     -5835.8878     -37.295908      39932.062      7.47533      
      5060   307.29709     -5896.5641     -5835.5919     -74.947674      39952.484      7.4771064    
      5070   308.3191      -5896.4784     -5835.3035     -131.91811      39972.302      7.4766916    
      5080   308.27789     -5896.2008     -5835.0341     -198.23787      39991.08       7.4740188    
      5090   307.02174     -5895.7075     -5834.79       -261.84487      40008.327      7.4690939    
      5100   305.07746     -5895.1029     -5834.5712     -300.94949      40023.588      7.4620543    
      5110   303.75933     -5894.6407     -5834.3705     -327.45358      40036.55       7.4532655    
      5120   303.29719     -5894.3632     -5834.1847     -364.80757      40046.985      7.4430739    
      5130   303.14902     -5894.1617     -5834.0126     -403.44027      40054.65       7.431767     
      5140   303.28093     -5894.0299     -5833.8546     -428.95774      40059.258      7.4192637    
      5150   304.28181     -5894.0812     -5833.7073     -423.80298      40060.645      7.4051425    
      5160   305.9954      -5894.2917     -5833.5779     -414.68067      40058.831      7.38888      
      5170   307.97955     -5894.5792     -5833.4717     -401.61612      40053.89       7.3701292    
      5180   309.90685     -5894.8872     -5833.3972     -364.86547      40045.951      7.3487365    
      5190   311.12151     -5895.093      -5833.3621     -278.76474      40035.317      7.3248163    
      5200   311.34484     -5895.1461     -5833.3708     -182.41967      40022.596      7.2988442    
      5210   310.52371     -5895.0403     -5833.4279     -69.113433      40008.535      7.2715439    
      5220   308.66553     -5894.7726     -5833.5289      63.154957      39994.002      7.2438505    
      5230   306.29286     -5894.4434     -5833.6705      154.31027      39979.924      7.2168079    
      5240   305.09199     -5894.3785     -5833.8439      191.90166      39966.993      7.1913055    
      5250   305.86166     -5894.7378     -5834.0505      163.40277      39955.494      7.1679753    
      5260   307.84002     -5895.3735     -5834.2937      75.483688      39945.19       7.1470265    
      5270   309.382       -5895.9727     -5834.5868     -79.305617      39935.378      7.1282548    
      5280   309.43713     -5896.3242     -5834.9275     -184.70507      39925.028      7.1111031    
      5290   308.03988     -5896.4304     -5835.3109     -273.09729      39913.314      7.0950295    
      5300   305.64331     -5896.3586     -5835.7146     -333.2457       39899.577      7.0796584    
      5310   303.33565     -5896.2975     -5836.1113     -359.42852      39883.38       7.0649276    
      5320   301.64816     -5896.3323     -5836.481      -359.95759      39864.491      7.0509588    
      5330   300.51133     -5896.4297     -5836.8039     -329.52693      39842.91       7.0379942    
      5340   299.87957     -5896.5798     -5837.0794     -251.33737      39818.888      7.0263314    
      5350   299.53846     -5896.7384     -5837.3057     -109.70214      39793.017      7.0163703    
      5360   298.93451     -5896.8003     -5837.4874      94.565339      39766.371      7.0087223    
      5370   298.23492     -5896.8047     -5837.6306      280.53875      39740.4        7.0041472    
      5380   298.78468     -5897.0255     -5837.7424      445.09486      39716.508      7.003355     
      5390   300.91491     -5897.5386     -5837.8327      570.98792      39695.884      7.0069322    
      5400   303.04917     -5898.0417     -5837.9125      672.81585      39679.47       7.0153553    
      5410   303.70872     -5898.2567     -5837.9966      752.68717      39668.016      7.0288889    
      5420   302.5504      -5898.115      -5838.0847      796.775        39662.101      7.0474449    
      5430   300.48736     -5897.7979     -5838.1769      796.40572      39662.062      7.070666     
      5440   298.60048     -5897.5122     -5838.2656      745.27083      39667.904      7.0978855    
      5450   297.45673     -5897.3661     -5838.3464      668.97184      39679.265      7.1282789    
      5460   296.8504      -5897.3174     -5838.418       537.92465      39695.55       7.1610404    
      5470   296.51746     -5897.3057     -5838.4724      387.15884      39715.837      7.1952134    
      5480   296.52545     -5897.3496     -5838.5147      235.14894      39739.034      7.2298695    
      5490   296.8291      -5897.4368     -5838.5416      89.612545      39764.017      7.264245     
      5500   297.31457     -5897.5466     -5838.5552     -35.468543      39789.73       7.2977952    
      5510   298.07497     -5897.699      -5838.5566     -136.39625      39815.26       7.3303081    
      5520   299.34841     -5897.9465     -5838.5515     -193.99418      39839.864      7.361709     
      5530   300.35211     -5898.1362     -5838.5421     -252.19835      39863.066      7.3921316    
      5540   300.32803     -5898.1227     -5838.5333     -273.86865      39884.474      7.4215585    
      5550   299.65387     -5897.9817     -5838.5261     -302.48478      39903.863      7.4497485    
      5560   299.65651     -5897.9733     -5838.5171     -314.48571      39921.057      7.4762681    
      5570   300.54941     -5898.1406     -5838.5073     -380.50733      39935.891      7.5004678    
      5580   301.62342     -5898.3439     -5838.4975     -457.48487      39947.888      7.5212395    
      5590   302.28907     -5898.472      -5838.4936     -508.18281      39956.473      7.5373237    
      5600   302.21422     -5898.4636     -5838.5        -532.53077      39961.256      7.5477633    
      5610   301.73739     -5898.3889     -5838.5199     -532.82064      39962.047      7.5520972    
      5620   301.08772     -5898.2908     -5838.5507     -496.90909      39958.858      7.5503564    
      5630   300.54668     -5898.2238     -5838.591      -458.98214      39951.905      7.5429793    
      5640   300.60824     -5898.2871     -5838.6421     -400.268        39941.469      7.530419     
      5650   301.33718     -5898.4944     -5838.7048     -311.27445      39927.987      7.5130916    
      5660   302.07128     -5898.7189     -5838.7836     -207.58456      39912.095      7.4914386    
      5670   301.98579     -5898.8005     -5838.8822     -70.521481      39894.6        7.4661217    
      5680   301.02396     -5898.7328     -5839.0053      96.862675      39876.541      7.4381319    
      5690   299.50784     -5898.5731     -5839.1465      265.20516      39859.151      7.4087451    
      5700   297.83105     -5898.4014     -5839.3074      403.93564      39843.679      7.3791981    
      5710   296.17041     -5898.2432     -5839.4787      501.1866       39831.153      7.3505899    
      5720   295.03281     -5898.193      -5839.6543      548.46909      39822.277      7.3239902    
      5730   294.94621     -5898.3538     -5839.8322      517.95753      39817.398      7.30022      
      5740   296.04831     -5898.7471     -5840.0068      446.03781      39816.335      7.2795548    
      5750   297.51036     -5899.2118     -5840.1815      339.28038      39818.575      7.2618099    
      5760   298.31929     -5899.5498     -5840.359       219.79413      39823.378      7.2463372    
      5770   297.63592     -5899.5981     -5840.5429      141.32134      39829.909      7.2321614    
      5780   295.39193     -5899.3381     -5840.7281      76.236755      39837.544      7.2182445    
      5790   292.69621     -5898.9778     -5840.9027      24.980741      39845.795      7.203617     
      5800   290.96132     -5898.7874     -5841.0565     -13.733244      39854.297      7.1876078    
      5810   290.41608     -5898.8057     -5841.183      -92.309338      39862.704      7.1698275    
      5820   290.19897     -5898.8562     -5841.2766     -145.03616      39870.481      7.150003     
      5830   289.82487     -5898.8423     -5841.3369     -156.93848      39877.224      7.1281914    
      5840   289.7722      -5898.8551     -5841.3601     -175.14744      39882.804      7.1046934    
      5850   290.63775     -5899.0104     -5841.3437     -180.74571      39887.109      7.0797817    
      5860   292.64079     -5899.3535     -5841.2894     -182.28191      39890.076      7.0537465    
      5870   295.7323      -5899.8765     -5841.1989     -209.26315      39891.661      7.0270012    
      5880   299.4084      -5900.4866     -5841.0797     -229.66229      39891.694      7.00004      
      5890   302.60857     -5900.9872     -5840.9453     -204.98733      39890.042      6.9733731    
      5900   304.77638     -5901.2794     -5840.8074     -150.02329      39886.859      6.9476354    
      5910   305.85163     -5901.3625     -5840.6772     -121.58342      39882.514      6.923467     
      5920   305.62537     -5901.1956     -5840.5551     -66.838065      39877.245      6.9013465    
      5930   303.68559     -5900.7023     -5840.4467      0.49890317     39871.436      6.8819332    
      5940   300.51761     -5899.9673     -5840.3403      83.945689      39865.619      6.8659074    
      5950   297.11384     -5899.1792     -5840.2276      175.67026      39860.407      6.8539108    
      5960   294.70061     -5898.5643     -5840.0915      270.32425      39856.502      6.8464132    
      5970   294.09163     -5898.2747     -5839.9227      309.04296      39854.568      6.8437416    
      5980   295.18247     -5898.2787     -5839.7103      332.89128      39854.923      6.8460301    
      5990   297.13735     -5898.4164     -5839.4601      326.59706      39857.751      6.8533018    
      6000   299.44666     -5898.5878     -5839.1733      318.21752      39863.06       6.8653483    
      6010   302.4914      -5898.8811     -5838.8625      296.1003       39870.788      6.8819691    
      6020   306.57612     -5899.3748     -5838.5457      244.23066      39880.788      6.9029921    
      6030   310.7827      -5899.9102     -5838.2464      215.60518      39892.741      6.9281647    
      6040   313.47449     -5900.1844     -5837.9866      198.0798       39906.419      6.9573516    
      6050   313.97316     -5900.0786     -5837.7818      185.61334      39921.703      6.9904456    
      6060   312.40089     -5899.6212     -5837.6364      184.28989      39938.521      7.027212     
      6070   309.81877     -5899.0151     -5837.5427      180.83783      39956.878      7.0672405    
      6080   307.81708     -5898.5636     -5837.4883      169.93697      39976.769      7.1098656    
      6090   306.92416     -5898.3604     -5837.4622      117.79354      39998.077      7.1543219    
      6100   306.14392     -5898.2084     -5837.465       69.054061      40020.459      7.1998892    
      6110   304.74154     -5897.9575     -5837.4924      30.942471      40043.557      7.2460381    
      6120   302.69985     -5897.599      -5837.539      -19.265297      40067.083      7.2923783    
      6130   300.33905     -5897.191      -5837.5995     -84.662912      40090.648      7.3385071    
      6140   297.90432     -5896.7725     -5837.664      -129.16204      40113.783      7.3840617    
      6150   295.75805     -5896.4081     -5837.7254     -222.26465      40136.066      7.4286721    
      6160   294.09563     -5896.1298     -5837.777      -340.79563      40156.823      7.4716791    
      6170   292.86734     -5895.9196     -5837.8105     -461.31931      40175.164      7.5122049    
      6180   292.16859     -5895.7903     -5837.8198     -585.62386      40190.114      7.5492752    
      6190   291.82073     -5895.7009     -5837.7995     -668.57037      40200.735      7.5818332    
      6200   291.67729     -5895.6134     -5837.7405     -716.01128      40206.344      7.6090323    
      6210   292.11744     -5895.5947     -5837.6344     -706.99949      40206.546      7.6301629    
      6220   293.67726     -5895.7386     -5837.4689     -647.94891      40201.371      7.6448791    
      6230   296.27168     -5896.0217     -5837.2372     -546.18164      40191.249      7.6533827    
      6240   299.01754     -5896.2689     -5836.9396     -401.90987      40176.917      7.6564001    
      6250   300.99638     -5896.3044     -5836.5825     -231.75787      40159.43       7.655092     
      6260   302.20856     -5896.1481     -5836.1856     -30.859055      40140.091      7.650815     
      6270   303.4923      -5895.9866     -5835.7694      172.739        40120.407      7.6451528    
      6280   305.74467     -5896.0203     -5835.3561      307.3583       40101.856      7.6396636    
      6290   308.74114     -5896.2327     -5834.974       397.97858      40085.506      7.6355501    
      6300   311.62452     -5896.4762     -5834.6454      437.43575      40072.024      7.6336657    
      6310   313.54161     -5896.5963     -5834.3852      493.67741      40061.802      7.6345545    
      6320   313.84421     -5896.4674     -5834.1962      520.63564      40055.251      7.6386469    
      6330   312.57658     -5896.0972     -5834.0775      556.32873      40052.631      7.6461754    
      6340   310.80988     -5895.6859     -5834.0168      567.27312      40054.182      7.6573155    
      6350   309.56459     -5895.4281     -5834.0061      571.00102      40060.049      7.6721021    
      6360   309.36502     -5895.4153     -5834.0328      524.94207      40070.244      7.6903325    
      6370   309.70582     -5895.5482     -5834.0981      467.62872      40084.492      7.7114578    
      6380   309.67442     -5895.6456     -5834.2018      390.4657       40102.403      7.7348908    
      6390   308.66815     -5895.5863     -5834.3421      291.60069      40123.423      7.7599629    
      6400   306.53081     -5895.3333     -5834.5131      209.56764      40146.866      7.7858508    
      6410   303.87314     -5895          -5834.7072      126.46738      40172.111      7.8116839    
      6420   302.24823     -5894.8824     -5834.9121      17.958465      40198.526      7.836659     
      6430   302.85168     -5895.2106     -5835.1205     -128.99046      40225.276      7.8598175    
      6440   304.93019     -5895.8408     -5835.3383     -294.2939       40251.265      7.8801568    
      6450   306.02625     -5896.2876     -5835.5676     -459.90507      40275.228      7.8966358    
      6460   304.89763     -5896.3074     -5835.8113     -567.43588      40295.927      7.9083854    
      6470   302.1118      -5896.0049     -5836.0616     -622.67473      40312.491      7.9148488    
      6480   299.18158     -5895.6669     -5836.305      -650.83193      40324.43       7.9156893    
      6490   297.67845     -5895.5896     -5836.5259     -706.4606       40331.419      7.9105991    
      6500   298.0926      -5895.869      -5836.7232     -722.59479      40333.069      7.8991229    
      6510   299.45335     -5896.3136     -5836.8978     -686.4266       40329.227      7.8810641    
      6520   300.47452     -5896.6732     -5837.0548     -621.94192      40320.082      7.8567884    
      6530   300.97125     -5896.9171     -5837.2001     -554.35439      40306.059      7.8269739    
      6540   301.15346     -5897.0848     -5837.3317     -436.37706      40287.719      7.7924462    
      6550   301.09758     -5897.194      -5837.4519     -289.61587      40265.93       7.7542431    
      6560   300.47854     -5897.1782     -5837.559      -132.54456      40241.775      7.7134649    
      6570   299.28647     -5897.035      -5837.6523      13.196324      40216.425      7.6712614    
      6580   297.98841     -5896.8527     -5837.7275      136.4589       40190.997      7.6287152    
      6590   297.11903     -5896.7373     -5837.7846      217.10979      40166.424      7.5867055    
      6600   296.73946     -5896.7003     -5837.823       244.70217      40143.326      7.5457104    
      6610   296.62975     -5896.6989     -5837.8433      247.91085      40121.948      7.5060027    
      6620   296.91516     -5896.7604     -5837.8482      216.2405       40102.325      7.4677561    
      6630   297.46835     -5896.8618     -5837.8398      161.03262      40084.228      7.4309621    
      6640   298.19584     -5896.9885     -5837.8222      117.15222      40067.285      7.3954973    
      6650   298.87699     -5897.1002     -5837.7987      80.328558      40051.166      7.361193     
      6660   299.0786      -5897.1119     -5837.7705      41.749514      40035.592      7.3279075    
      6670   298.7765      -5897.0233     -5837.7418      57.389381      40020.327      7.2955644    
      6680   298.3801      -5896.9116     -5837.7087      102.13404      40005.437      7.2643652    
      6690   298.04658     -5896.8083     -5837.6716      168.68254      39991.276      7.2348665    
      6700   297.87556     -5896.7336     -5837.6309      261.05301      39978.347      7.2076965    
      6710   298.15029     -5896.7395     -5837.5822      363.92833      39967.339      7.183634     
      6720   299.35692     -5896.9277     -5837.531       450.71068      39959.018      7.1635226    
      6730   301.27854     -5897.2588     -5837.4808      519.6463       39954.049      7.1480892    
      6740   303.01417     -5897.5587     -5837.4364      568.64908      39952.946      7.1379277    
      6750   304.37069     -5897.7986     -5837.4071      597.21487      39956.111      7.1336645    
      6760   305.65805     -5898.0439     -5837.397       568.91634      39963.762      7.1357891    
      6770   306.91988     -5898.3087     -5837.4114      494.67082      39975.709      7.1442714    
      6780   307.79721     -5898.5244     -5837.453       393.10367      39991.444      7.1584841    
      6790   307.95803     -5898.6299     -5837.5266      302.19197      40010.255      7.1774034    
      6800   307.41441     -5898.6295     -5837.6341      200.65521      40031.446      7.1998332    
      6810   306.39223     -5898.5669     -5837.7743      91.806614      40054.276      7.2245214    
      6820   305.12335     -5898.4871     -5837.9462     -28.675282      40077.937      7.2503249    
      6830   303.80204     -5898.4274     -5838.1487     -174.84221      40101.511      7.2761082    
      6840   301.9638      -5898.2922     -5838.3783     -311.03917      40123.927      7.3009258    
      6850   299.14788     -5897.9875     -5838.6323     -446.39413      40144.13       7.3240662    
      6860   295.59451     -5897.5507     -5838.9005     -512.39929      40161.121      7.3449406    
      6870   292.38585     -5897.1844     -5839.1709     -537.34916      40174.334      7.3633918    
      6880   290.67729     -5897.1039     -5839.4293     -532.36274      40183.557      7.3793589    
      6890   290.42802     -5897.2976     -5839.6725     -530.65411      40188.763      7.3929123    
      6900   290.61631     -5897.5576     -5839.8952     -501.07066      40189.963      7.4041393    
      6910   291.26672     -5897.8905     -5840.099      -466.01226      40187.341      7.4132321    
      6920   292.75451     -5898.3743     -5840.2876     -410.89371      40181.165      7.4203442    
      6930   294.56779     -5898.9155     -5840.4691     -296.23494      40171.883      7.4257942    
      6940   295.53409     -5899.2938     -5840.6556     -168.13632      40160.329      7.43028      
      6950   295.7072      -5899.53       -5840.8575     -80.25282       40147.406      7.4345941    
      6960   295.52394     -5899.7267     -5841.0905      1.3863101      40133.822      7.4393085    
      6970   294.86093     -5899.8699     -5841.3652      80.332573      40120.207      7.4449799    
      6980   293.88354     -5900.001      -5841.6903      120.81952      40107.119      7.4523439    
      6990   293.44119     -5900.2936     -5842.0706      131.31029      40094.889      7.4620936    
      7000   293.99926     -5900.8334     -5842.4997      95.824833      40083.592      7.4748093    
      7010   294.94298     -5901.4827     -5842.9618      30.378305      40072.965      7.4906922    
      7020   295.464       -5902.0576     -5843.4333     -29.734237      40062.547      7.5094997    
      7030   294.78518     -5902.3733     -5843.8837     -101.76469      40051.864      7.5306418    
      7040   292.48533     -5902.314      -5844.2807     -142.6895       40040.425      7.5532021    
      7050   289.27859     -5902.0071     -5844.6101     -157.26053      40027.906      7.5761276    
      7060   286.07901     -5901.6141     -5844.852      -139.58697      40014.208      7.5983912    
      7070   283.78704     -5901.319      -5845.0116     -100.60607      39999.457      7.6191521    
      7080   282.56941     -5901.1538     -5845.088      -49.6664        39983.941      7.6377877    
      7090   282.42225     -5901.1307     -5845.0941     -2.6902548      39968.034      7.6539879    
      7100   283.03248     -5901.1941     -5845.0364      39.084533      39952.099      7.6676656    
      7110   284.10527     -5901.2915     -5844.9209      73.409666      39936.47       7.6789215    
      7120   285.34999     -5901.3721     -5844.7545      131.94433      39921.433      7.6880942    
      7130   286.71416     -5901.4373     -5844.5491      196.40619      39907.405      7.6959094    
      7140   287.78727     -5901.4102     -5844.309       273.85641      39894.878      7.703333     
      7150   287.97312     -5901.1835     -5844.0455      366.55091      39884.421      7.7114443    
      7160   286.86615     -5900.6818     -5843.7634      501.21348      39876.759      7.7213917    
      7170   284.97169     -5900.0094     -5843.4669      606.40471      39872.821      7.7343984    
      7180   283.80381     -5899.47       -5843.1592      676.18633      39873.403      7.7513214    
      7190   285.21925     -5899.4337     -5842.8421      697.1233       39879.036      7.7726088    
      7200   289.60262     -5899.9856     -5842.5243      641.16759      39889.873      7.7982686    
      7210   295.55521     -5900.8652     -5842.2228      525.76492      39905.502      7.8279021    
      7220   301.25184     -5901.7258     -5841.9532      415.41249      39925.122      7.8610596    
      7230   305.33723     -5902.314      -5841.7307      275.71077      39947.86       7.8974798    
      7240   306.93233     -5902.4564     -5841.5567      139.59514      39972.676      7.9366227    
      7250   306.14235     -5902.1704     -5841.4274      30.635075      39998.569      7.9777246    
      7260   303.92871     -5901.6383     -5841.3345     -84.542017      40024.709      8.0200755    
      7270   301.61302     -5901.1044     -5841.26       -224.21261      40050.2        8.0629041    
      7280   299.78844     -5900.6781     -5841.1958     -382.02002      40073.961      8.1052368    
      7290   298.14899     -5900.2899     -5841.1329     -525.33674      40094.838      8.1461361    
      7300   296.52016     -5899.897      -5841.0631     -617.88629      40111.757      8.1846056    
      7310   295.13246     -5899.5414     -5840.9829     -666.20838      40124.002      8.2196538    
      7320   294.43075     -5899.3063     -5840.887      -703.26765      40131.184      8.250481     
      7330   294.69534     -5899.244      -5840.7722     -676.36148      40133.07       8.2763178    
      7340   296.17469     -5899.4033     -5840.638      -621.9213       40129.833      8.296701     
      7350   298.83997     -5899.7842     -5840.49       -561.4935       40121.877      8.3114584    
      7360   301.95429     -5900.2471     -5840.335      -445.0598       40109.739      8.3206579    
      7370   304.31937     -5900.5657     -5840.1844     -323.90998      40094.221      8.324742     
      7380   305.28259     -5900.6202     -5840.0478     -168.39043      40076.302      8.3244302    
      7390   304.89011     -5900.4243     -5839.9298      28.704189      40057.186      8.3207286    
      7400   303.59643     -5900.0632     -5839.8254      227.24821      40038.306      8.3148309    
      7410   302.17402     -5899.6875     -5839.7318      361.59434      40021.123      8.3080038    
      7420   301.73175     -5899.5128     -5839.6449      419.97005      40006.647      8.3011598    
      7430   302.70915     -5899.6219     -5839.5601      434.78218      39995.317      8.2947116    
      7440   304.45222     -5899.8933     -5839.4856      417.05134      39987.253      8.2888886    
      7450   305.69891     -5900.0801     -5839.425       355.05065      39982.302      8.2838885    
      7460   305.76051     -5900.0515     -5839.3842      275.68484      39980.011      8.2796906    
      7470   304.368       -5899.7571     -5839.3661      169.62743      39979.78       8.2761539    
      7480   301.2779      -5899.1429     -5839.3651      91.097408      39980.854      8.2728653    
      7490   297.30887     -5898.3596     -5839.3693      57.251773      39982.649      8.2694706    
      7500   293.97882     -5897.6946     -5839.365       21.96512       39984.89       8.2658107    
      7510   292.89677     -5897.4518     -5839.3369     -12.541681      39987.316      8.2617124    
      7520   294.64126     -5897.7371     -5839.276      -87.401851      39989.614      8.2566994    
      7530   298.21601     -5898.356      -5839.1856     -199.94435      39991.215      8.2498095    
      7540   301.68895     -5898.932      -5839.0726     -266.59362      39991.35       8.2399369    
      7550   303.86827     -5899.2404     -5838.9485     -307.78928      39989.493      8.2264424    
      7560   305.07644     -5899.3513     -5838.8198     -328.34607      39985.326      8.2090436    
      7570   306.37062     -5899.4817     -5838.6934     -346.5383       39978.69       8.1877833    
      7580   308.09546     -5899.708      -5838.5775     -375.89454      39969.41       8.1628787    
      7590   309.34658     -5899.8578     -5838.479      -340.15101      39957.317      8.1347598    
      7600   309.01186     -5899.7172     -5838.4048     -247.01216      39942.669      8.1043438    
      7610   307.3568      -5899.3433     -5838.3593     -121.93017      39926.142      8.0728914    
      7620   305.25847     -5898.9038     -5838.3362      17.513559      39908.655      8.0418301    
      7630   303.14379     -5898.4786     -5838.3306      156.55071      39891.249      8.0126696    
      7640   300.84096     -5898.0245     -5838.3334      280.1716       39874.959      7.9868934    
      7650   298.36581     -5897.5404     -5838.3404      410.31479      39860.738      7.9658898    
      7660   296.63665     -5897.1969     -5838.3399      498.49628      39849.508      7.9508814    
      7670   296.42486     -5897.1445     -5838.3296      530.3761       39841.926      7.9427367    
      7680   297.10743     -5897.2562     -5838.3059      527.67068      39838.279      7.9417921    
      7690   297.66946     -5897.3309     -5838.269       531.80544      39838.606      7.9479883    
[...]
     18200   1241.6781     -5678.9802     -5432.6135      2852.8087      44659.381      42.531733    
     18210   1225.7427     -5675.1672     -5431.9623      2915.3741      44685.078      42.725417    
     18220   1224.3892     -5673.9734     -5431.037       2927.565       44708.999      42.907266    
     18230   1244.1216     -5676.6376     -5429.786       2829.1225      44731.497      43.077367    
     18240   1261.7622     -5678.5836     -5428.2319      2863.7426      44752.601      43.237808    
     18250   1257.4197     -5675.9784     -5426.4883      3193.1696      44772.452      43.391134    
     18260   1239.8634     -5670.679      -5424.6723      3691.8775      44791.859      43.540728    
     18270   1226.9849     -5666.3225     -5422.8711      4066.5955      44812.083      43.692324    
     18280   1231.5433     -5665.5194     -5421.1636      4225.2678      44834.348      43.852793    
     18290   1236.788      -5665.021      -5419.6245      4192.2006      44859.293      44.025574    
     18300   1232.418      -5662.8336     -5418.3042      4163.2745      44887.178      44.210278    
     18310   1236.7785     -5662.5472     -5417.1527      3910.2725      44917.669      44.404343    
     18320   1242.1167     -5662.5557     -5416.1019      3666.0358      44949.263      44.601629    
     18330   1243.0643     -5661.7357     -5415.094       3348.5901      44980.422      44.796328    
     18340   1249.9383     -5662.0994     -5414.0937      3016.4277      45010          44.984038    
     18350   1260.7732     -5663.2317     -5413.0762      2716.7019      45037.071      45.1611      
     18360   1272.0061     -5664.4233     -5412.0391      2536.4204      45060.766      45.322978    
     18370   1277.3924     -5664.446      -5410.9931      2545.4613      45080.33       45.465635    
     18380   1283.9942     -5664.7079     -5409.9451      2580.684       45095.355      45.587619    
     18390   1290.6931     -5664.9972     -5408.9052      2715.7888      45105.684      45.689941    
     18400   1282.7507     -5662.392      -5407.8758      2829.1099      45111.408      45.775864    
     18410   1274.7716     -5659.7739     -5406.841       2942.853       45113.309      45.851221    
     18420   1274.4794     -5658.635      -5405.76        3005.1335      45112.103      45.918087    
     18430   1274.5211     -5657.5093     -5404.626       3125.5505      45108.468      45.975876    
     18440   1269.7909     -5655.3805     -5403.4358      3348.4189      45103.002      46.02411     
     18450   1263.1088     -5652.8064     -5402.1875      3546.3666      45096.443      46.064079    
     18460   1270.5168     -5652.9584     -5400.8696      3493.3968      45089.42       46.096224    
     18470   1291.7925     -5655.8145     -5399.5043      3364.4055      45081.357      46.1159      
     18480   1304.6913     -5657.0284     -5398.159       3315.068       45071.271      46.11967     
     18490   1306.2679     -5656.0693     -5396.8871      3477.0244      45058.651      46.107532    
     18500   1309.3981     -5655.4955     -5395.6921      3705.4516      45044.108      46.083799    
     18510   1312.8197     -5655.0392     -5394.5569      3849.4641      45029.223      46.056904    
     18520   1317.7165     -5654.9407     -5393.4868      3947.3872      45015.681      46.035974    
     18530   1332.1756     -5656.8014     -5392.4787      3808.5879      45004.314      46.027435    
     18540   1353.2537     -5660.0647     -5391.5598      3542.2804      44994.304      46.031739    
     18550   1367.6646     -5662.1484     -5390.7842      3366.678       44984.071      46.045692    
     18560   1367.8756     -5661.5889     -5390.1827      3318.418       44972.505      46.064431    
     18570   1365.1604     -5660.6155     -5389.7481      3292.1537      44959.175      46.080971    
     18580   1382.1325     -5663.707      -5389.4722      3030.0677      44943.633      46.088587    
     18590   1404.7156     -5668.1151     -5389.3994      2754.4754      44924.793      46.081549    
     18600   1403.9882     -5668.1667     -5389.5954      2755.9115      44901.595      46.055331    
     18610   1379.2276     -5663.7092     -5390.0507      3020.2146      44873.988      46.008077    
     18620   1355.0602     -5659.5249     -5390.6615      3332.2499      44843.266      45.942844    
     18630   1347.2942     -5658.668      -5391.3455      3466.505       44811.181      45.865943    
     18640   1352.2278     -5660.3804     -5392.079       3496.7144      44779.152      45.784574    
     18650   1351.9397     -5661.1055     -5392.8613      3573.8852      44748.314      45.705592    
     18660   1342.7891     -5660.1152     -5393.6866      3767.0472      44719.843      45.636219    
     18670   1331.0105     -5658.5995     -5394.5079      3959.3395      44694.717      45.582784    
     18680   1329.546      -5659.0983     -5395.2973      4107.9455      44673.348      45.548321    
     18690   1330.7057     -5660.0698     -5396.0388      4273.2983      44656.321      45.535976    
     18700   1330.5034     -5660.7202     -5396.7293      4420.089       44644.897      45.551771    
     18710   1339.7189     -5663.2013     -5397.3819      4441.8162      44640.063      45.600552    
     18720   1341.9558     -5664.282      -5398.0187      4417.2884      44641.742      45.684657    
     18730   1326.8725     -5661.8983     -5398.6278      4501.5531      44649.221      45.803619    
     18740   1316.8144     -5660.4364     -5399.1616      4493.4501      44661.823      45.954901    
     18750   1320.1925     -5661.5372     -5399.5921      4342.3159      44678.647      46.133908    
     18760   1323.7459     -5662.5688     -5399.9187      4158.0091      44698.126      46.333306    
     18770   1326.0012     -5663.246      -5400.1484      4048.9101      44719.063      46.546376    
     18780   1340.1903     -5666.2126     -5400.2997      3894.5175      44740.93       46.767622    
     18790   1354.254      -5669.1083     -5400.4049      3790.2831      44763.455      46.993297    
     18800   1355.9622     -5669.5503     -5400.508       3872.8975      44786.318      47.220929    
     18810   1349.2544     -5668.3235     -5400.6121      4027.3044      44809.128      47.448129    
     18820   1340.9788     -5666.7653     -5400.6959      4170.9372      44831.5        47.673363    
     18830   1331.7535     -5664.9598     -5400.7209      4275.6184      44853.314      47.896404    
     18840   1324.7804     -5663.5042     -5400.6487      4174.9817      44874.778      48.117441    
     18850   1324.9366     -5663.3353     -5400.4489      3997.2755      44896.053      48.335821    
     18860   1327.4868     -5663.4858     -5400.0934      3763.6744      44917.275      48.550306    
     18870   1330.5965     -5663.5789     -5399.5695      3494.6976      44938.4        48.760364    
     18880   1335.7358     -5663.8898     -5398.8607      3265.8999      44958.772      48.963076    
     18890   1333.9551     -5662.6249     -5397.9491      3247.9977      44977.922      49.155647    
     18900   1325.4025     -5659.8014     -5396.8226      3433.7426      44995.842      49.336222    
     18910   1315.037      -5656.3755     -5395.4533      3759.1767      45012.948      49.504697    
     18920   1313.9121     -5654.5232     -5393.8242      3966.9638      45030.194      49.666242    
     18930   1328.4446     -5655.564      -5391.9815      3996.4666      45048.475      49.828852    
     18940   1360.6215     -5660.0215     -5390.0547      3833.5482      45068.154      49.998204    
     18950   1392.294      -5664.4944     -5388.2433      3662.9544      45088.547      50.17479     
     18960   1411.5011     -5666.796      -5386.734       3657.5753      45108.333      50.353718    
     18970   1417.7819     -5666.9095     -5385.6013      3792.6077      45126.537      50.528639    
     18980   1411.2238     -5664.821      -5384.814       3906.4585      45143.145      50.695667    
     18990   1402.6045     -5662.5809     -5384.2841      3926.5223      45158.693      50.851527    
     19000   1409.5273     -5663.5939     -5383.9235      3777.0271      45173.192      50.990908    
     19010   1415.7896     -5664.6226     -5383.7096      3576.1836      45185.688      51.10782     
     19020   1400.7749     -5661.5599     -5383.6261      3485.3347      45194.698      51.197592    
     19030   1377.1819     -5656.8702     -5383.6176      3606.315       45199.17       51.258395    
     19040   1362.5129     -5653.9369     -5383.5948      3751.5604      45199.12       51.293569    
     19050   1363.3131     -5654.0083     -5383.5075      3754.8665      45195.258      51.31058     
     19060   1376.4495     -5656.4604     -5383.3531      3745.0714      45188.497      51.317646    
     19070   1384.7678     -5657.9216     -5383.1639      3831.4545      45179.597      51.320381    
     19080   1380.327      -5656.8365     -5382.9599      4097.0872      45168.866      51.319508    
     19090   1380.0004     -5656.5385     -5382.7266      4434.2538      45156.577      51.313237    
     19100   1383.4407     -5656.9471     -5382.4527      4589.5807      45143.692      51.302798    
     19110   1391.8023     -5658.2952     -5382.1416      4574.5843      45131.674      51.292939    
     19120   1401.4388     -5659.8853     -5381.8197      4599.4529      45121.945      51.291203    
     19130   1396.0064     -5658.4885     -5381.5009      4573.3346      45115.91       51.306937    
     19140   1378.3982     -5654.6682     -5381.1743      4600.1627      45114.598      51.347589    
     19150   1365.7339     -5651.7631     -5380.7819      4493.8719      45118.759      51.418056    
     19160   1369.1616     -5651.9304     -5380.2692      4284.6002      45128.403      51.517243    
     19170   1385.7207     -5654.5708     -5379.624       4000.8252      45142.774      51.63752     
     19180   1395.6942     -5655.8027     -5378.877       3681.3746      45160.817      51.770609    
     19190   1397.9916     -5655.4431     -5378.0616      3488.446       45181.125      51.90928     
     19200   1400.4976     -5655.0645     -5377.1857      3306.4501      45202.128      52.047135    
     19210   1397.8365     -5653.6003     -5376.2496      3172.3814      45222.172      52.178147    
     19220   1389.2436     -5650.9028     -5375.257       3194.7124      45239.961      52.297952    
     19230   1392.8559     -5650.5538     -5374.1913      3212.7015      45255.487      52.408881    
     19240   1409.9712     -5652.8137     -5373.0552      3263.3695      45269.389      52.516605    
     19250   1421.9479     -5654.0321     -5371.8973      3393.5981      45282.177      52.625566    
     19260   1426.6033     -5653.8461     -5370.7875      3519.9523      45294.365      52.738386    
     19270   1429.1399     -5653.3162     -5369.7543      3481.8221      45306.365      52.855399    
     19280   1438.7693     -5654.2855     -5368.8131      3305.6622      45318.034      52.974442    
     19290   1451.4967     -5655.9888     -5367.991       3020.9369      45328.778      53.092174    
     19300   1450.8879     -5655.2073     -5367.3303      2907.7099      45337.526      53.20414     
     19310   1443.2828     -5653.1917     -5366.8237      2935.1395      45343.284      53.306921    
     19320   1437.6558     -5651.6964     -5366.4449      3118.0901      45345.454      53.398166    
     19330   1435.3503     -5650.9497     -5366.1556      3445.1798      45343.994      53.47658     
     19340   1433.4213     -5650.3491     -5365.9378      3762.833       45339.274      53.542477    
     19350   1421.7032     -5647.8582     -5365.7719      4128.466       45331.955      53.599289    
     19360   1411.5947     -5645.6917     -5365.6111      4341.4198      45323.163      53.653917    
     19370   1408.1637     -5644.8197     -5365.4198      4419.8995      45313.793      53.710173    
     19380   1410.9909     -5645.1416     -5365.1808      4264.9864      45304.552      53.766368    
     19390   1418.5341     -5646.3552     -5364.8977      4106.8634      45295.784      53.820194    
     19400   1429.7768     -5648.2786     -5364.5904      3879.6086      45287.972      53.873251    
     19410   1442.169      -5650.4388     -5364.2919      3664.3872      45281.474      53.927304    
     19420   1449.0799     -5651.5587     -5364.0405      3582.3612      45276.132      53.981466    
     19430   1446.7013     -5650.8984     -5363.8522      3590.812       45271.807      54.034366    
     19440   1434.1532     -5648.2635     -5363.707       3775.6071      45269.286      54.089785    
     19450   1441.7075     -5649.6401     -5363.5847      3880.7886      45269.863      54.156498    
     19460   1458.6146     -5652.9009     -5363.4909      3888.0844      45273.982      54.238865    
     19470   1452.4415     -5651.6448     -5363.4596      4100.9529      45280.854      54.331892    
     19480   1436.6973     -5648.5422     -5363.4809      4447.0784      45289.857      54.432197    
     19490   1430.2453     -5647.2931     -5363.5119      4680.3966      45301.649      54.547853    
     19500   1430.5898     -5647.3678     -5363.5183      4657.2482      45317.271      54.688619    
     19510   1438.9656     -5649.004      -5363.4927      4410.1873      45337.178      54.857086    
     19520   1444.8121     -5650.1184     -5363.447       4151.1287      45360.903      55.048283    
     19530   1440.2044     -5649.1355     -5363.3783      3898.0618      45387.483      55.254131    
     19540   1441.2842     -5649.2421     -5363.2706      3644.17        45415.637      55.464886    
     19550   1454.3806     -5651.6774     -5363.1074      3227.6286      45444.041      55.672304    
     19560   1475.0133     -5655.5808     -5362.9171      2785.0355      45471.434      55.871124    
     19570   1488.1223     -5658.0516     -5362.7869      2443.8099      45496.351      56.056864    
     19580   1472.6834     -5654.978      -5362.7765      2528.8405      45517.17       56.224541    
     19590   1444.3748     -5649.4398     -5362.8552      2793.7689      45533.266      56.372269    
     19600   1431.7379     -5647.0137     -5362.9364      2901.4233      45544.699      56.498391    
     19610   1444.0945     -5649.5068     -5362.9778      2810.7131      45551.039      56.598731    
     19620   1459.1359     -5652.5131     -5362.9996      2662.1104      45551.597      56.670145    
     19630   1455.6592     -5651.8638     -5363.0401      2718.5611      45546.215      56.712047    
     19640   1434.0446     -5647.6106     -5363.0756      3055.6373      45535.72       56.727295    
     19650   1424.1834     -5645.6221     -5363.0437      2993.8803      45521.358      56.719469    
     19660   1438.1494     -5648.2581     -5362.9086      2610.3718      45502.59       56.681203    
     19670   1449.5444     -5650.311      -5362.7007      2243.5437      45477.705      56.603634    
     19680   1451.4677     -5650.4506     -5362.4586      1972.2667      45444.981      56.480339    
     19690   1449.233      -5649.7408     -5362.1923      2090.9911      45403.01       56.305304    
     19700   1446.4444     -5648.8828     -5361.8875      2233.4299      45351.096      56.074712    
     19710   1447.3442     -5648.6968     -5361.523       2504.4062      45289.064      55.787782    
     19720   1449.5954     -5648.6979     -5361.0774      2881.8037      45217.744      55.451518    
     19730   1449.7264     -5648.1885     -5360.542       3259.9663      45138.616      55.07693     
     19740   1447.2004     -5647.0481     -5359.9028      3743.8745      45053.711      54.67615     
     19750   1441.9051     -5645.2288     -5359.1341      4211.3673      44965.651      54.262803    
     19760   1448.2243     -5645.5708     -5358.2224      4639.613       44877.116      53.851764    
     19770   1471.5221     -5649.1553     -5357.1842      4941.2818      44790.726      53.45722     
     19780  CHGNet v0.3.0 initialized with 412,525 parameters
CHGNet will run on cuda:0
CHGNet will run on cuda:0
 1490.9607     -5651.9183     -5356.0904      5212.5397      44709.121      53.092494    
     19790   1492.6384     -5651.1812     -5355.0203      5691.5402      44634.836      52.77177     
     19800   1482.3439     -5648.1251     -5354.0069      6298.3717      44570.438      52.511883    
     19810   1478.2035     -5646.3424     -5353.0457      6780.7187      44517.918      52.325821    
     19820   1477.9585     -5645.3672     -5352.1191      7133.3213      44478.18       52.217656    
     19830   1480.8008     -5645.0358     -5351.2237      7238.6118      44451.801      52.187532    
     19840   1493.6209     -5646.7284     -5350.3726      7041.5797      44438.95       52.230125    
     19850   1505.6861     -5648.3474     -5349.5977      6775.3136      44438.752      52.331975    
     19860   1515.0218     -5649.5284     -5348.9264      6478.7466      44449.662      52.479094    
     19870   1523.4764     -5650.6556     -5348.3761      6184.8267      44469.701      52.66167     
     19880   1530.4382     -5651.6246     -5347.9638      6022.7737      44496.625      52.87269     
     19890   1523.1733     -5649.921      -5347.7016      6036.995       44528.511      53.106435    
     19900   1496.3587     -5644.4586     -5347.5596      6162.7769      44563.986      53.358922    
     19910   1472.2754     -5639.5668     -5347.4462      6149.3594      44602.626      53.630609    
     19920   1473.5333     -5639.6514     -5347.2813      5746.9806      44644.179      53.922484    
     19930   1486.9979     -5642.0797     -5347.038       5203.2003      44687.684      54.231566    
     19940   1502.2144     -5644.8094     -5346.7486      4712.1633      44731.413      54.549654    
     19950   1513.4051     -5646.7463     -5346.4651      4373.5107      44773.85       54.867295    
     19960   1524.6525     -5648.7517     -5346.2388      4055.3584      44814.581      55.179855    
     19970   1531.4306     -5649.9668     -5346.109       3946.3895      44853.632      55.487033    
     19980   1527.6199     -5649.2073     -5346.1056      3993.5584      44891.445      55.792492    
     19990   1513.4331     -5646.5094     -5346.2226      4181.3308      44928.845      56.100995    
     20000   1489.388      -5641.9186     -5346.4027      4439.9501      44966.358      56.411627    
Loop time of 4388.13 on 1 procs for 10000 steps with 1536 atoms

Performance: 0.098 ns/day, 243.785 hours/ns, 2.279 timesteps/s, 3.500 katom-step/s
120.5% CPU use with 1 MPI tasks x 1 OpenMP threads

MPI task timing breakdown:
Section |  min time  |  avg time  |  max time  |%varavg| %total
---------------------------------------------------------------
Pair    | 4342.4     | 4342.4     | 4342.4     |   0.0 | 98.96
Bond    | 0.0033731  | 0.0033731  | 0.0033731  |   0.0 |  0.00
Neigh   | 2.9939     | 2.9939     | 2.9939     |   0.0 |  0.07
Comm    | 0.41719    | 0.41719    | 0.41719    |   0.0 |  0.01
Output  | 41.46      | 41.46      | 41.46      |   0.0 |  0.94
Modify  | 0.76539    | 0.76539    | 0.76539    |   0.0 |  0.02
Other   |            | 0.09755    |            |       |  0.00

Nlocal:           1536 ave        1536 max        1536 min
Histogram: 1 0 0 0 0 0 0 0 0 0
Nghost:           2700 ave        2700 max        2700 min
Histogram: 1 0 0 0 0 0 0 0 0 0
Neighs:              0 ave           0 max           0 min
Histogram: 1 0 0 0 0 0 0 0 0 0
FullNghs:        53610 ave       53610 max       53610 min
Histogram: 1 0 0 0 0 0 0 0 0 0

Total # of neighbors = 53610
Ave neighs/atom = 34.902344
Ave special neighs/atom = 0
Neighbor list builds = 982
Dangerous builds = 901
System init for write_data ...
System init for write_restart ...
Total wall time: 2:36:56
