
     Program PWSCF v.7.2 starts on 27Jun2024 at 19:17:37 

     This program is part of the open-source Quantum ESPRESSO suite
     for quantum simulation of materials; please cite
         "P. Giannozzi et al., J. Phys.:Condens. Matter 21 395502 (2009);
         "P. Giannozzi et al., J. Phys.:Condens. Matter 29 465901 (2017);
         "P. Giannozzi et al., J. Chem. Phys. 152 154105 (2020);
          URL http://www.quantum-espresso.org", 
     in publications or presentations arising from this work. More details at
     http://www.quantum-espresso.org/quote

     Parallel version (MPI & OpenMP), running on       8 processor cores
     Number of MPI processes:                 8
     Threads/MPI process:                     1

     MPI processes distributed on     1 nodes
     273337 MiB available memory on the printing compute node when the environment starts

     Waiting for input...
     Reading input from standard input
Warning: card &CELL ignored
Warning: card / ignored

     Current dimensions of program PWSCF are:
     Max number of different atomic species (ntypx) = 10
     Max number of k-points (npk) =  40000
     Max angular momentum in pseudopotentials (lmaxx) =  4
     Message from routine setup:
     using ibrav=0 with symmetry is DISCOURAGED, use correct ibrav instead

     R & G space division:  proc/nbgrp/npool/nimage =       8
     Subspace diagonalization in iterative solution of the eigenvalue problem:
     a serial algorithm will be used


     Parallelization info
     --------------------
     sticks:   dense  smooth     PW     G-vecs:    dense   smooth      PW
     Min         522     522    143                79426    79426   11267
     Max         523     523    144                79435    79435   11269
     Sum        4177    4177   1145               635429   635429   90139

     Using Slab Decomposition



     bravais-lattice index     =            0
     lattice parameter (alat)  =      11.5718  a.u.
     unit-cell volume          =    6574.1792 (a.u.)^3
     number of atoms/cell      =           24
     number of atomic types    =            2
     number of electrons       =       226.00
     number of Kohn-Sham states=          136
     kinetic-energy cutoff     =      80.0000  Ry
     charge density cutoff     =     320.0000  Ry
     scf convergence threshold =      1.0E-07
     mixing beta               =       0.1000
     number of iterations used =            8  plain     mixing
     Exchange-correlation=  SLA  PW   PBX  PBC
                           (   1   4   3   4   0   0   0)

     celldm(1)=  11.571822  celldm(2)=   0.000000  celldm(3)=   0.000000
     celldm(4)=   0.000000  celldm(5)=   0.000000  celldm(6)=   0.000000

     crystal axes: (cart. coord. in units of alat)
               a(1) = (   0.000000   0.707107   0.707107 )  
               a(2) = (   0.707107  -0.707107   0.707107 )  
               a(3) = (   2.121320   2.121320  -2.121320 )  

     reciprocal axes: (cart. coord. in units 2 pi/alat)
               b(1) = ( -0.000000  0.707107  0.707107 )  
               b(2) = (  0.707107 -0.353553  0.353553 )  
               b(3) = (  0.235702  0.117851 -0.117851 )  


     PseudoPot. # 1 for Mg read from file:
     /nfs/turbo/coe-venkvis/ziqiw-turbo/sssp/mg_pbe_v1.4.uspp.F.UPF
     MD5 check sum: 8ffbd8f729fef71095aac5bd8316fb1f
     Pseudo is Ultrasoft, Zval = 10.0
     Generated by new atomic code, or converted to UPF format
     Using radial grid of  821 points,  7 beta functions with: 
                l(1) =   0
                l(2) =   0
                l(3) =   0
                l(4) =   1
                l(5) =   1
                l(6) =   2
                l(7) =   2
     Q(r) pseudized with  8 coefficients,  rinner =    1.200   1.200   1.200
                                                       1.200   1.200

     PseudoPot. # 2 for Li read from file:
     /nfs/turbo/coe-venkvis/ziqiw-turbo/sssp/li_pbe_v1.4.uspp.F.UPF
     MD5 check sum: e912e257baa3777c20ea3d68f190483c
     Pseudo is Ultrasoft, Zval =  3.0
     Generated by new atomic code, or converted to UPF format
     Using radial grid of  751 points,  5 beta functions with: 
                l(1) =   0
                l(2) =   0
                l(3) =   0
                l(4) =   1
                l(5) =   1
     Q(r) pseudized with 10 coefficients,  rinner =    1.150   1.150   1.150


     atomic species   valence    mass     pseudopotential
        Mg            10.00    24.30500     Mg( 1.00)
        Li             3.00     6.94000     Li( 1.00)

      4 Sym. Ops., with inversion, found ( 2 have fractional translation)


                                    s                        frac. trans.

      isym =  1     identity                                     

 cryst.   s( 1) = (     1          0          0      )
                  (     0          1          0      )
                  (     0          0          1      )

 cart.    s( 1) = (  1.0000000  0.0000000 -0.0000000 )
                  (  0.0000000  1.0000000 -0.0000000 )
                  ( -0.0000000 -0.0000000  1.0000000 )


      isym =  2     180 deg rotation - cart. axis [0,1,1]        

 cryst.   s( 2) = (     1          0          0      )    f =(  0.0000000 )
                  (     0         -1          0      )       ( -0.0000000 )
                  (     0          0         -1      )       (  0.3333333 )

 cart.    s( 2) = ( -1.0000000 -0.0000000  0.0000000 )    f =(  0.7071068 )
                  ( -0.0000000 -0.0000000  1.0000000 )       (  0.7071068 )
                  (  0.0000000  1.0000000 -0.0000000 )       ( -0.7071068 )


      isym =  3     inversion                                    

 cryst.   s( 3) = (    -1          0          0      )    f =( -0.0000000 )
                  (     0         -1          0      )       ( -0.0000000 )
                  (     0          0         -1      )       (  0.3333333 )

 cart.    s( 3) = ( -1.0000000 -0.0000000  0.0000000 )    f =(  0.7071068 )
                  ( -0.0000000 -1.0000000  0.0000000 )       (  0.7071068 )
                  (  0.0000000  0.0000000 -1.0000000 )       ( -0.7071068 )


      isym =  4     inv. 180 deg rotation - cart. axis [0,1,1]   

 cryst.   s( 4) = (    -1          0          0      )
                  (     0          1          0      )
                  (     0          0          1      )

 cart.    s( 4) = (  1.0000000  0.0000000 -0.0000000 )
                  (  0.0000000  0.0000000 -1.0000000 )
                  ( -0.0000000 -1.0000000  0.0000000 )


   Cartesian axes

     site n.     atom                  positions (alat units)
         1           Mg  tau(   1) = (   0.0000000   0.0000000   0.0000000  )
         2           Mg  tau(   2) = (   0.3535534  -0.3535534   0.3535534  )
         3           Mg  tau(   3) = (   0.3535534   0.3535534  -0.3535534  )
         4           Mg  tau(   4) = (   0.3535534   0.3535534   0.3535534  )
         5           Mg  tau(   5) = (   0.7071068   0.0000000  -0.0000000  )
         6           Mg  tau(   6) = (   0.7071068  -0.0000000   0.7071068  )
         7           Mg  tau(   7) = (   0.7071068   0.7071068  -0.7071068  )
         8           Mg  tau(   8) = (   0.7071068   0.7071068  -0.0000000  )
         9           Mg  tau(   9) = (   1.0606602   0.3535534  -0.3535534  )
        10           Mg  tau(  10) = (   1.0606602   0.3535534   0.3535534  )
        11           Mg  tau(  11) = (   1.0606602   1.0606602  -1.0606602  )
        12           Mg  tau(  12) = (   1.0606602   1.0606602  -0.3535534  )
        13           Mg  tau(  13) = (   1.4142136   0.7071068  -0.7071068  )
        14           Mg  tau(  14) = (   1.4142136   0.7071068   0.0000000  )
        15           Mg  tau(  15) = (   1.4142136   1.4142136  -1.4142136  )
        16           Mg  tau(  16) = (   1.4142136   1.4142136  -0.7071068  )
        17           Mg  tau(  17) = (   1.7677670   1.0606602  -1.0606602  )
        18           Mg  tau(  18) = (   1.7677670   1.0606602  -0.3535534  )
        19           Mg  tau(  19) = (   1.7677670   1.7677670  -1.7677670  )
        20           Li  tau(  20) = (   1.7677670   1.7677670  -1.0606602  )
        21           Mg  tau(  21) = (   2.1213203   1.4142136  -1.4142136  )
        22           Mg  tau(  22) = (   2.1213203   1.4142136  -0.7071068  )
        23           Mg  tau(  23) = (   2.1213203   2.1213203  -1.4142136  )
        24           Li  tau(  24) = (   2.4748737   1.7677670  -1.0606602  )

   Crystallographic axes

     site n.     atom                  positions (cryst. coord.)
         1           Mg  tau(   1) = (  0.0000000  0.0000000  0.0000000  )
         2           Mg  tau(   2) = ( -0.0000000  0.5000000  0.0000000  )
         3           Mg  tau(   3) = (  0.0000000  0.0000000  0.1666667  )
         4           Mg  tau(   4) = (  0.5000000  0.2500000  0.0833333  )
         5           Mg  tau(   5) = ( -0.0000000  0.5000000  0.1666667  )
         6           Mg  tau(   6) = (  0.5000000  0.7500000  0.0833333  )
         7           Mg  tau(   7) = (  0.0000000  0.0000000  0.3333333  )
         8           Mg  tau(   8) = (  0.5000000  0.2500000  0.2500000  )
         9           Mg  tau(   9) = (  0.0000000  0.5000000  0.3333333  )
        10           Mg  tau(  10) = (  0.5000000  0.7500000  0.2500000  )
        11           Mg  tau(  11) = (  0.0000000  0.0000000  0.5000000  )
        12           Mg  tau(  12) = (  0.5000000  0.2500000  0.4166667  )
        13           Mg  tau(  13) = (  0.0000000  0.5000000  0.5000000  )
        14           Mg  tau(  14) = (  0.5000000  0.7500000  0.4166667  )
        15           Mg  tau(  15) = (  0.0000000  0.0000000  0.6666667  )
        16           Mg  tau(  16) = (  0.5000000  0.2500000  0.5833333  )
        17           Mg  tau(  17) = (  0.0000000  0.5000000  0.6666667  )
        18           Mg  tau(  18) = (  0.5000000  0.7500000  0.5833333  )
        19           Mg  tau(  19) = ( -0.0000000 -0.0000000  0.8333333  )
        20           Li  tau(  20) = (  0.5000000  0.2500000  0.7500000  )
        21           Mg  tau(  21) = (  0.0000000  0.5000000  0.8333333  )
        22           Mg  tau(  22) = (  0.5000000  0.7500000  0.7500000  )
        23           Mg  tau(  23) = (  0.5000000  0.2500000  0.9166667  )
        24           Li  tau(  24) = (  0.5000000  0.7500000  0.9166667  )

     number of k points=    18  Gaussian smearing, width (Ry)=  0.0100
                       cart. coord. in units 2pi/alat
        k(    1) = (   0.0000000   0.0000000   0.0000000), wk =   0.0625000
        k(    2) = (  -0.1178511  -0.0589256   0.0589256), wk =   0.0625000
        k(    3) = (   0.1767767  -0.0883883   0.0883883), wk =   0.1250000
        k(    4) = (   0.0589256  -0.1473139   0.1473139), wk =   0.1250000
        k(    5) = (  -0.3535534   0.1767767  -0.1767767), wk =   0.0625000
        k(    6) = (  -0.4714045   0.1178511  -0.1178511), wk =   0.0625000
        k(    7) = (  -0.0000000   0.1767767   0.1767767), wk =   0.1250000
        k(    8) = (  -0.1178511   0.1178511   0.2357023), wk =   0.1250000
        k(    9) = (   0.1767767   0.0883883   0.2651650), wk =   0.2500000
        k(   10) = (   0.0589256   0.0294628   0.3240906), wk =   0.2500000
        k(   11) = (  -0.3535534   0.3535534   0.0000000), wk =   0.1250000
        k(   12) = (  -0.4714045   0.2946278   0.0589256), wk =   0.1250000
        k(   13) = (   0.0000000  -0.3535534  -0.3535534), wk =   0.0625000
        k(   14) = (  -0.1178511  -0.4124790  -0.2946278), wk =   0.0625000
        k(   15) = (   0.1767767  -0.4419417  -0.2651650), wk =   0.1250000
        k(   16) = (   0.0589256  -0.5008673  -0.2062395), wk =   0.1250000
        k(   17) = (  -0.3535534  -0.1767767  -0.5303301), wk =   0.0625000
        k(   18) = (  -0.4714045  -0.2357023  -0.4714045), wk =   0.0625000

                       cryst. coord.
        k(    1) = (   0.0000000   0.0000000   0.0000000), wk =   0.0625000
        k(    2) = (   0.0000000  -0.0000000  -0.5000000), wk =   0.0625000
        k(    3) = (  -0.0000000   0.2500000   0.0000000), wk =   0.1250000
        k(    4) = (   0.0000000   0.2500000  -0.5000000), wk =   0.1250000
        k(    5) = (   0.0000000  -0.5000000  -0.0000000), wk =   0.0625000
        k(    6) = (  -0.0000000  -0.5000000  -0.5000000), wk =   0.0625000
        k(    7) = (   0.2500000  -0.0000000   0.0000000), wk =   0.1250000
        k(    8) = (   0.2500000   0.0000000  -0.5000000), wk =   0.1250000
        k(    9) = (   0.2500000   0.2500000  -0.0000000), wk =   0.2500000
        k(   10) = (   0.2500000   0.2500000  -0.5000000), wk =   0.2500000
        k(   11) = (   0.2500000  -0.5000000   0.0000000), wk =   0.1250000
        k(   12) = (   0.2500000  -0.5000000  -0.5000000), wk =   0.1250000
        k(   13) = (  -0.5000000   0.0000000  -0.0000000), wk =   0.0625000
        k(   14) = (  -0.5000000   0.0000000  -0.5000000), wk =   0.0625000
        k(   15) = (  -0.5000000   0.2500000  -0.0000000), wk =   0.1250000
        k(   16) = (  -0.5000000   0.2500000  -0.5000000), wk =   0.1250000
        k(   17) = (  -0.5000000  -0.5000000   0.0000000), wk =   0.0625000
        k(   18) = (  -0.5000000  -0.5000000  -0.5000000), wk =   0.0625000

     Dense  grid:   635429 G-vectors     FFT dimensions: (  72,  81, 243)

     Dynamical RAM for                 wfc:      20.60 MB

     Dynamical RAM for     wfc (w. buffer):     391.49 MB

     Dynamical RAM for           str. fact:       2.42 MB

     Dynamical RAM for           local pot:       0.00 MB

     Dynamical RAM for          nlocal pot:      66.06 MB

     Dynamical RAM for                qrad:       3.83 MB

     Dynamical RAM for          rho,v,vnew:       7.77 MB

     Dynamical RAM for               rhoin:       2.59 MB

     Dynamical RAM for            rho*nmix:      19.39 MB

     Dynamical RAM for           G-vectors:       5.15 MB

     Dynamical RAM for          h,s,v(r/c):       3.39 MB

     Dynamical RAM for          <psi|beta>:       0.90 MB

     Dynamical RAM for                 psi:      41.21 MB

     Dynamical RAM for                hpsi:      41.21 MB

     Dynamical RAM for                spsi:      41.21 MB

     Dynamical RAM for      wfcinit/wfcrot:      41.63 MB

     Dynamical RAM for           addusdens:     275.12 MB

     Dynamical RAM for          addusforce:     326.72 MB

     Dynamical RAM for         addusstress:     266.63 MB

     Estimated static dynamical RAM per process >     489.84 MB

     Estimated max dynamical RAM per process >     835.96 MB

     Estimated total dynamical RAM >       6.53 GB

     Initial potential from superposition of free atoms

     starting charge     218.4935, renormalised to     226.0000
     Starting wfcs are  120 randomized atomic wfcs +   16 random wfcs

     total cpu time spent up to now is       14.3 secs

     per-process dynamical memory:   555.0 Mb

     Self-consistent Calculation

     iteration #  1     ecut=    80.00 Ry     beta= 0.10
     Davidson diagonalization with overlap

---- Real-time Memory Report at c_bands before calling an iterative solver
           684 MiB given to the printing process from OS
           542 MiB allocation reported by mallinfo(arena+hblkhd)
        267855 MiB available memory on the node where the printing process lives
------------------
     ethr =  1.00E-02,  avg # of iterations =  6.9

     total cpu time spent up to now is       76.4 secs

     total energy              =   -2775.79092170 Ry
     estimated scf accuracy    <      77.36794029 Ry

     iteration #  2     ecut=    80.00 Ry     beta= 0.10
     Davidson diagonalization with overlap

---- Real-time Memory Report at c_bands before calling an iterative solver
           946 MiB given to the printing process from OS
           572 MiB allocation reported by mallinfo(arena+hblkhd)
        263913 MiB available memory on the node where the printing process lives
------------------
     ethr =  1.00E-02,  avg # of iterations =  5.9

     total cpu time spent up to now is      133.3 secs

     total energy              =   -2782.93156171 Ry
     estimated scf accuracy    <     168.16417994 Ry

     iteration #  3     ecut=    80.00 Ry     beta= 0.10
     Davidson diagonalization with overlap

---- Real-time Memory Report at c_bands before calling an iterative solver
           949 MiB given to the printing process from OS
           574 MiB allocation reported by mallinfo(arena+hblkhd)
        255717 MiB available memory on the node where the printing process lives
------------------
     ethr =  1.00E-02,  avg # of iterations =  3.5

     total cpu time spent up to now is      176.3 secs

     total energy              =   -2785.95484649 Ry
     estimated scf accuracy    <      15.00139755 Ry

     iteration #  4     ecut=    80.00 Ry     beta= 0.10
     Davidson diagonalization with overlap

---- Real-time Memory Report at c_bands before calling an iterative solver
           954 MiB given to the printing process from OS
           579 MiB allocation reported by mallinfo(arena+hblkhd)
        268365 MiB available memory on the node where the printing process lives
------------------
     ethr =  6.64E-03,  avg # of iterations =  3.5

     total cpu time spent up to now is      218.2 secs

     total energy              =   -2784.60562927 Ry
     estimated scf accuracy    <       3.20198530 Ry

     iteration #  5     ecut=    80.00 Ry     beta= 0.10
     Davidson diagonalization with overlap

---- Real-time Memory Report at c_bands before calling an iterative solver
           956 MiB given to the printing process from OS
           581 MiB allocation reported by mallinfo(arena+hblkhd)
        256509 MiB available memory on the node where the printing process lives
------------------
     ethr =  1.42E-03,  avg # of iterations =  6.3

     total cpu time spent up to now is      276.5 secs

     total energy              =   -2785.33348140 Ry
     estimated scf accuracy    <       7.05061939 Ry

     iteration #  6     ecut=    80.00 Ry     beta= 0.10
     Davidson diagonalization with overlap

---- Real-time Memory Report at c_bands before calling an iterative solver
           959 MiB given to the printing process from OS
           584 MiB allocation reported by mallinfo(arena+hblkhd)
        266794 MiB available memory on the node where the printing process lives
------------------
     ethr =  1.42E-03,  avg # of iterations =  1.0

     total cpu time spent up to now is      311.9 secs

     total energy              =   -2784.55102123 Ry
     estimated scf accuracy    <       5.08067939 Ry

     iteration #  7     ecut=    80.00 Ry     beta= 0.10
     Davidson diagonalization with overlap

---- Real-time Memory Report at c_bands before calling an iterative solver
           961 MiB given to the printing process from OS
           586 MiB allocation reported by mallinfo(arena+hblkhd)
        258096 MiB available memory on the node where the printing process lives
------------------
     ethr =  1.42E-03,  avg # of iterations =  2.9

     total cpu time spent up to now is      353.9 secs

     total energy              =   -2785.05539344 Ry
     estimated scf accuracy    <       4.14389810 Ry

     iteration #  8     ecut=    80.00 Ry     beta= 0.10
     Davidson diagonalization with overlap

---- Real-time Memory Report at c_bands before calling an iterative solver
           964 MiB given to the printing process from OS
           589 MiB allocation reported by mallinfo(arena+hblkhd)
        266829 MiB available memory on the node where the printing process lives
------------------
     ethr =  1.42E-03,  avg # of iterations =  1.0

     total cpu time spent up to now is      389.5 secs

     total energy              =   -2785.10695223 Ry
     estimated scf accuracy    <       0.27686986 Ry

     iteration #  9     ecut=    80.00 Ry     beta= 0.10
     Davidson diagonalization with overlap

---- Real-time Memory Report at c_bands before calling an iterative solver
           966 MiB given to the printing process from OS
           591 MiB allocation reported by mallinfo(arena+hblkhd)
        256380 MiB available memory on the node where the printing process lives
------------------
     ethr =  1.23E-04,  avg # of iterations =  3.1

     total cpu time spent up to now is      431.6 secs

     total energy              =   -2785.12786717 Ry
     estimated scf accuracy    <       0.01376604 Ry

     iteration # 10     ecut=    80.00 Ry     beta= 0.10
     Davidson diagonalization with overlap

---- Real-time Memory Report at c_bands before calling an iterative solver
           968 MiB given to the printing process from OS
           593 MiB allocation reported by mallinfo(arena+hblkhd)
        266058 MiB available memory on the node where the printing process lives
------------------
     ethr =  6.09E-06,  avg # of iterations =  8.8

     total cpu time spent up to now is      490.5 secs

     total energy              =   -2785.11378817 Ry
     estimated scf accuracy    <       0.25228991 Ry

     iteration # 11     ecut=    80.00 Ry     beta= 0.10
     Davidson diagonalization with overlap

---- Real-time Memory Report at c_bands before calling an iterative solver
           969 MiB given to the printing process from OS
           593 MiB allocation reported by mallinfo(arena+hblkhd)
        261165 MiB available memory on the node where the printing process lives
------------------
     ethr =  6.09E-06,  avg # of iterations =  5.5

     total cpu time spent up to now is      537.9 secs

     total energy              =   -2785.12514054 Ry
     estimated scf accuracy    <       0.01625551 Ry

     iteration # 12     ecut=    80.00 Ry     beta= 0.10
     Davidson diagonalization with overlap

---- Real-time Memory Report at c_bands before calling an iterative solver
           969 MiB given to the printing process from OS
           593 MiB allocation reported by mallinfo(arena+hblkhd)
        255433 MiB available memory on the node where the printing process lives
------------------
     ethr =  6.09E-06,  avg # of iterations =  1.7

     total cpu time spent up to now is      576.0 secs

     total energy              =   -2785.12588633 Ry
     estimated scf accuracy    <       0.00312048 Ry

     iteration # 13     ecut=    80.00 Ry     beta= 0.10
     Davidson diagonalization with overlap

---- Real-time Memory Report at c_bands before calling an iterative solver
           969 MiB given to the printing process from OS
           593 MiB allocation reported by mallinfo(arena+hblkhd)
        267594 MiB available memory on the node where the printing process lives
------------------
     ethr =  1.38E-06,  avg # of iterations =  1.2

     total cpu time spent up to now is      612.0 secs

     total energy              =   -2785.12599404 Ry
     estimated scf accuracy    <       0.00012219 Ry

     iteration # 14     ecut=    80.00 Ry     beta= 0.10
     Davidson diagonalization with overlap

---- Real-time Memory Report at c_bands before calling an iterative solver
           969 MiB given to the printing process from OS
           593 MiB allocation reported by mallinfo(arena+hblkhd)
        255427 MiB available memory on the node where the printing process lives
------------------
     ethr =  5.41E-08,  avg # of iterations =  5.1

     total cpu time spent up to now is      657.6 secs

     total energy              =   -2785.12597057 Ry
     estimated scf accuracy    <       0.00036109 Ry

     iteration # 15     ecut=    80.00 Ry     beta= 0.10
     Davidson diagonalization with overlap

---- Real-time Memory Report at c_bands before calling an iterative solver
           969 MiB given to the printing process from OS
           593 MiB allocation reported by mallinfo(arena+hblkhd)
        266980 MiB available memory on the node where the printing process lives
------------------
     ethr =  5.41E-08,  avg # of iterations =  3.1

     total cpu time spent up to now is      699.6 secs

     total energy              =   -2785.12600472 Ry
     estimated scf accuracy    <       0.00026353 Ry

     iteration # 16     ecut=    80.00 Ry     beta= 0.10
     Davidson diagonalization with overlap

---- Real-time Memory Report at c_bands before calling an iterative solver
           969 MiB given to the printing process from OS
           593 MiB allocation reported by mallinfo(arena+hblkhd)
        254905 MiB available memory on the node where the printing process lives
------------------
     ethr =  5.41E-08,  avg # of iterations =  2.4

     total cpu time spent up to now is      740.6 secs

     total energy              =   -2785.12603508 Ry
     estimated scf accuracy    <       0.00001096 Ry

     iteration # 17     ecut=    80.00 Ry     beta= 0.10
     Davidson diagonalization with overlap

---- Real-time Memory Report at c_bands before calling an iterative solver
           969 MiB given to the printing process from OS
           593 MiB allocation reported by mallinfo(arena+hblkhd)
        268283 MiB available memory on the node where the printing process lives
------------------
     ethr =  4.85E-09,  avg # of iterations =  2.1

     total cpu time spent up to now is      781.5 secs

     total energy              =   -2785.12603682 Ry
     estimated scf accuracy    <       0.00000150 Ry

     iteration # 18     ecut=    80.00 Ry     beta= 0.10
     Davidson diagonalization with overlap

---- Real-time Memory Report at c_bands before calling an iterative solver
           969 MiB given to the printing process from OS
           593 MiB allocation reported by mallinfo(arena+hblkhd)
        254455 MiB available memory on the node where the printing process lives
------------------
     ethr =  6.64E-10,  avg # of iterations =  4.2

     total cpu time spent up to now is      825.4 secs

     total energy              =   -2785.12603684 Ry
     estimated scf accuracy    <       0.00000050 Ry

     iteration # 19     ecut=    80.00 Ry     beta= 0.10
     Davidson diagonalization with overlap

---- Real-time Memory Report at c_bands before calling an iterative solver
           969 MiB given to the printing process from OS
           593 MiB allocation reported by mallinfo(arena+hblkhd)
        265927 MiB available memory on the node where the printing process lives
------------------
     ethr =  2.21E-10,  avg # of iterations =  4.0

     total cpu time spent up to now is      869.0 secs

     total energy              =   -2785.12603683 Ry
     estimated scf accuracy    <       0.00000050 Ry

     iteration # 20     ecut=    80.00 Ry     beta= 0.10
     Davidson diagonalization with overlap

---- Real-time Memory Report at c_bands before calling an iterative solver
           969 MiB given to the printing process from OS
           593 MiB allocation reported by mallinfo(arena+hblkhd)
        254486 MiB available memory on the node where the printing process lives
------------------
     ethr =  2.21E-10,  avg # of iterations =  2.3

     total cpu time spent up to now is      910.5 secs

     total energy              =   -2785.12603697 Ry
     estimated scf accuracy    <       0.00000029 Ry

     iteration # 21     ecut=    80.00 Ry     beta= 0.10
     Davidson diagonalization with overlap

---- Real-time Memory Report at c_bands before calling an iterative solver
           969 MiB given to the printing process from OS
           593 MiB allocation reported by mallinfo(arena+hblkhd)
        265810 MiB available memory on the node where the printing process lives
------------------
     ethr =  1.27E-10,  avg # of iterations =  1.0

     total cpu time spent up to now is      945.8 secs

     total energy              =   -2785.12603695 Ry
     estimated scf accuracy    <       0.00000013 Ry

     iteration # 22     ecut=    80.00 Ry     beta= 0.10
     Davidson diagonalization with overlap

---- Real-time Memory Report at c_bands before calling an iterative solver
           969 MiB given to the printing process from OS
           593 MiB allocation reported by mallinfo(arena+hblkhd)
        259298 MiB available memory on the node where the printing process lives
------------------
     ethr =  5.66E-11,  avg # of iterations =  2.0

     total cpu time spent up to now is      986.9 secs

     End of self-consistent calculation

          k = 0.0000 0.0000 0.0000 ( 79443 PWs)   bands (ev):

   -75.1579 -75.1544 -75.1373 -75.1373 -75.1272 -75.1270 -75.1270 -75.1267
   -75.1267 -75.1239 -75.1239 -75.1233 -75.1233 -75.1220 -75.1220 -75.1218
   -75.1215 -75.1215 -75.1205 -75.1205 -75.1124 -75.1124 -46.2107 -46.2107
   -41.9227 -41.9216 -41.9192 -41.9176 -41.9158 -41.9153 -41.9034 -41.9033
   -41.8992 -41.8991 -41.8973 -41.8972 -41.8914 -41.8914 -41.8909 -41.8909
   -41.8906 -41.8903 -41.8895 -41.8895 -41.8887 -41.8887 -41.8884 -41.8884
   -41.8880 -41.8880 -41.8879 -41.8869 -41.8869 -41.8864 -41.8864 -41.8860
   -41.8860 -41.8856 -41.8856 -41.8856 -41.8856 -41.8854 -41.8854 -41.8853
   -41.8851 -41.8850 -41.8847 -41.8844 -41.8842 -41.8841 -41.8840 -41.8840
   -41.8837 -41.8837 -41.8835 -41.8832 -41.8831 -41.8827 -41.8826 -41.8825
   -41.8825 -41.8824 -41.8820 -41.8819 -41.8754 -41.8754 -41.8750 -41.8750
   -41.8734 -41.8734  -3.1156  -2.7998  -2.6550  -1.7808  -1.7269  -0.4934
    -0.4825  -0.2111  -0.1962  -0.1890  -0.1535  -0.0837   0.1814   0.5949
     0.7090   0.8271   0.8581   1.0148   1.0285   1.0574   1.2826   1.3187
     1.3922   1.8660   2.0395   2.2716   2.2852   2.3109   2.3163   2.4347
     2.4479   2.5323   2.6783   3.3000   3.3005   3.5213   3.5269   3.5539
     3.5832   3.6056   3.6329   3.7556   3.7774   3.8076   3.8136   3.8569

     occupation numbers 
     1.0000   1.0000   1.0000   1.0000   1.0000   1.0000   1.0000   1.0000
     1.0000   1.0000   1.0000   1.0000   1.0000   1.0000   1.0000   1.0000
     1.0000   1.0000   1.0000   1.0000   1.0000   1.0000   1.0000   1.0000
     1.0000   1.0000   1.0000   1.0000   1.0000   1.0000   1.0000   1.0000
     1.0000   1.0000   1.0000   1.0000   1.0000   1.0000   1.0000   1.0000
     1.0000   1.0000   1.0000   1.0000   1.0000   1.0000   1.0000   1.0000
     1.0000   1.0000   1.0000   1.0000   1.0000   1.0000   1.0000   1.0000
     1.0000   1.0000   1.0000   1.0000   1.0000   1.0000   1.0000   1.0000
     1.0000   1.0000   1.0000   1.0000   1.0000   1.0000   1.0000   1.0000
     1.0000   1.0000   1.0000   1.0000   1.0000   1.0000   1.0000   1.0000
     1.0000   1.0000   1.0000   1.0000   1.0000   1.0000   1.0000   1.0000
     1.0000   1.0000   1.0000   1.0000   1.0000   1.0000   1.0000   1.0000
     1.0000   1.0000   1.0000   1.0000   1.0000   1.0000   1.0000   1.0000
     1.0000   1.0000   1.0000   1.0000   1.0000   1.0000   0.9999   0.9996
     0.9953   0.0100   0.0000   0.0000   0.0000   0.0000   0.0000   0.0000
     0.0000   0.0000   0.0000   0.0000   0.0000   0.0000   0.0000   0.0000
     0.0000   0.0000   0.0000   0.0000   0.0000   0.0000   0.0000   0.0000

          k =-0.1179-0.0589 0.0589 ( 79458 PWs)   bands (ev):

   -75.1579 -75.1544 -75.1373 -75.1373 -75.1272 -75.1270 -75.1270 -75.1267
   -75.1267 -75.1239 -75.1239 -75.1233 -75.1233 -75.1220 -75.1220 -75.1218
   -75.1215 -75.1215 -75.1205 -75.1205 -75.1124 -75.1124 -46.2107 -46.2107
   -41.9227 -41.9216 -41.9192 -41.9176 -41.9158 -41.9153 -41.9034 -41.9033
   -41.8992 -41.8991 -41.8973 -41.8972 -41.8914 -41.8914 -41.8909 -41.8909
   -41.8906 -41.8903 -41.8895 -41.8895 -41.8887 -41.8887 -41.8884 -41.8884
   -41.8880 -41.8880 -41.8879 -41.8869 -41.8869 -41.8864 -41.8864 -41.8860
   -41.8860 -41.8856 -41.8856 -41.8856 -41.8856 -41.8854 -41.8854 -41.8853
   -41.8851 -41.8850 -41.8847 -41.8844 -41.8842 -41.8841 -41.8840 -41.8840
   -41.8837 -41.8837 -41.8835 -41.8832 -41.8831 -41.8827 -41.8826 -41.8825
   -41.8825 -41.8824 -41.8820 -41.8819 -41.8754 -41.8754 -41.8750 -41.8750
   -41.8734 -41.8734  -3.0899  -2.9223  -2.3391  -2.2957  -1.0676  -0.9997
    -0.4578  -0.4539  -0.3380  -0.2392   0.2158   0.2383   0.3143   0.3654
     0.6718   0.8496   0.9397   1.0044   1.0535   1.1580   1.4221   1.4321
     1.5379   1.6013   1.7429   1.7472   1.7569   1.9046   2.7508   2.8158
     2.9948   3.0173   3.3138   3.3168   3.3836   3.3929   3.4799   3.4871
     3.5189   3.5393   3.5539   3.5622   3.6542   3.6613   3.6943   3.7092

     occupation numbers 
     1.0000   1.0000   1.0000   1.0000   1.0000   1.0000   1.0000   1.0000
     1.0000   1.0000   1.0000   1.0000   1.0000   1.0000   1.0000   1.0000
     1.0000   1.0000   1.0000   1.0000   1.0000   1.0000   1.0000   1.0000
     1.0000   1.0000   1.0000   1.0000   1.0000   1.0000   1.0000   1.0000
     1.0000   1.0000   1.0000   1.0000   1.0000   1.0000   1.0000   1.0000
     1.0000   1.0000   1.0000   1.0000   1.0000   1.0000   1.0000   1.0000
     1.0000   1.0000   1.0000   1.0000   1.0000   1.0000   1.0000   1.0000
     1.0000   1.0000   1.0000   1.0000   1.0000   1.0000   1.0000   1.0000
     1.0000   1.0000   1.0000   1.0000   1.0000   1.0000   1.0000   1.0000
     1.0000   1.0000   1.0000   1.0000   1.0000   1.0000   1.0000   1.0000
     1.0000   1.0000   1.0000   1.0000   1.0000   1.0000   1.0000   1.0000
     1.0000   1.0000   1.0000   1.0000   1.0000   1.0000   1.0000   1.0000
     1.0000   1.0000   1.0000   1.0000   1.0000   1.0000   1.0000   1.0000
     1.0000   1.0000   1.0000   1.0000   1.0000   1.0000   0.9889   0.9855
     0.8605   0.6642   0.1472   0.1373   0.1164   0.0032   0.0000   0.0000
     0.0000   0.0000   0.0000   0.0000   0.0000   0.0000   0.0000   0.0000
     0.0000   0.0000   0.0000   0.0000   0.0000   0.0000   0.0000   0.0000

          k = 0.1768-0.0884 0.0884 ( 79488 PWs)   bands (ev):

   -75.1579 -75.1544 -75.1373 -75.1373 -75.1272 -75.1270 -75.1270 -75.1267
   -75.1267 -75.1239 -75.1239 -75.1233 -75.1233 -75.1220 -75.1220 -75.1218
   -75.1215 -75.1215 -75.1205 -75.1205 -75.1124 -75.1124 -46.2107 -46.2107
   -41.9227 -41.9216 -41.9190 -41.9177 -41.9159 -41.9153 -41.9034 -41.9033
   -41.8992 -41.8991 -41.8973 -41.8972 -41.8914 -41.8914 -41.8909 -41.8909
   -41.8906 -41.8902 -41.8895 -41.8894 -41.8887 -41.8887 -41.8884 -41.8884
   -41.8879 -41.8879 -41.8878 -41.8869 -41.8869 -41.8864 -41.8864 -41.8859
   -41.8859 -41.8858 -41.8858 -41.8856 -41.8856 -41.8854 -41.8852 -41.8852
   -41.8850 -41.8849 -41.8847 -41.8844 -41.8842 -41.8841 -41.8840 -41.8840
   -41.8838 -41.8836 -41.8835 -41.8834 -41.8834 -41.8827 -41.8827 -41.8825
   -41.8825 -41.8824 -41.8821 -41.8821 -41.8755 -41.8755 -41.8750 -41.8750
   -41.8734 -41.8734  -2.9385  -2.7133  -2.3712  -1.9182  -1.6045  -1.4084
    -1.2173  -1.0302  -0.6107  -0.3608   0.0653   0.5406   0.8054   0.8658
     0.9795   1.0608   1.1648   1.1880   1.3742   1.4234   1.4936   1.6955
     1.7353   1.8578   1.9297   2.1022   2.1481   2.1954   2.4238   2.4524
     2.6427   2.6465   2.7232   2.7599   2.8105   2.9465   2.9859   3.0864
     3.1984   3.4215   3.4497   3.5914   3.6073   3.8773   3.9613   4.2427

     occupation numbers 
     1.0000   1.0000   1.0000   1.0000   1.0000   1.0000   1.0000   1.0000
     1.0000   1.0000   1.0000   1.0000   1.0000   1.0000   1.0000   1.0000
     1.0000   1.0000   1.0000   1.0000   1.0000   1.0000   1.0000   1.0000
     1.0000   1.0000   1.0000   1.0000   1.0000   1.0000   1.0000   1.0000
     1.0000   1.0000   1.0000   1.0000   1.0000   1.0000   1.0000   1.0000
     1.0000   1.0000   1.0000   1.0000   1.0000   1.0000   1.0000   1.0000
     1.0000   1.0000   1.0000   1.0000   1.0000   1.0000   1.0000   1.0000
     1.0000   1.0000   1.0000   1.0000   1.0000   1.0000   1.0000   1.0000
     1.0000   1.0000   1.0000   1.0000   1.0000   1.0000   1.0000   1.0000
     1.0000   1.0000   1.0000   1.0000   1.0000   1.0000   1.0000   1.0000
     1.0000   1.0000   1.0000   1.0000   1.0000   1.0000   1.0000   1.0000
     1.0000   1.0000   1.0000   1.0000   1.0000   1.0000   1.0000   1.0000
     1.0000   1.0000   1.0000   1.0000   1.0000   1.0000   1.0000   1.0000
     1.0000   1.0000   1.0000   1.0000   0.9973   0.9885   0.9387   0.2894
     0.1662   0.0125   0.0014   0.0000   0.0000   0.0000   0.0000   0.0000
     0.0000   0.0000   0.0000   0.0000   0.0000   0.0000   0.0000   0.0000
     0.0000   0.0000   0.0000   0.0000   0.0000   0.0000   0.0000   0.0000

          k = 0.0589-0.1473 0.1473 ( 79488 PWs)   bands (ev):

   -75.1579 -75.1544 -75.1373 -75.1373 -75.1272 -75.1270 -75.1270 -75.1267
   -75.1267 -75.1239 -75.1239 -75.1233 -75.1233 -75.1220 -75.1220 -75.1218
   -75.1215 -75.1215 -75.1205 -75.1205 -75.1124 -75.1124 -46.2107 -46.2107
   -41.9227 -41.9216 -41.9190 -41.9177 -41.9159 -41.9153 -41.9034 -41.9033
   -41.8992 -41.8991 -41.8973 -41.8972 -41.8914 -41.8914 -41.8909 -41.8909
   -41.8906 -41.8902 -41.8895 -41.8894 -41.8887 -41.8887 -41.8884 -41.8884
   -41.8879 -41.8878 -41.8878 -41.8869 -41.8869 -41.8864 -41.8864 -41.8859
   -41.8859 -41.8858 -41.8858 -41.8856 -41.8856 -41.8854 -41.8852 -41.8852
   -41.8850 -41.8849 -41.8847 -41.8844 -41.8842 -41.8841 -41.8840 -41.8840
   -41.8838 -41.8836 -41.8835 -41.8834 -41.8834 -41.8827 -41.8827 -41.8825
   -41.8825 -41.8824 -41.8821 -41.8821 -41.8755 -41.8755 -41.8750 -41.8750
   -41.8734 -41.8734  -2.9393  -2.7097  -2.3805  -1.8965  -1.6177  -1.4124
    -1.2423  -1.0067  -0.5625  -0.4087   0.0613   0.5514   0.7914   0.8414
     0.9559   1.0854   1.1871   1.2615   1.3780   1.3885   1.5837   1.6281
     1.6870   1.7770   1.9304   2.1166   2.1661   2.2880   2.4119   2.4486
     2.5628   2.6237   2.7066   2.7902   2.8348   2.9689   2.9908   3.0725
     3.3147   3.3899   3.4348   3.5274   3.5974   3.8910   4.0717   4.1653

     occupation numbers 
     1.0000   1.0000   1.0000   1.0000   1.0000   1.0000   1.0000   1.0000
     1.0000   1.0000   1.0000   1.0000   1.0000   1.0000   1.0000   1.0000
     1.0000   1.0000   1.0000   1.0000   1.0000   1.0000   1.0000   1.0000
     1.0000   1.0000   1.0000   1.0000   1.0000   1.0000   1.0000   1.0000
     1.0000   1.0000   1.0000   1.0000   1.0000   1.0000   1.0000   1.0000
     1.0000   1.0000   1.0000   1.0000   1.0000   1.0000   1.0000   1.0000
     1.0000   1.0000   1.0000   1.0000   1.0000   1.0000   1.0000   1.0000
     1.0000   1.0000   1.0000   1.0000   1.0000   1.0000   1.0000   1.0000
     1.0000   1.0000   1.0000   1.0000   1.0000   1.0000   1.0000   1.0000
     1.0000   1.0000   1.0000   1.0000   1.0000   1.0000   1.0000   1.0000
     1.0000   1.0000   1.0000   1.0000   1.0000   1.0000   1.0000   1.0000
     1.0000   1.0000   1.0000   1.0000   1.0000   1.0000   1.0000   1.0000
     1.0000   1.0000   1.0000   1.0000   1.0000   1.0000   1.0000   1.0000
     1.0000   1.0000   1.0000   1.0000   0.9970   0.9958   0.7279   0.5578
     0.3202   0.0804   0.0014   0.0000   0.0000   0.0000   0.0000   0.0000
     0.0000   0.0000   0.0000   0.0000   0.0000   0.0000   0.0000   0.0000
     0.0000   0.0000   0.0000   0.0000   0.0000   0.0000   0.0000   0.0000

          k =-0.3536 0.1768-0.1768 ( 79520 PWs)   bands (ev):

   -75.1579 -75.1544 -75.1373 -75.1373 -75.1272 -75.1270 -75.1270 -75.1267
   -75.1267 -75.1239 -75.1239 -75.1233 -75.1233 -75.1220 -75.1220 -75.1218
   -75.1215 -75.1215 -75.1205 -75.1205 -75.1124 -75.1124 -46.2107 -46.2107
   -41.9227 -41.9216 -41.9188 -41.9179 -41.9160 -41.9153 -41.9034 -41.9033
   -41.8992 -41.8991 -41.8973 -41.8972 -41.8914 -41.8914 -41.8909 -41.8909
   -41.8906 -41.8901 -41.8894 -41.8894 -41.8887 -41.8887 -41.8884 -41.8884
   -41.8879 -41.8876 -41.8876 -41.8870 -41.8870 -41.8864 -41.8864 -41.8860
   -41.8860 -41.8858 -41.8857 -41.8856 -41.8856 -41.8854 -41.8852 -41.8851
   -41.8849 -41.8846 -41.8844 -41.8843 -41.8843 -41.8842 -41.8841 -41.8840
   -41.8838 -41.8838 -41.8838 -41.8836 -41.8835 -41.8827 -41.8827 -41.8825
   -41.8825 -41.8824 -41.8822 -41.8822 -41.8755 -41.8755 -41.8750 -41.8750
   -41.8734 -41.8734  -2.4350  -2.4320  -2.3355  -2.2130  -1.7534  -1.7514
    -1.5802  -1.4952  -0.4379  -0.4048  -0.3287  -0.2099   1.3107   1.3212
     1.3887   1.4664   1.5022   1.5204   1.6554   1.6667   1.6795   1.6801
     1.7494   1.8286   1.9264   1.9930   2.3197   2.3375   2.3408   2.4304
     2.4568   2.4952   2.8288   2.8373   2.9402   3.0287   3.3856   3.4292
     3.4530   3.4901   3.5135   3.5577   3.5786   3.6215   3.6506   3.6524

     occupation numbers 
     1.0000   1.0000   1.0000   1.0000   1.0000   1.0000   1.0000   1.0000
     1.0000   1.0000   1.0000   1.0000   1.0000   1.0000   1.0000   1.0000
     1.0000   1.0000   1.0000   1.0000   1.0000   1.0000   1.0000   1.0000
     1.0000   1.0000   1.0000   1.0000   1.0000   1.0000   1.0000   1.0000
     1.0000   1.0000   1.0000   1.0000   1.0000   1.0000   1.0000   1.0000
     1.0000   1.0000   1.0000   1.0000   1.0000   1.0000   1.0000   1.0000
     1.0000   1.0000   1.0000   1.0000   1.0000   1.0000   1.0000   1.0000
     1.0000   1.0000   1.0000   1.0000   1.0000   1.0000   1.0000   1.0000
     1.0000   1.0000   1.0000   1.0000   1.0000   1.0000   1.0000   1.0000
     1.0000   1.0000   1.0000   1.0000   1.0000   1.0000   1.0000   1.0000
     1.0000   1.0000   1.0000   1.0000   1.0000   1.0000   1.0000   1.0000
     1.0000   1.0000   1.0000   1.0000   1.0000   1.0000   1.0000   1.0000
     1.0000   1.0000   1.0000   1.0000   1.0000   1.0000   0.9997   0.9996
     0.9958   0.9661   0.9270   0.8970   0.4448   0.3992   0.3485   0.3462
     0.1324   0.0263   0.0016   0.0001   0.0000   0.0000   0.0000   0.0000
     0.0000   0.0000   0.0000   0.0000   0.0000   0.0000   0.0000   0.0000
     0.0000   0.0000   0.0000   0.0000   0.0000   0.0000   0.0000   0.0000

          k =-0.4714 0.1179-0.1179 ( 79560 PWs)   bands (ev):

   -75.1579 -75.1544 -75.1373 -75.1373 -75.1272 -75.1270 -75.1270 -75.1267
   -75.1267 -75.1239 -75.1239 -75.1233 -75.1233 -75.1220 -75.1220 -75.1218
   -75.1215 -75.1215 -75.1205 -75.1205 -75.1124 -75.1124 -46.2107 -46.2107
   -41.9227 -41.9216 -41.9188 -41.9179 -41.9160 -41.9153 -41.9034 -41.9033
   -41.8992 -41.8991 -41.8973 -41.8972 -41.8914 -41.8914 -41.8909 -41.8909
   -41.8906 -41.8901 -41.8894 -41.8894 -41.8887 -41.8887 -41.8884 -41.8884
   -41.8879 -41.8876 -41.8876 -41.8870 -41.8870 -41.8864 -41.8864 -41.8860
   -41.8860 -41.8858 -41.8857 -41.8856 -41.8856 -41.8854 -41.8852 -41.8851
   -41.8849 -41.8846 -41.8844 -41.8843 -41.8843 -41.8842 -41.8841 -41.8840
   -41.8838 -41.8838 -41.8838 -41.8836 -41.8835 -41.8827 -41.8827 -41.8825
   -41.8825 -41.8824 -41.8822 -41.8822 -41.8755 -41.8755 -41.8750 -41.8750
   -41.8734 -41.8734  -2.4801  -2.4412  -2.1750  -2.1707  -2.0447  -1.8897
    -1.1769  -1.1599  -0.9954  -0.9583   0.4585   0.5013   0.5186   0.6514
     1.2771   1.3244   1.5539   1.5892   1.6283   1.6566   1.7236   1.9240
     1.9308   1.9609   2.0086   2.0901   2.2569   2.3983   2.7795   2.8213
     2.8704   2.8735   2.9145   2.9156   2.9217   2.9263   2.9402   2.9596
     3.0022   3.0035   3.0902   3.1760   3.1968   3.4033   4.0452   4.0739

     occupation numbers 
     1.0000   1.0000   1.0000   1.0000   1.0000   1.0000   1.0000   1.0000
     1.0000   1.0000   1.0000   1.0000   1.0000   1.0000   1.0000   1.0000
     1.0000   1.0000   1.0000   1.0000   1.0000   1.0000   1.0000   1.0000
     1.0000   1.0000   1.0000   1.0000   1.0000   1.0000   1.0000   1.0000
     1.0000   1.0000   1.0000   1.0000   1.0000   1.0000   1.0000   1.0000
     1.0000   1.0000   1.0000   1.0000   1.0000   1.0000   1.0000   1.0000
     1.0000   1.0000   1.0000   1.0000   1.0000   1.0000   1.0000   1.0000
     1.0000   1.0000   1.0000   1.0000   1.0000   1.0000   1.0000   1.0000
     1.0000   1.0000   1.0000   1.0000   1.0000   1.0000   1.0000   1.0000
     1.0000   1.0000   1.0000   1.0000   1.0000   1.0000   1.0000   1.0000
     1.0000   1.0000   1.0000   1.0000   1.0000   1.0000   1.0000   1.0000
     1.0000   1.0000   1.0000   1.0000   1.0000   1.0000   1.0000   1.0000
     1.0000   1.0000   1.0000   1.0000   1.0000   1.0000   1.0000   1.0000
     0.9999   0.9995   0.8204   0.7086   0.5571   0.4400   0.1984   0.0017
     0.0013   0.0005   0.0001   0.0000   0.0000   0.0000   0.0000   0.0000
     0.0000   0.0000   0.0000   0.0000   0.0000   0.0000   0.0000   0.0000
     0.0000   0.0000   0.0000   0.0000   0.0000   0.0000   0.0000   0.0000

          k =-0.0000 0.1768 0.1768 ( 79429 PWs)   bands (ev):

   -75.1579 -75.1544 -75.1373 -75.1373 -75.1272 -75.1270 -75.1270 -75.1267
   -75.1267 -75.1239 -75.1239 -75.1233 -75.1233 -75.1220 -75.1220 -75.1218
   -75.1215 -75.1215 -75.1205 -75.1205 -75.1124 -75.1124 -46.2107 -46.2107
   -41.9227 -41.9216 -41.9192 -41.9176 -41.9158 -41.9153 -41.9034 -41.9033
   -41.8992 -41.8991 -41.8973 -41.8972 -41.8914 -41.8914 -41.8909 -41.8909
   -41.8906 -41.8903 -41.8895 -41.8895 -41.8887 -41.8887 -41.8885 -41.8885
   -41.8880 -41.8880 -41.8879 -41.8869 -41.8869 -41.8864 -41.8864 -41.8860
   -41.8860 -41.8857 -41.8857 -41.8857 -41.8856 -41.8856 -41.8854 -41.8850
   -41.8850 -41.8850 -41.8848 -41.8845 -41.8843 -41.8841 -41.8841 -41.8837
   -41.8836 -41.8836 -41.8835 -41.8831 -41.8831 -41.8830 -41.8829 -41.8825
   -41.8823 -41.8822 -41.8820 -41.8819 -41.8754 -41.8754 -41.8750 -41.8750
   -41.8734 -41.8734  -2.8676  -2.5520  -2.4181  -1.5434  -1.4872  -0.8861
    -0.5858  -0.4596  -0.2405  -0.2375   0.0279   0.0415   0.0546   0.0809
     0.1861   0.2770   0.4412   0.6216   0.9419   1.1312   1.2171   1.2689
     1.7616   1.7622   1.9816   2.0061   2.0354   2.0805   2.1689   2.3004
     2.4079   2.5748   2.6854   2.7036   2.7387   2.7712   2.9549   3.0199
     3.1468   3.1671   3.2149   3.3816   3.5583   4.3002   4.3146   4.3250

     occupation numbers 
     1.0000   1.0000   1.0000   1.0000   1.0000   1.0000   1.0000   1.0000
     1.0000   1.0000   1.0000   1.0000   1.0000   1.0000   1.0000   1.0000
     1.0000   1.0000   1.0000   1.0000   1.0000   1.0000   1.0000   1.0000
     1.0000   1.0000   1.0000   1.0000   1.0000   1.0000   1.0000   1.0000
     1.0000   1.0000   1.0000   1.0000   1.0000   1.0000   1.0000   1.0000
     1.0000   1.0000   1.0000   1.0000   1.0000   1.0000   1.0000   1.0000
     1.0000   1.0000   1.0000   1.0000   1.0000   1.0000   1.0000   1.0000
     1.0000   1.0000   1.0000   1.0000   1.0000   1.0000   1.0000   1.0000
     1.0000   1.0000   1.0000   1.0000   1.0000   1.0000   1.0000   1.0000
     1.0000   1.0000   1.0000   1.0000   1.0000   1.0000   1.0000   1.0000
     1.0000   1.0000   1.0000   1.0000   1.0000   1.0000   1.0000   1.0000
     1.0000   1.0000   1.0000   1.0000   1.0000   1.0000   1.0000   1.0000
     1.0000   1.0000   1.0000   1.0000   1.0000   1.0000   1.0000   1.0000
     1.0000   1.0000   1.0000   1.0000   1.0000   1.0000   1.0000   0.9999
     0.1070   0.1059   0.0002   0.0001   0.0000   0.0000   0.0000   0.0000
     0.0000   0.0000   0.0000   0.0000   0.0000   0.0000   0.0000   0.0000
     0.0000   0.0000   0.0000   0.0000   0.0000   0.0000   0.0000   0.0000

          k =-0.1179 0.1179 0.2357 ( 79374 PWs)   bands (ev):

   -75.1579 -75.1544 -75.1373 -75.1373 -75.1272 -75.1270 -75.1270 -75.1267
   -75.1267 -75.1239 -75.1239 -75.1233 -75.1233 -75.1220 -75.1220 -75.1218
   -75.1215 -75.1215 -75.1205 -75.1205 -75.1124 -75.1124 -46.2107 -46.2107
   -41.9227 -41.9216 -41.9192 -41.9176 -41.9158 -41.9153 -41.9034 -41.9033
   -41.8992 -41.8991 -41.8973 -41.8972 -41.8914 -41.8914 -41.8909 -41.8909
   -41.8906 -41.8903 -41.8895 -41.8895 -41.8887 -41.8887 -41.8885 -41.8885
   -41.8880 -41.8880 -41.8879 -41.8869 -41.8869 -41.8864 -41.8864 -41.8860
   -41.8860 -41.8857 -41.8857 -41.8856 -41.8856 -41.8856 -41.8854 -41.8850
   -41.8850 -41.8850 -41.8848 -41.8845 -41.8843 -41.8841 -41.8841 -41.8837
   -41.8836 -41.8836 -41.8835 -41.8831 -41.8831 -41.8830 -41.8829 -41.8825
   -41.8823 -41.8822 -41.8820 -41.8819 -41.8754 -41.8754 -41.8750 -41.8750
   -41.8734 -41.8734  -2.8406  -2.6796  -2.0943  -2.0602  -0.8697  -0.8347
    -0.7583  -0.6948  -0.2159  -0.2138  -0.1773  -0.1637  -0.0029   0.0395
     0.4597   0.4639   0.5931   0.6585   0.9437   1.2144   1.3176   1.3801
     1.6768   1.6849   1.8166   1.8453   1.9152   1.9721   1.9953   2.0353
     2.4073   2.4829   2.6248   2.6327   3.0462   3.1144   3.1969   3.2298
     3.5560   3.5713   3.5977   3.6347   3.7952   3.8018   3.8569   3.8629

     occupation numbers 
     1.0000   1.0000   1.0000   1.0000   1.0000   1.0000   1.0000   1.0000
     1.0000   1.0000   1.0000   1.0000   1.0000   1.0000   1.0000   1.0000
     1.0000   1.0000   1.0000   1.0000   1.0000   1.0000   1.0000   1.0000
     1.0000   1.0000   1.0000   1.0000   1.0000   1.0000   1.0000   1.0000
     1.0000   1.0000   1.0000   1.0000   1.0000   1.0000   1.0000   1.0000
     1.0000   1.0000   1.0000   1.0000   1.0000   1.0000   1.0000   1.0000
     1.0000   1.0000   1.0000   1.0000   1.0000   1.0000   1.0000   1.0000
     1.0000   1.0000   1.0000   1.0000   1.0000   1.0000   1.0000   1.0000
     1.0000   1.0000   1.0000   1.0000   1.0000   1.0000   1.0000   1.0000
     1.0000   1.0000   1.0000   1.0000   1.0000   1.0000   1.0000   1.0000
     1.0000   1.0000   1.0000   1.0000   1.0000   1.0000   1.0000   1.0000
     1.0000   1.0000   1.0000   1.0000   1.0000   1.0000   1.0000   1.0000
     1.0000   1.0000   1.0000   1.0000   1.0000   1.0000   1.0000   1.0000
     1.0000   1.0000   1.0000   1.0000   1.0000   1.0000   0.9996   0.9968
     0.3591   0.3282   0.0349   0.0173   0.0023   0.0003   0.0001   0.0000
     0.0000   0.0000   0.0000   0.0000   0.0000   0.0000   0.0000   0.0000
     0.0000   0.0000   0.0000   0.0000   0.0000   0.0000   0.0000   0.0000

          k = 0.1768 0.0884 0.2652 ( 79407 PWs)   bands (ev):

   -75.1579 -75.1544 -75.1373 -75.1373 -75.1272 -75.1270 -75.1270 -75.1267
   -75.1267 -75.1239 -75.1239 -75.1233 -75.1233 -75.1220 -75.1220 -75.1218
   -75.1215 -75.1215 -75.1205 -75.1205 -75.1124 -75.1124 -46.2107 -46.2107
   -41.9227 -41.9216 -41.9190 -41.9177 -41.9159 -41.9153 -41.9034 -41.9033
   -41.8992 -41.8991 -41.8973 -41.8972 -41.8914 -41.8914 -41.8909 -41.8909
   -41.8906 -41.8902 -41.8895 -41.8895 -41.8887 -41.8887 -41.8884 -41.8884
   -41.8879 -41.8878 -41.8878 -41.8869 -41.8869 -41.8864 -41.8864 -41.8859
   -41.8859 -41.8858 -41.8858 -41.8857 -41.8857 -41.8856 -41.8852 -41.8850
   -41.8849 -41.8849 -41.8847 -41.8845 -41.8843 -41.8842 -41.8841 -41.8838
   -41.8836 -41.8836 -41.8835 -41.8834 -41.8833 -41.8831 -41.8829 -41.8825
   -41.8823 -41.8823 -41.8821 -41.8820 -41.8755 -41.8755 -41.8750 -41.8750
   -41.8734 -41.8734  -2.6903  -2.4690  -2.1309  -1.6752  -1.3623  -1.1684
    -0.9850  -0.8284  -0.7033  -0.4670  -0.3750  -0.1737  -0.1153   0.2804
     0.3524   0.6030   0.7147   0.8162   0.9686   1.0804   1.1947   1.3227
     1.5174   1.6666   1.8113   1.8463   2.0650   2.1386   2.2558   2.3973
     2.7507   2.8983   3.0778   3.1728   3.1863   3.2332   3.2515   3.4106
     3.4378   3.6673   3.7569   3.7911   3.9522   4.0419   4.1767   4.1927

     occupation numbers 
     1.0000   1.0000   1.0000   1.0000   1.0000   1.0000   1.0000   1.0000
     1.0000   1.0000   1.0000   1.0000   1.0000   1.0000   1.0000   1.0000
     1.0000   1.0000   1.0000   1.0000   1.0000   1.0000   1.0000   1.0000
     1.0000   1.0000   1.0000   1.0000   1.0000   1.0000   1.0000   1.0000
     1.0000   1.0000   1.0000   1.0000   1.0000   1.0000   1.0000   1.0000
     1.0000   1.0000   1.0000   1.0000   1.0000   1.0000   1.0000   1.0000
     1.0000   1.0000   1.0000   1.0000   1.0000   1.0000   1.0000   1.0000
     1.0000   1.0000   1.0000   1.0000   1.0000   1.0000   1.0000   1.0000
     1.0000   1.0000   1.0000   1.0000   1.0000   1.0000   1.0000   1.0000
     1.0000   1.0000   1.0000   1.0000   1.0000   1.0000   1.0000   1.0000
     1.0000   1.0000   1.0000   1.0000   1.0000   1.0000   1.0000   1.0000
     1.0000   1.0000   1.0000   1.0000   1.0000   1.0000   1.0000   1.0000
     1.0000   1.0000   1.0000   1.0000   1.0000   1.0000   1.0000   1.0000
     1.0000   1.0000   1.0000   1.0000   1.0000   1.0000   1.0000   0.9996
     0.9026   0.3995   0.0393   0.0169   0.0000   0.0000   0.0000   0.0000
     0.0000   0.0000   0.0000   0.0000   0.0000   0.0000   0.0000   0.0000
     0.0000   0.0000   0.0000   0.0000   0.0000   0.0000   0.0000   0.0000

          k = 0.0589 0.0295 0.3241 ( 79407 PWs)   bands (ev):

   -75.1579 -75.1544 -75.1373 -75.1373 -75.1272 -75.1270 -75.1270 -75.1267
   -75.1267 -75.1239 -75.1239 -75.1233 -75.1233 -75.1220 -75.1220 -75.1218
   -75.1215 -75.1215 -75.1205 -75.1205 -75.1124 -75.1124 -46.2107 -46.2107
   -41.9227 -41.9216 -41.9190 -41.9177 -41.9159 -41.9153 -41.9034 -41.9033
   -41.8992 -41.8991 -41.8973 -41.8972 -41.8914 -41.8914 -41.8909 -41.8909
   -41.8906 -41.8902 -41.8895 -41.8895 -41.8887 -41.8887 -41.8884 -41.8884
   -41.8879 -41.8878 -41.8878 -41.8869 -41.8869 -41.8864 -41.8864 -41.8859
   -41.8859 -41.8858 -41.8858 -41.8857 -41.8857 -41.8856 -41.8852 -41.8850
   -41.8849 -41.8849 -41.8847 -41.8845 -41.8843 -41.8842 -41.8841 -41.8838
   -41.8836 -41.8836 -41.8835 -41.8834 -41.8833 -41.8831 -41.8829 -41.8825
   -41.8823 -41.8823 -41.8821 -41.8820 -41.8755 -41.8755 -41.8750 -41.8750
   -41.8734 -41.8734  -2.6910  -2.4657  -2.1392  -1.6568  -1.3725  -1.1730
    -1.0102  -0.7925  -0.7009  -0.5118  -0.3295  -0.1915  -0.0877   0.2564
     0.3587   0.5803   0.7487   0.7880   0.9219   1.0914   1.1953   1.4114
     1.5409   1.6831   1.7982   1.8341   1.9968   2.0951   2.3070   2.3576
     2.7826   2.9070   3.0538   3.1821   3.1894   3.2314   3.2793   3.3951
     3.5321   3.6360   3.7234   3.8053   3.8854   4.0453   4.2049   4.2797

     occupation numbers 
     1.0000   1.0000   1.0000   1.0000   1.0000   1.0000   1.0000   1.0000
     1.0000   1.0000   1.0000   1.0000   1.0000   1.0000   1.0000   1.0000
     1.0000   1.0000   1.0000   1.0000   1.0000   1.0000   1.0000   1.0000
     1.0000   1.0000   1.0000   1.0000   1.0000   1.0000   1.0000   1.0000
     1.0000   1.0000   1.0000   1.0000   1.0000   1.0000   1.0000   1.0000
     1.0000   1.0000   1.0000   1.0000   1.0000   1.0000   1.0000   1.0000
     1.0000   1.0000   1.0000   1.0000   1.0000   1.0000   1.0000   1.0000
     1.0000   1.0000   1.0000   1.0000   1.0000   1.0000   1.0000   1.0000
     1.0000   1.0000   1.0000   1.0000   1.0000   1.0000   1.0000   1.0000
     1.0000   1.0000   1.0000   1.0000   1.0000   1.0000   1.0000   1.0000
     1.0000   1.0000   1.0000   1.0000   1.0000   1.0000   1.0000   1.0000
     1.0000   1.0000   1.0000   1.0000   1.0000   1.0000   1.0000   1.0000
     1.0000   1.0000   1.0000   1.0000   1.0000   1.0000   1.0000   1.0000
     1.0000   1.0000   1.0000   1.0000   1.0000   1.0000   1.0000   0.9917
     0.8535   0.3350   0.0524   0.0230   0.0001   0.0000   0.0000   0.0000
     0.0000   0.0000   0.0000   0.0000   0.0000   0.0000   0.0000   0.0000
     0.0000   0.0000   0.0000   0.0000   0.0000   0.0000   0.0000   0.0000

          k =-0.3536 0.3536 0.0000 ( 79440 PWs)   bands (ev):

   -75.1579 -75.1544 -75.1373 -75.1373 -75.1272 -75.1270 -75.1270 -75.1267
   -75.1267 -75.1239 -75.1239 -75.1233 -75.1233 -75.1220 -75.1220 -75.1218
   -75.1215 -75.1215 -75.1205 -75.1205 -75.1124 -75.1124 -46.2107 -46.2107
   -41.9227 -41.9216 -41.9188 -41.9179 -41.9160 -41.9153 -41.9034 -41.9033
   -41.8992 -41.8991 -41.8973 -41.8972 -41.8914 -41.8914 -41.8909 -41.8909
   -41.8906 -41.8901 -41.8894 -41.8894 -41.8887 -41.8887 -41.8884 -41.8884
   -41.8879 -41.8876 -41.8876 -41.8869 -41.8869 -41.8864 -41.8864 -41.8860
   -41.8860 -41.8858 -41.8857 -41.8857 -41.8857 -41.8855 -41.8851 -41.8850
   -41.8850 -41.8846 -41.8845 -41.8843 -41.8843 -41.8842 -41.8842 -41.8838
   -41.8838 -41.8838 -41.8836 -41.8836 -41.8835 -41.8831 -41.8829 -41.8825
   -41.8823 -41.8823 -41.8822 -41.8822 -41.8755 -41.8755 -41.8750 -41.8750
   -41.8734 -41.8734  -2.1866  -2.1835  -2.0902  -1.9734  -1.5061  -1.5047
    -1.3464  -1.2835  -0.2189  -0.2174  -0.1962  -0.1707  -0.1640  -0.1593
     0.0419   0.0890   0.4512   0.4584   0.6795   0.8201   1.5605   1.5629
     1.8420   1.9360   1.9628   1.9759   2.0618   2.0846   3.0515   3.0557
     3.1690   3.2266   3.5753   3.5844   3.6445   3.6487   3.7056   3.7385
     3.8425   3.8553   3.8590   3.8975   3.9233   3.9258   4.2063   4.2612

     occupation numbers 
     1.0000   1.0000   1.0000   1.0000   1.0000   1.0000   1.0000   1.0000
     1.0000   1.0000   1.0000   1.0000   1.0000   1.0000   1.0000   1.0000
     1.0000   1.0000   1.0000   1.0000   1.0000   1.0000   1.0000   1.0000
     1.0000   1.0000   1.0000   1.0000   1.0000   1.0000   1.0000   1.0000
     1.0000   1.0000   1.0000   1.0000   1.0000   1.0000   1.0000   1.0000
     1.0000   1.0000   1.0000   1.0000   1.0000   1.0000   1.0000   1.0000
     1.0000   1.0000   1.0000   1.0000   1.0000   1.0000   1.0000   1.0000
     1.0000   1.0000   1.0000   1.0000   1.0000   1.0000   1.0000   1.0000
     1.0000   1.0000   1.0000   1.0000   1.0000   1.0000   1.0000   1.0000
     1.0000   1.0000   1.0000   1.0000   1.0000   1.0000   1.0000   1.0000
     1.0000   1.0000   1.0000   1.0000   1.0000   1.0000   1.0000   1.0000
     1.0000   1.0000   1.0000   1.0000   1.0000   1.0000   1.0000   1.0000
     1.0000   1.0000   1.0000   1.0000   1.0000   1.0000   1.0000   1.0000
     1.0000   1.0000   1.0000   1.0000   1.0000   1.0000   0.8019   0.7947
     0.0188   0.0011   0.0004   0.0003   0.0000   0.0000   0.0000   0.0000
     0.0000   0.0000   0.0000   0.0000   0.0000   0.0000   0.0000   0.0000
     0.0000   0.0000   0.0000   0.0000   0.0000   0.0000   0.0000   0.0000

          k =-0.4714 0.2946 0.0589 ( 79462 PWs)   bands (ev):

   -75.1579 -75.1544 -75.1373 -75.1373 -75.1272 -75.1270 -75.1270 -75.1267
   -75.1267 -75.1239 -75.1239 -75.1233 -75.1233 -75.1220 -75.1220 -75.1218
   -75.1215 -75.1215 -75.1205 -75.1205 -75.1124 -75.1124 -46.2107 -46.2107
   -41.9227 -41.9216 -41.9188 -41.9179 -41.9160 -41.9153 -41.9034 -41.9033
   -41.8992 -41.8991 -41.8973 -41.8972 -41.8914 -41.8914 -41.8909 -41.8909
   -41.8906 -41.8901 -41.8894 -41.8894 -41.8887 -41.8887 -41.8884 -41.8884
   -41.8879 -41.8876 -41.8876 -41.8869 -41.8869 -41.8864 -41.8864 -41.8860
   -41.8860 -41.8858 -41.8857 -41.8857 -41.8857 -41.8855 -41.8851 -41.8850
   -41.8850 -41.8846 -41.8845 -41.8843 -41.8843 -41.8842 -41.8842 -41.8838
   -41.8838 -41.8838 -41.8836 -41.8836 -41.8835 -41.8831 -41.8829 -41.8825
   -41.8823 -41.8823 -41.8822 -41.8822 -41.8755 -41.8755 -41.8750 -41.8750
   -41.8734 -41.8734  -2.2324  -2.1944  -1.9272  -1.9225  -1.8034  -1.6636
    -0.9313  -0.9149  -0.7945  -0.7436  -0.2564  -0.2102   0.0372   0.0475
     0.1668   0.3628   0.6938   0.7326   0.7780   0.8344   1.0182   1.0238
     1.3607   1.4492   2.6618   2.6959   2.7283   2.7749   2.8803   2.9840
     3.0511   3.0748   3.1675   3.1855   3.3319   3.3376   3.4191   3.5101
     3.6622   3.6866   3.9027   3.9581   4.0737   4.1345   4.2960   4.3164

     occupation numbers 
     1.0000   1.0000   1.0000   1.0000   1.0000   1.0000   1.0000   1.0000
     1.0000   1.0000   1.0000   1.0000   1.0000   1.0000   1.0000   1.0000
     1.0000   1.0000   1.0000   1.0000   1.0000   1.0000   1.0000   1.0000
     1.0000   1.0000   1.0000   1.0000   1.0000   1.0000   1.0000   1.0000
     1.0000   1.0000   1.0000   1.0000   1.0000   1.0000   1.0000   1.0000
     1.0000   1.0000   1.0000   1.0000   1.0000   1.0000   1.0000   1.0000
     1.0000   1.0000   1.0000   1.0000   1.0000   1.0000   1.0000   1.0000
     1.0000   1.0000   1.0000   1.0000   1.0000   1.0000   1.0000   1.0000
     1.0000   1.0000   1.0000   1.0000   1.0000   1.0000   1.0000   1.0000
     1.0000   1.0000   1.0000   1.0000   1.0000   1.0000   1.0000   1.0000
     1.0000   1.0000   1.0000   1.0000   1.0000   1.0000   1.0000   1.0000
     1.0000   1.0000   1.0000   1.0000   1.0000   1.0000   1.0000   1.0000
     1.0000   1.0000   1.0000   1.0000   1.0000   1.0000   1.0000   1.0000
     1.0000   1.0000   1.0000   1.0000   1.0000   1.0000   1.0000   1.0000
     0.9983   0.9775   0.0000   0.0000   0.0000   0.0000   0.0000   0.0000
     0.0000   0.0000   0.0000   0.0000   0.0000   0.0000   0.0000   0.0000
     0.0000   0.0000   0.0000   0.0000   0.0000   0.0000   0.0000   0.0000

          k = 0.0000-0.3536-0.3536 ( 79460 PWs)   bands (ev):

   -75.1579 -75.1544 -75.1373 -75.1373 -75.1272 -75.1270 -75.1270 -75.1267
   -75.1267 -75.1239 -75.1239 -75.1233 -75.1233 -75.1220 -75.1220 -75.1218
   -75.1215 -75.1215 -75.1205 -75.1205 -75.1124 -75.1124 -46.2107 -46.2107
   -41.9227 -41.9216 -41.9192 -41.9176 -41.9158 -41.9153 -41.9033 -41.9033
   -41.8992 -41.8991 -41.8973 -41.8972 -41.8914 -41.8914 -41.8908 -41.8908
   -41.8906 -41.8903 -41.8895 -41.8895 -41.8887 -41.8887 -41.8885 -41.8885
   -41.8880 -41.8879 -41.8879 -41.8868 -41.8868 -41.8864 -41.8864 -41.8860
   -41.8860 -41.8858 -41.8857 -41.8857 -41.8856 -41.8856 -41.8854 -41.8849
   -41.8849 -41.8848 -41.8848 -41.8847 -41.8844 -41.8842 -41.8840 -41.8837
   -41.8836 -41.8835 -41.8834 -41.8834 -41.8833 -41.8830 -41.8830 -41.8825
   -41.8823 -41.8821 -41.8820 -41.8819 -41.8754 -41.8754 -41.8750 -41.8750
   -41.8734 -41.8734  -2.1710  -2.1000  -1.8462  -1.8306  -1.7776  -1.4941
    -0.8623  -0.8457  -0.6988  -0.6601   0.4318   0.4375   0.4726   0.4980
     0.5781   0.5972   0.5978   0.7670   0.7779   0.7783   0.9605   0.9842
     1.0397   1.0691   1.1306   1.4722   1.5896   1.7902   1.7981   1.8691
     1.9254   2.0371   2.0759   2.1868   3.0585   3.0602   3.1578   3.2317
     3.2351   3.2482   3.5044   3.5165   3.5841   3.5913   3.6968   3.7001

     occupation numbers 
     1.0000   1.0000   1.0000   1.0000   1.0000   1.0000   1.0000   1.0000
     1.0000   1.0000   1.0000   1.0000   1.0000   1.0000   1.0000   1.0000
     1.0000   1.0000   1.0000   1.0000   1.0000   1.0000   1.0000   1.0000
     1.0000   1.0000   1.0000   1.0000   1.0000   1.0000   1.0000   1.0000
     1.0000   1.0000   1.0000   1.0000   1.0000   1.0000   1.0000   1.0000
     1.0000   1.0000   1.0000   1.0000   1.0000   1.0000   1.0000   1.0000
     1.0000   1.0000   1.0000   1.0000   1.0000   1.0000   1.0000   1.0000
     1.0000   1.0000   1.0000   1.0000   1.0000   1.0000   1.0000   1.0000
     1.0000   1.0000   1.0000   1.0000   1.0000   1.0000   1.0000   1.0000
     1.0000   1.0000   1.0000   1.0000   1.0000   1.0000   1.0000   1.0000
     1.0000   1.0000   1.0000   1.0000   1.0000   1.0000   1.0000   1.0000
     1.0000   1.0000   1.0000   1.0000   1.0000   1.0000   1.0000   1.0000
     1.0000   1.0000   1.0000   1.0000   1.0000   1.0000   1.0000   1.0000
     1.0000   1.0000   1.0000   1.0000   1.0000   1.0000   1.0000   1.0000
     1.0000   1.0000   1.0000   0.9613   0.7072   0.0618   0.0525   0.0091
     0.0016   0.0000   0.0000   0.0000   0.0000   0.0000   0.0000   0.0000
     0.0000   0.0000   0.0000   0.0000   0.0000   0.0000   0.0000   0.0000

          k =-0.1179-0.4125-0.2946 ( 79348 PWs)   bands (ev):

   -75.1579 -75.1544 -75.1373 -75.1373 -75.1272 -75.1270 -75.1270 -75.1267
   -75.1267 -75.1239 -75.1239 -75.1233 -75.1233 -75.1220 -75.1220 -75.1218
   -75.1215 -75.1215 -75.1205 -75.1205 -75.1124 -75.1124 -46.2107 -46.2107
   -41.9227 -41.9216 -41.9192 -41.9176 -41.9158 -41.9153 -41.9033 -41.9033
   -41.8992 -41.8991 -41.8973 -41.8972 -41.8914 -41.8914 -41.8908 -41.8908
   -41.8906 -41.8903 -41.8895 -41.8895 -41.8887 -41.8887 -41.8885 -41.8885
   -41.8880 -41.8879 -41.8879 -41.8868 -41.8868 -41.8864 -41.8864 -41.8860
   -41.8860 -41.8858 -41.8857 -41.8857 -41.8856 -41.8856 -41.8854 -41.8849
   -41.8849 -41.8848 -41.8848 -41.8847 -41.8844 -41.8842 -41.8840 -41.8837
   -41.8836 -41.8835 -41.8834 -41.8834 -41.8833 -41.8830 -41.8830 -41.8825
   -41.8823 -41.8821 -41.8820 -41.8819 -41.8754 -41.8754 -41.8750 -41.8750
   -41.8734 -41.8734  -2.1027  -2.0894  -2.0717  -1.8372  -1.4276  -1.4263
    -1.2900  -1.1386  -0.1328  -0.1214  -0.0536   0.0445   0.4835   0.4845
     0.4866   0.5117   0.5302   0.5350   0.7112   0.9901   1.1599   1.1801
     1.2430   1.2489   1.2714   1.3834   1.5225   1.6238   1.8600   1.8779
     1.9902   2.2438   2.4842   2.4973   2.5037   2.5130   2.5643   2.6223
     2.9321   2.9371   4.3631   4.3693   4.4008   4.4017   4.4238   4.4253

     occupation numbers 
     1.0000   1.0000   1.0000   1.0000   1.0000   1.0000   1.0000   1.0000
     1.0000   1.0000   1.0000   1.0000   1.0000   1.0000   1.0000   1.0000
     1.0000   1.0000   1.0000   1.0000   1.0000   1.0000   1.0000   1.0000
     1.0000   1.0000   1.0000   1.0000   1.0000   1.0000   1.0000   1.0000
     1.0000   1.0000   1.0000   1.0000   1.0000   1.0000   1.0000   1.0000
     1.0000   1.0000   1.0000   1.0000   1.0000   1.0000   1.0000   1.0000
     1.0000   1.0000   1.0000   1.0000   1.0000   1.0000   1.0000   1.0000
     1.0000   1.0000   1.0000   1.0000   1.0000   1.0000   1.0000   1.0000
     1.0000   1.0000   1.0000   1.0000   1.0000   1.0000   1.0000   1.0000
     1.0000   1.0000   1.0000   1.0000   1.0000   1.0000   1.0000   1.0000
     1.0000   1.0000   1.0000   1.0000   1.0000   1.0000   1.0000   1.0000
     1.0000   1.0000   1.0000   1.0000   1.0000   1.0000   1.0000   1.0000
     1.0000   1.0000   1.0000   1.0000   1.0000   1.0000   1.0000   1.0000
     1.0000   1.0000   1.0000   1.0000   1.0000   1.0000   1.0000   1.0000
     1.0000   1.0000   0.9999   0.9964   0.8931   0.5752   0.0117   0.0071
     0.0001   0.0000   0.0000   0.0000   0.0000   0.0000   0.0000   0.0000
     0.0000   0.0000   0.0000   0.0000   0.0000   0.0000   0.0000   0.0000

          k = 0.1768-0.4419-0.2652 ( 79382 PWs)   bands (ev):

   -75.1579 -75.1544 -75.1373 -75.1373 -75.1272 -75.1270 -75.1270 -75.1267
   -75.1267 -75.1239 -75.1239 -75.1233 -75.1233 -75.1220 -75.1220 -75.1218
   -75.1215 -75.1215 -75.1205 -75.1205 -75.1124 -75.1124 -46.2107 -46.2107
   -41.9227 -41.9216 -41.9190 -41.9177 -41.9159 -41.9153 -41.9033 -41.9033
   -41.8992 -41.8991 -41.8973 -41.8972 -41.8914 -41.8914 -41.8908 -41.8908
   -41.8906 -41.8902 -41.8895 -41.8895 -41.8887 -41.8887 -41.8885 -41.8885
   -41.8879 -41.8878 -41.8878 -41.8868 -41.8868 -41.8864 -41.8864 -41.8859
   -41.8859 -41.8858 -41.8858 -41.8857 -41.8857 -41.8857 -41.8852 -41.8849
   -41.8849 -41.8847 -41.8846 -41.8846 -41.8844 -41.8842 -41.8841 -41.8837
   -41.8836 -41.8835 -41.8835 -41.8834 -41.8834 -41.8831 -41.8831 -41.8825
   -41.8823 -41.8821 -41.8821 -41.8820 -41.8755 -41.8755 -41.8750 -41.8750
   -41.8734 -41.8734  -1.9855  -1.9303  -1.8171  -1.6564  -1.4885  -1.2638
    -0.9973  -0.8716  -0.6687  -0.5948  -0.5075  -0.3747  -0.3432  -0.1742
    -0.1442   0.1348   0.2969   0.3954   0.4498   0.9354   0.9543   1.2210
     1.4991   1.6526   1.6703   1.9218   1.9667   2.0893   2.1787   2.3045
     2.4442   2.6056   2.6262   2.8006   2.8668   2.9022   2.9791   3.2905
     3.5489   3.6905   3.8703   3.8803   4.0143   4.1182   4.3075   4.5302

     occupation numbers 
     1.0000   1.0000   1.0000   1.0000   1.0000   1.0000   1.0000   1.0000
     1.0000   1.0000   1.0000   1.0000   1.0000   1.0000   1.0000   1.0000
     1.0000   1.0000   1.0000   1.0000   1.0000   1.0000   1.0000   1.0000
     1.0000   1.0000   1.0000   1.0000   1.0000   1.0000   1.0000   1.0000
     1.0000   1.0000   1.0000   1.0000   1.0000   1.0000   1.0000   1.0000
     1.0000   1.0000   1.0000   1.0000   1.0000   1.0000   1.0000   1.0000
     1.0000   1.0000   1.0000   1.0000   1.0000   1.0000   1.0000   1.0000
     1.0000   1.0000   1.0000   1.0000   1.0000   1.0000   1.0000   1.0000
     1.0000   1.0000   1.0000   1.0000   1.0000   1.0000   1.0000   1.0000
     1.0000   1.0000   1.0000   1.0000   1.0000   1.0000   1.0000   1.0000
     1.0000   1.0000   1.0000   1.0000   1.0000   1.0000   1.0000   1.0000
     1.0000   1.0000   1.0000   1.0000   1.0000   1.0000   1.0000   1.0000
     1.0000   1.0000   1.0000   1.0000   1.0000   1.0000   1.0000   1.0000
     1.0000   1.0000   1.0000   1.0000   1.0000   1.0000   1.0000   1.0000
     0.9314   0.4566   0.3847   0.0018   0.0004   0.0000   0.0000   0.0000
     0.0000   0.0000   0.0000   0.0000   0.0000   0.0000   0.0000   0.0000
     0.0000   0.0000   0.0000   0.0000   0.0000   0.0000   0.0000   0.0000

          k = 0.0589-0.5009-0.2062 ( 79382 PWs)   bands (ev):

   -75.1579 -75.1544 -75.1373 -75.1373 -75.1272 -75.1270 -75.1270 -75.1267
   -75.1267 -75.1239 -75.1239 -75.1233 -75.1233 -75.1220 -75.1220 -75.1218
   -75.1215 -75.1215 -75.1205 -75.1205 -75.1124 -75.1124 -46.2107 -46.2107
   -41.9227 -41.9216 -41.9190 -41.9177 -41.9159 -41.9153 -41.9033 -41.9033
   -41.8992 -41.8991 -41.8973 -41.8972 -41.8914 -41.8914 -41.8908 -41.8908
   -41.8906 -41.8902 -41.8895 -41.8895 -41.8887 -41.8887 -41.8885 -41.8885
   -41.8879 -41.8878 -41.8878 -41.8868 -41.8868 -41.8864 -41.8864 -41.8859
   -41.8859 -41.8858 -41.8858 -41.8857 -41.8857 -41.8857 -41.8852 -41.8849
   -41.8849 -41.8847 -41.8846 -41.8846 -41.8844 -41.8842 -41.8841 -41.8837
   -41.8836 -41.8835 -41.8835 -41.8834 -41.8834 -41.8831 -41.8831 -41.8825
   -41.8823 -41.8821 -41.8821 -41.8820 -41.8755 -41.8755 -41.8750 -41.8750
   -41.8734 -41.8734  -1.9853  -1.9315  -1.8175  -1.6495  -1.4882  -1.2873
    -0.9967  -0.8171  -0.6720  -0.6178  -0.5031  -0.3763  -0.3425  -0.2040
    -0.1814   0.1318   0.3124   0.4464   0.5626   0.8051   0.9327   1.1666
     1.5003   1.7131   1.7134   1.9553   1.9759   2.0767   2.1282   2.3388
     2.4274   2.6004   2.6938   2.7574   2.8252   2.9229   2.9410   3.2655
     3.5353   3.7137   3.8707   3.8835   4.0007   4.2348   4.3186   4.5140

     occupation numbers 
     1.0000   1.0000   1.0000   1.0000   1.0000   1.0000   1.0000   1.0000
     1.0000   1.0000   1.0000   1.0000   1.0000   1.0000   1.0000   1.0000
     1.0000   1.0000   1.0000   1.0000   1.0000   1.0000   1.0000   1.0000
     1.0000   1.0000   1.0000   1.0000   1.0000   1.0000   1.0000   1.0000
     1.0000   1.0000   1.0000   1.0000   1.0000   1.0000   1.0000   1.0000
     1.0000   1.0000   1.0000   1.0000   1.0000   1.0000   1.0000   1.0000
     1.0000   1.0000   1.0000   1.0000   1.0000   1.0000   1.0000   1.0000
     1.0000   1.0000   1.0000   1.0000   1.0000   1.0000   1.0000   1.0000
     1.0000   1.0000   1.0000   1.0000   1.0000   1.0000   1.0000   1.0000
     1.0000   1.0000   1.0000   1.0000   1.0000   1.0000   1.0000   1.0000
     1.0000   1.0000   1.0000   1.0000   1.0000   1.0000   1.0000   1.0000
     1.0000   1.0000   1.0000   1.0000   1.0000   1.0000   1.0000   1.0000
     1.0000   1.0000   1.0000   1.0000   1.0000   1.0000   1.0000   1.0000
     1.0000   1.0000   1.0000   1.0000   1.0000   1.0000   1.0000   1.0000
     0.9297   0.2304   0.2294   0.0006   0.0003   0.0000   0.0000   0.0000
     0.0000   0.0000   0.0000   0.0000   0.0000   0.0000   0.0000   0.0000
     0.0000   0.0000   0.0000   0.0000   0.0000   0.0000   0.0000   0.0000

          k =-0.3536-0.1768-0.5303 ( 79376 PWs)   bands (ev):

   -75.1579 -75.1544 -75.1373 -75.1373 -75.1272 -75.1270 -75.1270 -75.1267
   -75.1267 -75.1239 -75.1239 -75.1233 -75.1233 -75.1220 -75.1220 -75.1218
   -75.1215 -75.1215 -75.1205 -75.1205 -75.1124 -75.1124 -46.2107 -46.2107
   -41.9226 -41.9216 -41.9188 -41.9179 -41.9160 -41.9153 -41.9033 -41.9033
   -41.8992 -41.8991 -41.8973 -41.8972 -41.8914 -41.8914 -41.8908 -41.8908
   -41.8906 -41.8901 -41.8894 -41.8894 -41.8887 -41.8887 -41.8884 -41.8884
   -41.8879 -41.8876 -41.8876 -41.8869 -41.8869 -41.8864 -41.8864 -41.8860
   -41.8860 -41.8858 -41.8857 -41.8857 -41.8857 -41.8856 -41.8851 -41.8850
   -41.8849 -41.8846 -41.8845 -41.8843 -41.8843 -41.8843 -41.8841 -41.8838
   -41.8838 -41.8837 -41.8835 -41.8835 -41.8835 -41.8832 -41.8831 -41.8825
   -41.8823 -41.8822 -41.8822 -41.8821 -41.8755 -41.8755 -41.8750 -41.8750
   -41.8734 -41.8734  -1.4458  -1.4453  -1.4433  -1.4368  -1.4267  -1.3919
    -1.2910  -1.1394  -0.7899  -0.7878  -0.7522  -0.7463  -0.7454  -0.7395
    -0.4546  -0.1970   0.5085   0.5214   0.5296   0.5456   0.5517   0.5941
     0.9560   1.1442   2.4837   2.4860   2.5013   2.5231   2.5635   2.6195
     2.6845   2.8637   3.7559   3.7562   3.7714   3.7804   3.7999   3.8003
     3.9545   4.0848   4.3985   4.3991   4.4046   4.4047   4.4991   4.5523

     occupation numbers 
     1.0000   1.0000   1.0000   1.0000   1.0000   1.0000   1.0000   1.0000
     1.0000   1.0000   1.0000   1.0000   1.0000   1.0000   1.0000   1.0000
     1.0000   1.0000   1.0000   1.0000   1.0000   1.0000   1.0000   1.0000
     1.0000   1.0000   1.0000   1.0000   1.0000   1.0000   1.0000   1.0000
     1.0000   1.0000   1.0000   1.0000   1.0000   1.0000   1.0000   1.0000
     1.0000   1.0000   1.0000   1.0000   1.0000   1.0000   1.0000   1.0000
     1.0000   1.0000   1.0000   1.0000   1.0000   1.0000   1.0000   1.0000
     1.0000   1.0000   1.0000   1.0000   1.0000   1.0000   1.0000   1.0000
     1.0000   1.0000   1.0000   1.0000   1.0000   1.0000   1.0000   1.0000
     1.0000   1.0000   1.0000   1.0000   1.0000   1.0000   1.0000   1.0000
     1.0000   1.0000   1.0000   1.0000   1.0000   1.0000   1.0000   1.0000
     1.0000   1.0000   1.0000   1.0000   1.0000   1.0000   1.0000   1.0000
     1.0000   1.0000   1.0000   1.0000   1.0000   1.0000   1.0000   1.0000
     1.0000   1.0000   1.0000   1.0000   1.0000   1.0000   1.0000   1.0000
     1.0000   1.0000   0.0000   0.0000   0.0000   0.0000   0.0000   0.0000
     0.0000   0.0000   0.0000   0.0000   0.0000   0.0000   0.0000   0.0000
     0.0000   0.0000   0.0000   0.0000   0.0000   0.0000   0.0000   0.0000

          k =-0.4714-0.2357-0.4714 ( 79264 PWs)   bands (ev):

   -75.1579 -75.1544 -75.1373 -75.1373 -75.1272 -75.1270 -75.1270 -75.1267
   -75.1267 -75.1239 -75.1239 -75.1233 -75.1233 -75.1220 -75.1220 -75.1218
   -75.1215 -75.1215 -75.1205 -75.1205 -75.1124 -75.1124 -46.2107 -46.2107
   -41.9226 -41.9216 -41.9188 -41.9179 -41.9160 -41.9153 -41.9033 -41.9033
   -41.8992 -41.8991 -41.8973 -41.8972 -41.8914 -41.8914 -41.8908 -41.8908
   -41.8906 -41.8901 -41.8894 -41.8894 -41.8887 -41.8887 -41.8884 -41.8884
   -41.8879 -41.8876 -41.8876 -41.8869 -41.8869 -41.8864 -41.8864 -41.8860
   -41.8860 -41.8858 -41.8857 -41.8857 -41.8857 -41.8856 -41.8851 -41.8850
   -41.8849 -41.8846 -41.8845 -41.8843 -41.8843 -41.8843 -41.8841 -41.8838
   -41.8838 -41.8837 -41.8835 -41.8835 -41.8835 -41.8832 -41.8831 -41.8825
   -41.8823 -41.8822 -41.8822 -41.8821 -41.8755 -41.8755 -41.8750 -41.8750
   -41.8734 -41.8734  -1.5200  -1.5026  -1.4727  -1.4335  -1.2001  -1.1978
    -1.1759  -1.1714  -1.1608  -1.1466  -0.9662  -0.7033  -0.2181  -0.2105
    -0.1887  -0.1754  -0.1706  -0.1527   0.2393   0.3276   1.2342   1.2517
     1.5165   1.6160   1.6444   1.6607   1.7522   1.8241   3.5527   3.5874
     3.6192   3.6751   3.6813   3.7179   3.7994   3.8083   3.8188   3.8389
     3.9157   3.9415   4.0021   4.0065   4.0260   4.0301   4.0575   4.2483

     occupation numbers 
     1.0000   1.0000   1.0000   1.0000   1.0000   1.0000   1.0000   1.0000
     1.0000   1.0000   1.0000   1.0000   1.0000   1.0000   1.0000   1.0000
     1.0000   1.0000   1.0000   1.0000   1.0000   1.0000   1.0000   1.0000
     1.0000   1.0000   1.0000   1.0000   1.0000   1.0000   1.0000   1.0000
     1.0000   1.0000   1.0000   1.0000   1.0000   1.0000   1.0000   1.0000
     1.0000   1.0000   1.0000   1.0000   1.0000   1.0000   1.0000   1.0000
     1.0000   1.0000   1.0000   1.0000   1.0000   1.0000   1.0000   1.0000
     1.0000   1.0000   1.0000   1.0000   1.0000   1.0000   1.0000   1.0000
     1.0000   1.0000   1.0000   1.0000   1.0000   1.0000   1.0000   1.0000
     1.0000   1.0000   1.0000   1.0000   1.0000   1.0000   1.0000   1.0000
     1.0000   1.0000   1.0000   1.0000   1.0000   1.0000   1.0000   1.0000
     1.0000   1.0000   1.0000   1.0000   1.0000   1.0000   1.0000   1.0000
     1.0000   1.0000   1.0000   1.0000   1.0000   1.0000   1.0000   1.0000
     1.0000   1.0000   1.0000   1.0000   1.0000   1.0000   1.0000   1.0000
     0.9041   0.6070   0.4903   0.4231   0.1262   0.0292   0.0000   0.0000
     0.0000   0.0000   0.0000   0.0000   0.0000   0.0000   0.0000   0.0000
     0.0000   0.0000   0.0000   0.0000   0.0000   0.0000   0.0000   0.0000

     the Fermi energy is     1.6421 ev

!    total energy              =   -2785.12603696 Ry
     estimated scf accuracy    <          9.5E-09 Ry
     smearing contrib. (-TS)   =      -0.01118474 Ry
     internal energy E=F+TS    =   -2785.11485222 Ry

     The total energy is F=E-TS. E is the sum of the following terms:
     one-electron contribution =   -2757.09328726 Ry
     hartree contribution      =    1289.91807065 Ry
     xc contribution           =    -374.48897671 Ry
     ewald contribution        =    -943.45065891 Ry

     convergence has been achieved in  22 iterations

     Forces acting on atoms (cartesian axes, Ry/au):

     atom    1 type  1   force =     0.00309230    0.00016131   -0.00016131
     atom    2 type  1   force =     0.00130021    0.00109038   -0.00109038
     atom    3 type  1   force =     0.00063182    0.00046626   -0.00046626
     atom    4 type  1   force =    -0.00036659   -0.00041792    0.00041792
     atom    5 type  1   force =    -0.00041523   -0.00023264    0.00023264
     atom    6 type  1   force =     0.00070014    0.00122800   -0.00122800
     atom    7 type  1   force =     0.00000000    0.00000000    0.00000000
     atom    8 type  1   force =    -0.00018570   -0.00028929    0.00028929
     atom    9 type  1   force =     0.00000000    0.00000000    0.00000000
     atom   10 type  1   force =    -0.00066045   -0.00030192    0.00030192
     atom   11 type  1   force =    -0.00063182   -0.00046626    0.00046626
     atom   12 type  1   force =     0.00066045    0.00030192   -0.00030192
     atom   13 type  1   force =     0.00041523    0.00023264   -0.00023264
     atom   14 type  1   force =     0.00018570    0.00028929   -0.00028929
     atom   15 type  1   force =    -0.00309230   -0.00016131    0.00016131
     atom   16 type  1   force =    -0.00070014   -0.00122800    0.00122800
     atom   17 type  1   force =    -0.00130021   -0.00109038    0.00109038
     atom   18 type  1   force =     0.00036659    0.00041792   -0.00041792
     atom   19 type  1   force =     0.00000000    0.00000000    0.00000000
     atom   20 type  2   force =    -0.00036358   -0.00013858    0.00013858
     atom   21 type  1   force =     0.00000000    0.00000000    0.00000000
     atom   22 type  1   force =    -0.00144705   -0.00132871    0.00132871
     atom   23 type  1   force =     0.00144705    0.00132871   -0.00132871
     atom   24 type  2   force =     0.00036358    0.00013858   -0.00013858
     The non-local contrib.  to forces
     atom    1 type  1   force =     0.01338741   -0.00141577    0.00141577
     atom    2 type  1   force =     0.00078393   -0.00047287    0.00047287
     atom    3 type  1   force =     0.00024301   -0.00293488    0.00293488
     atom    4 type  1   force =     0.01053422    0.00635703   -0.00635703
     atom    5 type  1   force =     0.00831101    0.00229429   -0.00229429
     atom    6 type  1   force =     0.00993830    0.00711098   -0.00711098
     atom    7 type  1   force =     0.00000000    0.00000000    0.00000000
     atom    8 type  1   force =    -0.00011039    0.00312828   -0.00312828
     atom    9 type  1   force =     0.00000000    0.00000000    0.00000000
     atom   10 type  1   force =     0.00479846    0.00428210   -0.00428210
     atom   11 type  1   force =    -0.00024301    0.00293488   -0.00293488
     atom   12 type  1   force =    -0.00479846   -0.00428210    0.00428210
     atom   13 type  1   force =    -0.00831101   -0.00229429    0.00229429
     atom   14 type  1   force =     0.00011039   -0.00312828    0.00312828
     atom   15 type  1   force =    -0.01338741    0.00141577   -0.00141577
     atom   16 type  1   force =    -0.00993830   -0.00711098    0.00711098
     atom   17 type  1   force =    -0.00078393    0.00047287   -0.00047287
     atom   18 type  1   force =    -0.01053422   -0.00635703    0.00635703
     atom   19 type  1   force =     0.00000000    0.00000000    0.00000000
     atom   20 type  2   force =    -0.00215906   -0.00003718    0.00003718
     atom   21 type  1   force =     0.00000000    0.00000000    0.00000000
     atom   22 type  1   force =    -0.00572374   -0.00533630    0.00533630
     atom   23 type  1   force =     0.00572374    0.00533630   -0.00533630
     atom   24 type  2   force =     0.00215906    0.00003718   -0.00003718
     The ionic contribution  to forces
     atom    1 type  1   force =    -5.45042843   -1.69597703    1.69597703
     atom    2 type  1   force =    -3.75050681   -2.76305969    2.76305969
     atom    3 type  1   force =    -2.97000260   -1.47994102    1.47994102
     atom    4 type  1   force =    -4.58597819   -1.83817484    1.83817484
     atom    5 type  1   force =    -2.79303072   -1.40158082    1.40158082
     atom    6 type  1   force =    -4.57417811   -2.81274658    2.81274658
     atom    7 type  1   force =     0.00000000   -0.00000000   -0.00000000
     atom    8 type  1   force =    -1.49339045   -0.72417493    0.72417493
     atom    9 type  1   force =    -0.00000000   -0.00000000    0.00000000
     atom   10 type  1   force =    -1.43859032   -0.74167476    0.74167476
     atom   11 type  1   force =     2.97000260    1.47994102   -1.47994102
     atom   12 type  1   force =     1.43859032    0.74167476   -0.74167476
     atom   13 type  1   force =     2.79303072    1.40158082   -1.40158082
     atom   14 type  1   force =     1.49339045    0.72417493   -0.72417493
     atom   15 type  1   force =     5.45042843    1.69597703   -1.69597703
     atom   16 type  1   force =     4.57417811    2.81274658   -2.81274658
     atom   17 type  1   force =     3.75050681    2.76305969   -2.76305969
     atom   18 type  1   force =     4.58597819    1.83817484   -1.83817484
     atom   19 type  1   force =    -0.00000000   -0.00000000    0.00000000
     atom   20 type  2   force =     0.94421636    0.32895002   -0.32895002
     atom   21 type  1   force =    -0.00000000   -0.00000000    0.00000000
     atom   22 type  1   force =     3.08078766    2.08857164   -2.08857164
     atom   23 type  1   force =    -3.08078766   -2.08857164    2.08857164
     atom   24 type  2   force =    -0.94421636   -0.32895002    0.32895002
     The local contribution  to forces
     atom    1 type  1   force =     5.44011482    1.69753743   -1.69753743
     atom    2 type  1   force =     3.75107705    2.76463987   -2.76463987
     atom    3 type  1   force =     2.97050574    1.48337129   -1.48337129
     atom    4 type  1   force =     4.57508322    1.83141259   -1.83141259
     atom    5 type  1   force =     2.78432136    1.39908171   -1.39908171
     atom    6 type  1   force =     4.56496108    2.80686643   -2.80686643
     atom    7 type  1   force =     0.00000000    0.00000000   -0.00000000
     atom    8 type  1   force =     1.49325318    0.72074018   -0.72074018
     atom    9 type  1   force =     0.00000000    0.00000000   -0.00000000
     atom   10 type  1   force =     1.43308838    0.73708017   -0.73708017
     atom   11 type  1   force =    -2.97050574   -1.48337129    1.48337129
     atom   12 type  1   force =    -1.43308838   -0.73708017    0.73708017
     atom   13 type  1   force =    -2.78432136   -1.39908171    1.39908171
     atom   14 type  1   force =    -1.49325318   -0.72074018    0.72074018
     atom   15 type  1   force =    -5.44011482   -1.69753743    1.69753743
     atom   16 type  1   force =    -4.56496108   -2.80686643    2.80686643
     atom   17 type  1   force =    -3.75107705   -2.76463987    2.76463987
     atom   18 type  1   force =    -4.57508322   -1.83141259    1.83141259
     atom   19 type  1   force =     0.00000000    0.00000000   -0.00000000
     atom   20 type  2   force =    -0.94241359   -0.32902954    0.32902954
     atom   21 type  1   force =     0.00000000   -0.00000000    0.00000000
     atom   22 type  1   force =    -3.07650628   -2.08459406    2.08459406
     atom   23 type  1   force =     3.07650628    2.08459406   -2.08459406
     atom   24 type  2   force =     0.94241359    0.32902954   -0.32902954
     The core correction contribution to forces
     atom    1 type  1   force =     0.00000000    0.00000000    0.00000000
     atom    2 type  1   force =     0.00000000    0.00000000    0.00000000
     atom    3 type  1   force =     0.00000000    0.00000000    0.00000000
     atom    4 type  1   force =     0.00000000    0.00000000    0.00000000
     atom    5 type  1   force =     0.00000000    0.00000000    0.00000000
     atom    6 type  1   force =     0.00000000    0.00000000    0.00000000
     atom    7 type  1   force =     0.00000000    0.00000000    0.00000000
     atom    8 type  1   force =     0.00000000    0.00000000    0.00000000
     atom    9 type  1   force =     0.00000000    0.00000000    0.00000000
     atom   10 type  1   force =     0.00000000    0.00000000    0.00000000
     atom   11 type  1   force =     0.00000000    0.00000000    0.00000000
     atom   12 type  1   force =     0.00000000    0.00000000    0.00000000
     atom   13 type  1   force =     0.00000000    0.00000000    0.00000000
     atom   14 type  1   force =     0.00000000    0.00000000    0.00000000
     atom   15 type  1   force =     0.00000000    0.00000000    0.00000000
     atom   16 type  1   force =     0.00000000    0.00000000    0.00000000
     atom   17 type  1   force =     0.00000000    0.00000000    0.00000000
     atom   18 type  1   force =     0.00000000    0.00000000    0.00000000
     atom   19 type  1   force =     0.00000000    0.00000000    0.00000000
     atom   20 type  2   force =     0.00000000    0.00000000    0.00000000
     atom   21 type  1   force =     0.00000000    0.00000000    0.00000000
     atom   22 type  1   force =     0.00000000    0.00000000    0.00000000
     atom   23 type  1   force =     0.00000000    0.00000000    0.00000000
     atom   24 type  2   force =     0.00000000    0.00000000    0.00000000
     The Hubbard contrib.    to forces
     atom    1 type  1   force =     0.00000000    0.00000000    0.00000000
     atom    2 type  1   force =     0.00000000    0.00000000    0.00000000
     atom    3 type  1   force =     0.00000000    0.00000000    0.00000000
     atom    4 type  1   force =     0.00000000    0.00000000    0.00000000
     atom    5 type  1   force =     0.00000000    0.00000000    0.00000000
     atom    6 type  1   force =     0.00000000    0.00000000    0.00000000
     atom    7 type  1   force =     0.00000000    0.00000000    0.00000000
     atom    8 type  1   force =     0.00000000    0.00000000    0.00000000
     atom    9 type  1   force =     0.00000000    0.00000000    0.00000000
     atom   10 type  1   force =     0.00000000    0.00000000    0.00000000
     atom   11 type  1   force =     0.00000000    0.00000000    0.00000000
     atom   12 type  1   force =     0.00000000    0.00000000    0.00000000
     atom   13 type  1   force =     0.00000000    0.00000000    0.00000000
     atom   14 type  1   force =     0.00000000    0.00000000    0.00000000
     atom   15 type  1   force =     0.00000000    0.00000000    0.00000000
     atom   16 type  1   force =     0.00000000    0.00000000    0.00000000
     atom   17 type  1   force =     0.00000000    0.00000000    0.00000000
     atom   18 type  1   force =     0.00000000    0.00000000    0.00000000
     atom   19 type  1   force =     0.00000000    0.00000000    0.00000000
     atom   20 type  2   force =     0.00000000    0.00000000    0.00000000
     atom   21 type  1   force =     0.00000000    0.00000000    0.00000000
     atom   22 type  1   force =     0.00000000    0.00000000    0.00000000
     atom   23 type  1   force =     0.00000000    0.00000000    0.00000000
     atom   24 type  2   force =     0.00000000    0.00000000    0.00000000
     The SCF correction term to forces
     atom    1 type  1   force =     0.00001850    0.00001668   -0.00001668
     atom    2 type  1   force =    -0.00005396   -0.00001693    0.00001693
     atom    3 type  1   force =    -0.00011433   -0.00002913    0.00002913
     atom    4 type  1   force =    -0.00000584   -0.00001269    0.00001269
     atom    5 type  1   force =    -0.00001688   -0.00002782    0.00002782
     atom    6 type  1   force =    -0.00002113   -0.00000284    0.00000284
     atom    7 type  1   force =     0.00000000   -0.00000000    0.00000000
     atom    8 type  1   force =     0.00006196    0.00001718   -0.00001718
     atom    9 type  1   force =    -0.00000000   -0.00000000    0.00000000
     atom   10 type  1   force =     0.00004302    0.00001057   -0.00001057
     atom   11 type  1   force =     0.00011433    0.00002913   -0.00002913
     atom   12 type  1   force =    -0.00004302   -0.00001057    0.00001057
     atom   13 type  1   force =     0.00001688    0.00002782   -0.00002782
     atom   14 type  1   force =    -0.00006196   -0.00001718    0.00001718
     atom   15 type  1   force =    -0.00001850   -0.00001668    0.00001668
     atom   16 type  1   force =     0.00002113    0.00000284   -0.00000284
     atom   17 type  1   force =     0.00005396    0.00001693   -0.00001693
     atom   18 type  1   force =     0.00000584    0.00001269   -0.00001269
     atom   19 type  1   force =    -0.00000000    0.00000000    0.00000000
     atom   20 type  2   force =    -0.00000730   -0.00002189    0.00002189
     atom   21 type  1   force =    -0.00000000   -0.00000000   -0.00000000
     atom   22 type  1   force =    -0.00000469    0.00003001   -0.00003001
     atom   23 type  1   force =     0.00000469   -0.00003001    0.00003001
     atom   24 type  2   force =     0.00000730    0.00002189   -0.00002189

     Total force =     0.007128     Total SCF correction =     0.000250


     Computing stress (Cartesian axis) and pressure

          total   stress  (Ry/bohr**3)                   (kbar)     P=      -52.49
  -0.00036586  -0.00000316   0.00000316          -53.82       -0.46        0.46
  -0.00000316  -0.00035228   0.00001090           -0.46      -51.82        1.60
   0.00000316   0.00001090  -0.00035228            0.46        1.60      -51.82

     kinetic stress (kbar)   5237.52     -0.35      0.35
                               -0.35   5239.36      1.50
                                0.35      1.50   5239.36

     local   stress (kbar)  -6786.99    680.90   -680.90
                              680.90  -7626.51   -392.81
                             -680.90   -392.81  -7626.51

     nonloc. stress (kbar)   2155.15      0.03     -0.03
                                0.03   2155.28      0.07
                               -0.03      0.07   2155.28

     hartree stress (kbar)   9340.31   -338.47    338.47
                             -338.47   9761.57    194.83
                              338.47    194.83   9761.57

     exc-cor stress (kbar)  -2684.01      0.00     -0.00
                                0.00  -2684.01     -0.00
                               -0.00     -0.00  -2684.01

     corecor stress (kbar)      0.00      0.00      0.00
                                0.00      0.00      0.00
                                0.00      0.00      0.00

     ewald   stress (kbar)  -7315.79   -342.57    342.57
                             -342.57  -6897.52    198.02
                              342.57    198.02  -6897.52

     hubbard stress (kbar)      0.00      0.00      0.00
                                0.00      0.00      0.00
                                0.00      0.00      0.00

     DFT-D   stress (kbar)      0.00      0.00      0.00
                                0.00      0.00      0.00
                                0.00      0.00      0.00

     XDM     stress (kbar)      0.00      0.00      0.00
                                0.00      0.00      0.00
                                0.00      0.00      0.00

     dft-nl  stress (kbar)      0.00      0.00      0.00
                                0.00      0.00      0.00
                                0.00      0.00      0.00

     TS-vdW  stress (kbar)      0.00      0.00      0.00
                                0.00      0.00      0.00
                                0.00      0.00      0.00

     MDB     stress (kbar)      0.00      0.00      0.00
                                0.00      0.00      0.00
                                0.00      0.00      0.00

     3D-RISM stress (kbar)      0.00      0.00      0.00
                                0.00      0.00      0.00
                                0.00      0.00      0.00


     init_run     :     13.69s CPU     14.16s WALL (       1 calls)
     electrons    :    936.93s CPU    972.59s WALL (       1 calls)
     forces       :      8.70s CPU      8.93s WALL (       1 calls)
     stress       :    192.08s CPU    195.54s WALL (       1 calls)

     Called by init_run:
     wfcinit      :     12.92s CPU     13.16s WALL (       1 calls)
     wfcinit:atom :      0.15s CPU      0.16s WALL (      18 calls)
     wfcinit:wfcr :     12.34s CPU     12.55s WALL (      18 calls)
     potinit      :      0.16s CPU      0.21s WALL (       1 calls)
     hinit0       :      0.32s CPU      0.34s WALL (       1 calls)

     Called by electrons:
     c_bands      :    816.08s CPU    845.01s WALL (      22 calls)
     sum_band     :    114.99s CPU    118.63s WALL (      22 calls)
     v_of_rho     :      1.83s CPU      2.05s WALL (      23 calls)
     v_h          :      0.11s CPU      0.14s WALL (      23 calls)
     v_xc         :      1.72s CPU      1.91s WALL (      23 calls)
     newd         :      3.72s CPU      6.71s WALL (      23 calls)
     mix_rho      :      0.48s CPU      0.52s WALL (      22 calls)

     Called by c_bands:
     init_us_2    :     10.68s CPU     10.80s WALL (     846 calls)
     init_us_2:cp :     10.67s CPU     10.79s WALL (     846 calls)
     cegterg      :    782.99s CPU    811.39s WALL (     396 calls)

     Called by sum_band:
     sum_band:wei :      0.02s CPU      0.02s WALL (      22 calls)
     sum_band:loo :    110.77s CPU    111.66s WALL (      22 calls)
     sum_band:buf :      1.98s CPU      2.19s WALL (     396 calls)
     sum_band:ini :      5.00s CPU      5.03s WALL (     396 calls)
     sum_band:cal :     37.19s CPU     37.34s WALL (     396 calls)
     sum_band:bec :      0.12s CPU      0.13s WALL (     396 calls)
     addusdens    :      3.89s CPU      6.58s WALL (      22 calls)
                                        0.00s GPU  (      22 calls)
     addusd:skk   :      0.11s CPU      0.13s WALL (      44 calls)
                                        0.00s GPU  (      44 calls)

     Called by *egterg:
     cdiaghg      :     26.56s CPU     26.67s WALL (    1792 calls)
     cegterg:over :     63.63s CPU     63.93s WALL (    1396 calls)
     cegterg:upda :     36.18s CPU     38.97s WALL (    1396 calls)
     cegterg:last :     82.79s CPU     83.20s WALL (     749 calls)
     h_psi        :    462.30s CPU    470.73s WALL (    1810 calls)
     s_psi        :     88.23s CPU     88.64s WALL (    1810 calls)
     g_psi        :      1.48s CPU      1.50s WALL (    1396 calls)

     Called by h_psi:
     h_psi:calbec :     93.79s CPU     94.25s WALL (    1810 calls)
     vloc_psi     :    277.68s CPU    279.70s WALL (    1810 calls)
     add_vuspsi   :     88.16s CPU     88.55s WALL (    1810 calls)

     General routines
     calbec       :    140.22s CPU    140.87s WALL (    2296 calls)
     fft          :      0.94s CPU      1.19s WALL (     261 calls)
     ffts         :      0.05s CPU      0.07s WALL (      22 calls)
     fftw         :    310.49s CPU    312.81s WALL (  303630 calls)

     Parallel routines

     PWSCF        :  19m11.51s CPU  19m51.44s WALL


   This run was terminated on:  19:37:28  27Jun2024            

=------------------------------------------------------------------------------=
   JOB DONE.
=------------------------------------------------------------------------------=
