LAMMPS (29 Sep 2021 - Update 3)
OMP_NUM_THREADS environment is not set. Defaulting to 1 thread. (src/comm.cpp:98)
  using 1 OpenMP thread(s) per MPI task
units	metal
atom_style	full

read_data	mixed.data
Reading data file ...
  orthogonal box = (0.0000000 0.0000000 0.0000000) to (18.492711 18.368364 83.044081)
  2 by 1 by 8 MPI processor grid
  reading atoms ...
  864 atoms
Finding 1-2 1-3 1-4 neighbors ...
  special bond factors lj:    0        0        0       
  special bond factors coul:  0        0        0       
     0 = max # of 1-2 neighbors
     0 = max # of 1-3 neighbors
     0 = max # of 1-4 neighbors
     1 = max # of special neighbors
  special bonds CPU = 0.001 seconds
  read_data CPU = 0.009 seconds

pair_style	quip
pair_coeff	* * /ocean/projects/cts180021p/wuziqi/clease/mint-PD/PhaseDiagram-Clease/Liquid/GAP_potential/gap_LiKCl.xml "Potential xml_label=GAP_2021_9_27_0_1_17_37_618" 17 19 3

neighbor	0.3 bin
neigh_modify	delay 10

timestep	0.001
compute	msd all msd
thermo_style	custom step temp pe etotal press vol c_msd[4]
thermo	10
dump	1 all custom 10 xyz-mix.dump type id x y z
dump	2 all custom 10 force-mix.dump type id fx fy fz

fix     1 all nve
run     2000
Neighbor list info ...
  update every 1 steps, delay 10 steps, check yes
  max neighbors/atom: 2000, page size: 100000
  master list distance cutoff = 6.22
  ghost atom cutoff = 6.22
  binsize = 3.11, bins = 6 6 27
  1 neighbor lists, perpetual/occasional/extra = 1 0 0
  (1) pair quip, perpetual
      attributes: full, newton on
      pair build: full/bin
      stencil: full/bin/3d
      bin: standard
Per MPI rank memory allocation (min/avg/max) = 8.888 | 8.895 | 8.900 Mbytes
Step Temp PotEng TotEng Press Volume c_msd[4] 
       0            0   -7973.6696   -7973.6696   -2874.2394    28208.484            0 
      10    41.278351   -7978.2784   -7973.6737   -2959.4518    28208.484 0.00023887099 
      20    117.01377   -7986.7312   -7973.6782   -2971.9336    28208.484 0.0029537371 
      30    174.81925   -7993.1785   -7973.6771   -2824.2466    28208.484  0.010160551 
      40    218.44962    -7998.045   -7973.6766   -2720.6333    28208.484  0.020641735 
      50    256.00476   -8002.2349   -7973.6771   -2700.3711    28208.484  0.032489043 
      60    281.23595   -8005.0509   -7973.6786   -2720.3164    28208.484  0.045481137 
      70    279.84796   -8004.8936   -7973.6762   -2497.2427    28208.484  0.060875411 
      80    275.57271   -8004.4166   -7973.6761   -2346.6282    28208.484  0.078472831 
      90    275.14134   -8004.3684    -7973.676   -2375.5075    28208.484  0.097756432 
     100    277.97329   -8004.6843   -7973.6759   -2450.2098    28208.484   0.11838341 
     110    284.32121   -8005.3929   -7973.6764   -2585.3887    28208.484    0.1397563 
     120    288.42818   -8005.8514   -7973.6768   -2555.7238    28208.484   0.16133553 
     130    287.27066   -8005.7216   -7973.6761   -2379.8786    28208.484   0.18293983 
     140    286.58177   -8005.6454   -7973.6767   -2199.4073    28208.484   0.20440576 
     150    283.09159    -8005.256   -7973.6767   -2058.8623    28208.484   0.22545748 
     160    281.87093     -8005.12   -7973.6769   -2002.9487    28208.484   0.24504756 
     170    281.00839    -8005.024   -7973.6771   -2057.3307    28208.484   0.26222423 
     180    282.68046     -8005.21   -7973.6765   -2118.7926    28208.484   0.27648184 
     190    291.53832   -8006.1995   -7973.6779   -2237.0667    28208.484   0.28923786 
     200    293.64302   -8006.4325   -7973.6762   -2373.3356    28208.484   0.30372277 
     210    298.64228   -8006.9936   -7973.6796   -2435.1957    28208.484   0.32052492 
     220    292.65421   -8006.3221   -7973.6761   -2273.8456    28208.484   0.33666335 
     230    296.18967   -8006.7198   -7973.6794   -2277.4624    28208.484   0.34931106 
     240    282.07352   -8005.1401   -7973.6743   -2198.7147    28208.484   0.36070053 
     250    293.47873    -8006.417    -7973.679   -2346.9356    28208.484   0.37209929 
     260    294.86866   -8006.5718   -7973.6788   -2406.0825    28208.484   0.38456478 
     270    292.66954   -8006.3399   -7973.6921   -2371.6679    28208.484   0.39632792 
     280    288.22645   -8005.8424   -7973.6903   -2343.9303    28208.484   0.40740341 
     290    280.03766   -8004.9272   -7973.6886   -2399.6918    28208.484   0.41930862 
     300    280.42672   -8004.9707   -7973.6886   -2493.7264    28208.484   0.43203295 
     310    287.66524   -8005.7795     -7973.69   -2540.7382    28208.484   0.44617059 
     320    287.59248   -8005.7709   -7973.6895   -2479.6365    28208.484   0.46153129 
     330    287.30367   -8005.7384   -7973.6892   -2430.7941    28208.484   0.47558463 
     340      291.107   -8006.1632   -7973.6897   -2433.3574    28208.484   0.48761679 
     350    290.07985   -8006.0486   -7973.6898   -2407.8749    28208.484   0.49931209 
     360    283.46216   -8005.3096    -7973.689    -2324.857    28208.484   0.51138392 
     370    283.31611   -8005.2933    -7973.689   -2223.9029    28208.484   0.52363749 
     380    293.81781   -8006.4657   -7973.6899   -2201.7975    28208.484   0.53571675 
     390    300.79692   -8007.2454   -7973.6911   -2203.1603    28208.484   0.54763687 
     400    296.63974     -8006.78   -7973.6894   -2207.2978    28208.484   0.55946952 
     410     295.9675   -8006.7055   -7973.6899    -2389.454    28208.484   0.57119336 
     420    296.34311   -8006.7466   -7973.6891   -2528.2941    28208.484   0.58115249 
     430    302.08464   -8007.3879   -7973.6899   -2546.6384    28208.484   0.58802692 
     440    300.89773   -8007.2566    -7973.691   -2408.1467    28208.484   0.59313659 
     450    295.75798   -8006.6815   -7973.6893   -2201.4544    28208.484   0.59704421 
     460    298.71554   -8007.0127   -7973.6905   -2097.6901    28208.484   0.60034051 
     470    293.57038   -8006.4367   -7973.6885   -1853.8963    28208.484   0.60455383 
     480    299.68957   -8007.1205   -7973.6897   -1687.1392    28208.484   0.60898733 
     490    304.28303    -8007.634   -7973.6908   -1569.5251    28208.484   0.61372446 
     500    297.76534   -8006.9049   -7973.6887   -1520.9163    28208.484   0.61909997 
     510     298.0343    -8006.936   -7973.6898   -1578.3555    28208.484     0.624484 
     520    298.51386   -8006.9892   -7973.6895   -1617.2528    28208.484   0.63055005 
     530    299.67651    -8007.119   -7973.6896   -1583.6011    28208.484   0.63765456 
     540    301.93935   -8007.3714   -7973.6896    -1486.536    28208.484   0.64551302 
     550    304.04909   -8007.6074   -7973.6903   -1392.2763    28208.484    0.6536082 
     560    304.32541   -8007.6381   -7973.6901   -1287.1967    28208.484   0.66116979 
     570    303.65289   -8007.5627   -7973.6898   -1155.3607    28208.484   0.66831766 
     580    306.61685   -8007.8931   -7973.6895   -1197.3354    28208.484   0.67540713 
     590    314.13334   -8008.7329   -7973.6909   -1349.2051    28208.484   0.68183493 
     600    314.58012   -8008.7816   -7973.6897   -1383.1623    28208.484   0.68848067 
     610    313.36382   -8008.6461   -7973.6899   -1339.6031    28208.484   0.69624527 
     620     312.9428   -8008.5985   -7973.6893   -1300.0364    28208.484   0.70606469 
     630    317.72028    -8009.132   -7973.6899   -1341.7477    28208.484   0.71807814 
     640    322.57063   -8009.6733   -7973.6901   -1410.5145    28208.484   0.73069429 
     650    323.60168   -8009.7886   -7973.6903   -1540.2113    28208.484   0.74223138 
     660    318.39172   -8009.2068   -7973.6897   -1568.6259    28208.484   0.75263353 
     670    316.27474   -8008.9702   -7973.6892   -1586.0839    28208.484    0.7619451 
     680    320.95534   -8009.4935   -7973.6904   -1558.4885    28208.484   0.77150239 
     690    319.85933   -8009.3708     -7973.69    -1459.468    28208.484   0.78296875 
     700    315.81982   -8008.9199   -7973.6897   -1330.2989    28208.484   0.79605918 
     710    316.18394   -8008.9601   -7973.6893   -1285.6029    28208.484   0.80930055 
     720    321.99795   -8009.6098   -7973.6904   -1374.2337    28208.484   0.82124899 
     730    320.60154   -8009.4538   -7973.6902   -1440.5044    28208.484   0.83277534 
     740    316.58517   -8009.0043   -7973.6888   -1452.0725    28208.484    0.8439361 
     750    321.27163   -8009.5293    -7973.691   -1655.1798    28208.484     0.854338 
     760    314.38368   -8008.7598   -7973.6899   -1838.5562    28208.484   0.86584884 
     770     305.9368   -8007.8166   -7973.6889   -1999.9526    28208.484   0.87941766 
     780    305.71483   -8007.7927   -7973.6897   -2140.7584    28208.484   0.89394007 
     790    305.84031   -8007.8065   -7973.6896   -2209.2571    28208.484   0.90782838 
     800    306.48205   -8007.8784   -7973.6899   -2275.1918    28208.484   0.92026204 
     810    304.33355   -8007.6388   -7973.6899   -2343.4421    28208.484   0.93178116 
     820    297.82924   -8006.9125   -7973.6892   -2314.2529    28208.484    0.9431626 
     830    296.11711   -8006.7216   -7973.6893   -2340.1192    28208.484   0.95457823 
     840    299.50491   -8007.0998   -7973.6896   -2406.4366    28208.484   0.96506277 
     850    304.52466   -8007.6597   -7973.6895   -2460.7845    28208.484   0.97329313 
     860     310.8399   -8008.3649   -7973.6902   -2449.0401    28208.484   0.97916609 
     870    310.67413   -8008.3459   -7973.6897   -2327.6881    28208.484   0.98350092 
     880    309.42712   -8008.2065   -7973.6894   -2225.4629    28208.484   0.98651824 
     890    311.26126   -8008.4116   -7973.6899    -2248.854    28208.484   0.98981853 
     900    313.26109   -8008.6341   -7973.6893   -2271.1415    28208.484     0.995508 
     910    320.18937   -8009.4082   -7973.6906   -2399.0494    28208.484    1.0049166 
     920    319.06768   -8009.2826   -7973.6901    -2517.896    28208.484    1.0179539 
     930    311.48412   -8008.4358   -7973.6893   -2630.8665    28208.484    1.0322955 
     940    307.33364   -8007.9728   -7973.6893   -2692.4224    28208.484    1.0452919 
     950    306.79072   -8007.9125   -7973.6895   -2690.0291    28208.484    1.0559933 
     960    307.40028   -8007.9805   -7973.6895    -2685.778    28208.484    1.0648912 
     970    308.12458   -8008.0613   -7973.6895   -2650.3957    28208.484    1.0729687 
     980    308.40186   -8008.0924   -7973.6897   -2580.8757    28208.484    1.0808973 
     990    307.35297   -8007.9752   -7973.6895    -2481.356    28208.484    1.0887898 
    1000    307.21435     -8007.96   -7973.6898   -2353.6684    28208.484    1.0961224 
    1010    306.76152   -8007.9091   -7973.6894   -2248.7956    28208.484    1.1027335 
    1020    309.26646    -8008.189   -7973.6898   -2286.0041    28208.484    1.1099454 
    1030    310.25342   -8008.2989   -7973.6897   -2305.1256    28208.484    1.1183111 
    1040    307.62812   -8008.0062   -7973.6898    -2294.831    28208.484    1.1271276 
    1050    300.85261   -8007.2498   -7973.6892   -2274.7356    28208.484    1.1353455 
    1060    298.03491   -8006.9356   -7973.6894   -2274.0022    28208.484    1.1412949 
    1070     298.1827   -8006.9525   -7973.6898   -2240.2755    28208.484    1.1449307 
    1080    298.32389   -8006.9674   -7973.6889   -2186.0158    28208.484    1.1478628 
    1090    304.12167   -8007.6156   -7973.6903   -2224.5843    28208.484    1.1507358 
    1100    303.21342   -8007.5135   -7973.6896   -2273.1413    28208.484    1.1542182 
    1110    302.55349   -8007.4391   -7973.6888   -2350.8777    28208.484    1.1583885 
    1120    311.89752   -8008.4827   -7973.6901   -2437.4889    28208.484     1.162828 
    1130    317.78566     -8009.14   -7973.6905   -2446.8483    28208.484     1.167408 
    1140    311.56568   -8008.4454   -7973.6898   -2410.0182    28208.484    1.1717043 
    1150    303.07264   -8007.4971   -7973.6889   -2380.3816    28208.484    1.1751291 
    1160    303.70308   -8007.5677   -7973.6892    -2470.872    28208.484    1.1775178 
    1170    310.51899   -8008.3284   -7973.6895   -2617.7569    28208.484    1.1788381 
    1180    316.91994   -8009.0426   -7973.6898   -2682.3818    28208.484    1.1790698 
    1190    320.34041   -8009.4241   -7973.6896   -2666.8258    28208.484    1.1789053 
    1200    321.06279   -8009.5055   -7973.6905   -2603.0061    28208.484    1.1796194 
    1210    314.26027   -8008.7456   -7973.6894   -2485.4053    28208.484    1.1821764 
    1220    309.32884    -8008.196   -7973.6899    -2464.998    28208.484    1.1865082 
    1230    306.19371   -8007.8458   -7973.6895   -2530.8384    28208.484    1.1911967 
    1240    306.63151   -8007.8948   -7973.6896   -2616.4378    28208.484    1.1944331 
    1250    309.06475   -8008.1663   -7973.6897   -2607.8093    28208.484    1.1957913 
    1260    312.48643   -8008.5482   -7973.6898    -2462.899    28208.484    1.1957707 
    1270    312.94072   -8008.5995   -7973.6905   -2234.5909    28208.484    1.1949586 
    1280    309.44145   -8008.2076   -7973.6889   -2027.1289    28208.484    1.1941489 
    1290    314.87458   -8008.8149   -7973.6902   -1974.2087    28208.484    1.1943163 
    1300    319.36818   -8009.3159   -7973.6899   -1982.4404    28208.484     1.195877 
    1310    321.84143   -8009.5922   -7973.6903   -1943.5386    28208.484    1.1987306 
    1320    321.73486     -8009.58     -7973.69    -1845.706    28208.484    1.2036004 
    1330    320.53672   -8009.4466   -7973.6902   -1700.8294    28208.484    1.2106875 
    1340    314.45984   -8008.7682   -7973.6898   -1509.1942    28208.484    1.2186301 
    1350    308.88407   -8008.1459   -7973.6894   -1443.5528    28208.484    1.2257175 
    1360    308.85021   -8008.1421   -7973.6894   -1546.3935    28208.484    1.2310073 
    1370    314.64585   -8008.7893   -7973.6901   -1721.3694    28208.484     1.234708 
    1380    316.29012   -8008.9734   -7973.6908   -1817.9195    28208.484    1.2377498 
    1390    307.32275   -8007.9718   -7973.6895   -1803.5548    28208.484    1.2409119 
    1400    301.76471   -8007.3515   -7973.6892   -1859.1426    28208.484    1.2443267 
    1410    303.86241   -8007.5861   -7973.6897   -1936.9087    28208.484    1.2481193 
    1420    306.88628   -8007.9231   -7973.6894   -1917.1497    28208.484    1.2526965 
    1430    311.21927   -8008.4068   -7973.6898   -1887.7633    28208.484    1.2583105 
    1440    313.42496   -8008.6528   -7973.6898   -1851.4527    28208.484    1.2642026 
    1450     313.3569   -8008.6451   -7973.6897   -1798.7574    28208.484     1.269636 
    1460    313.21275   -8008.6295   -7973.6901   -1825.1156    28208.484    1.2754342 
    1470    309.64761   -8008.2313   -7973.6896   -1804.0626    28208.484    1.2823313 
    1480    309.40126   -8008.2029   -7973.6887   -1783.0935    28208.484    1.2890305 
    1490    320.42565   -8009.4341   -7973.6901   -1893.3186    28208.484    1.2938055 
    1500    328.10175   -8010.2905   -7973.6903   -1974.4184    28208.484    1.2976917 
    1510    327.81197   -8010.2577   -7973.6898    -1937.058    28208.484    1.3022885 
    1520     324.2243   -8009.8576   -7973.6899   -1828.5619    28208.484    1.3070588 
    1530    318.99753   -8009.2739   -7973.6893   -1744.3097    28208.484    1.3111416 
    1540    315.99968   -8008.9401   -7973.6899   -1679.5222    28208.484    1.3147163 
    1550    311.82694   -8008.4737   -7973.6889   -1676.3191    28208.484     1.318865 
    1560    315.99733   -8008.9396   -7973.6896   -1782.1266    28208.484    1.3245612 
    1570    321.70035   -8009.5765   -7973.6904   -1943.6277    28208.484    1.3315419 
    1580    318.91113   -8009.2648   -7973.6898   -1980.5418    28208.484     1.338424 
    1590    316.40503   -8008.9842   -7973.6888   -1871.1257    28208.484    1.3448929 
    1600    323.69059   -8009.7984   -7973.6903   -1863.2593    28208.484    1.3517889 
    1610    324.55521    -8009.895   -7973.6903   -1926.3043    28208.484    1.3589892 
    1620    317.22283   -8009.0757    -7973.689    -2033.451    28208.484    1.3640281 
    1630    315.56944   -8008.8917   -7973.6895   -2189.5743    28208.484    1.3650114 
    1640          316   -8008.9396   -7973.6894   -2246.5115    28208.484     1.363698 
    1650     317.3618   -8009.0917   -7973.6895   -2167.3771    28208.484    1.3628757 
    1660    317.92845   -8009.1553   -7973.6899   -2101.0814    28208.484    1.3639966 
    1670    314.61233   -8008.7852   -7973.6897   -2010.9785    28208.484    1.3669961 
    1680    312.18324   -8008.5133   -7973.6888   -2055.2147    28208.484     1.371293 
    1690    317.45918   -8009.1028   -7973.6897    -2191.224    28208.484    1.3761955 
    1700    321.08797   -8009.5076   -7973.6898   -2266.1824    28208.484    1.3813209 
    1710    322.36089   -8009.6492   -7973.6893   -2262.0514    28208.484    1.3861808 
    1720    325.18317   -8009.9643   -7973.6896   -2258.3202    28208.484    1.3904451 
    1730    326.15411   -8010.0728   -7973.6898    -2317.316    28208.484     1.394947 
    1740     323.8725   -8009.8181   -7973.6896   -2287.8062    28208.484    1.4007384 
    1750    320.41839   -8009.4325   -7973.6894   -2200.4994    28208.484    1.4075406 
    1760     319.2517   -8009.3028   -7973.6898   -2148.7833    28208.484     1.414045 
    1770    317.70647   -8009.1306     -7973.69    -2060.265    28208.484    1.4199919 
    1780    313.91842   -8008.7076   -7973.6895   -1900.1987    28208.484    1.4259827 
    1790    313.00692   -8008.6058   -7973.6894   -1752.6987    28208.484    1.4322179 
    1800     316.3606   -8008.9805     -7973.69   -1656.4741    28208.484    1.4376798 
    1810    317.06323    -8009.059   -7973.6901   -1611.9912    28208.484    1.4414287 
    1820    314.75826    -8008.801   -7973.6892    -1594.078    28208.484    1.4434919 
    1830    319.39788   -8009.3191   -7973.6898   -1580.2478    28208.484    1.4448335 
    1840    326.94741   -8010.1618   -7973.6903   -1586.0007    28208.484    1.4478206 
    1850     328.2751   -8010.3099   -7973.6903   -1510.9657    28208.484    1.4534245 
    1860    325.54844   -8010.0044    -7973.689   -1434.8489    28208.484    1.4597334 
    1870    330.22766   -8010.5276   -7973.6902   -1485.8246    28208.484    1.4649668 
    1880    331.47708   -8010.6665   -7973.6897   -1548.2944    28208.484    1.4702024 
    1890    330.21474   -8010.5256   -7973.6896   -1516.0861    28208.484    1.4764703 
    1900    331.58833   -8010.6782    -7973.689   -1442.8287    28208.484    1.4834549 
    1910    337.92691   -8011.3872    -7973.691   -1475.0881    28208.484    1.4904186 
    1920     332.3277   -8010.7614   -7973.6897   -1417.3686    28208.484    1.4973123 
    1930    326.40875   -8010.1005   -7973.6891    -1294.946    28208.484    1.5028962 
    1940    327.61985   -8010.2367   -7973.6902   -1344.4187    28208.484    1.5071937 
    1950    326.33555   -8010.0933   -7973.6901   -1454.2005    28208.484    1.5117741 
    1960    320.98412   -8009.4961   -7973.6898    -1539.947    28208.484    1.5179832 
    1970    316.38994    -8008.983   -7973.6892   -1494.5471    28208.484    1.5266599 
    1980    318.66568   -8009.2379   -7973.6903    -1430.619    28208.484     1.537506 
    1990    319.09324   -8009.2848   -7973.6895   -1383.3475    28208.484     1.548395 
    2000    324.20331   -8009.8559   -7973.6905   -1553.3118    28208.484     1.556546 
Loop time of 1887 on 16 procs for 2000 steps with 864 atoms

Performance: 0.092 ns/day, 262.083 hours/ns, 1.060 timesteps/s
97.8% CPU use with 16 MPI tasks x 1 OpenMP threads

MPI task timing breakdown:
Section |  min time  |  avg time  |  max time  |%varavg| %total
---------------------------------------------------------------
Pair    | 893.8      | 1300.3     | 1596.5     | 595.8 | 68.91
Bond    | 0.00022459 | 0.00070186 | 0.0011408  |   0.0 |  0.00
Neigh   | 0.021079   | 0.024772   | 0.029225   |   1.8 |  0.00
Comm    | 288.11     | 559.7      | 954.57     | 894.4 | 29.66
Output  | 2.2399     | 26.776     | 64.698     | 399.3 |  1.42
Modify  | 0.012221   | 0.014553   | 0.018889   |   1.3 |  0.00
Other   |            | 0.1968     |            |       |  0.01

Nlocal:        54.0000 ave          63 max          48 min
Histogram: 5 0 1 2 2 1 1 2 0 2
Nghost:        409.688 ave         449 max         386 min
Histogram: 3 3 1 3 2 1 1 0 0 2
Neighs:         0.00000 ave           0 max           0 min
Histogram: 16 0 0 0 0 0 0 0 0 0
FullNghs:      1604.62 ave        2106 max        1301 min
Histogram: 5 0 2 2 2 0 2 1 1 1

Total # of neighbors = 25674
Ave neighs/atom = 29.715278
Ave special neighs/atom = 0.0000000
Neighbor list builds = 199
Dangerous builds = 198
unfix   1

velocity    all create 600.0 1312343 dist gaussian
fix     2 all npt temp 600.0 600.0 $(100.0*dt) aniso 0.0 1.01325 $(1000.0*dt)
fix     2 all npt temp 600.0 600.0 0.10000000000000000555 aniso 0.0 1.01325 $(1000.0*dt)
fix     2 all npt temp 600.0 600.0 0.10000000000000000555 aniso 0.0 1.01325 1
run     3000
Per MPI rank memory allocation (min/avg/max) = 8.893 | 8.897 | 8.900 Mbytes
Step Temp PotEng TotEng Press Volume c_msd[4] 
    2000          600   -8009.8559    -7942.925   -388.37113    28208.484     1.556546 
    2010    570.63475   -8006.5709   -7942.9157   -261.40579    28207.891    1.5575427 
    2020    525.32508   -8001.4476   -7942.8468   -63.012584    28206.453    1.5595958 
    2030    495.78646   -7997.9503   -7942.6446    216.21104    28204.844    1.5617031 
    2040    478.42653   -7995.6296   -7942.2604    528.37268    28203.983    1.5654555 
    2050    469.22754   -7994.0228   -7941.6797    684.05511    28204.844    1.5730147 
    2060    468.14066   -7993.1584   -7940.9366    714.71222    28207.964    1.5848562 
    2070    466.84444   -7992.2068   -7940.1296    572.16473    28213.434    1.5992546 
    2080    473.05659   -7992.1365   -7939.3664     193.7682    28220.764    1.6135462 
    2090    473.30042   -7991.4784   -7938.6811   -175.35348    28228.779    1.6272351 
    2100    463.48098   -7989.7495   -7938.0475   -354.54362    28236.293    1.6412655 
    2110     458.4206   -7988.5425    -7937.405    -303.3598    28242.717    1.6549815 
    2120    458.71413   -7987.8758   -7936.7056    -151.5458     28248.18    1.6674017 
    2130    462.07317   -7987.4818   -7935.9368   -91.450193     28253.14    1.6783328 
    2140    469.36352   -7987.4617   -7935.1035   -210.80677    28257.768    1.6872648 
    2150    483.61589   -7988.1679   -7934.2198   -357.71827    28261.706    1.6935698 
    2160    497.53563   -7988.8054   -7933.3045   -408.92073    28264.488    1.6979429 
    2170    508.48223   -7989.1081   -7932.3862   -479.61172    28265.897    1.7018572 
    2180    518.66804   -7989.3303   -7931.4721   -571.01326    28265.682    1.7069913 
    2190    519.11272   -7988.4744   -7930.5666    -510.1695    28263.604    1.7149925 
    2200    514.71493   -7987.0854   -7929.6682   -477.90322    28259.799    1.7255974 
    2210    510.34005    -7985.693   -7928.7638   -440.13833    28254.395    1.7361179 
    2220    509.59735   -7984.6891   -7927.8428   -416.43603    28247.501    1.7433483 
    2230    517.08304   -7984.5812   -7926.8998   -409.10556     28239.19    1.7460357 
    2240    525.86765   -7984.6025   -7925.9411   -254.96636    28229.534    1.7468848 
    2250    526.58201    -7983.726    -7924.985    58.740574    28219.052    1.7501872 
    2260    531.67305   -7983.3466   -7924.0376    360.01461    28208.737    1.7576003 
    2270    533.31942   -7982.5854   -7923.0928    531.61658    28199.566    1.7690054 
    2280    531.42639   -7981.4374    -7922.156    608.42103    28192.127    1.7841763 
    2290    537.08694   -7981.1346   -7921.2217    672.57643    28186.684     1.802193 
    2300    545.76752   -7981.1638   -7920.2826    812.69052    28183.498    1.8198799 
    2310     557.4588   -7981.5345   -7919.3491    886.64414     28182.99     1.833792 
    2320    558.22336   -7980.7041   -7918.4335    970.22861    28185.445    1.8428747 
    2330    564.66288    -7980.532    -7917.543    823.02813    28191.077    1.8470765 
    2340    576.17264   -7980.9389    -7916.666    558.77005    28199.481    1.8484863 
    2350    577.58533   -7980.2462   -7915.8157    238.93585    28209.788    1.8501131 
    2360    581.86278   -7979.9051   -7914.9974    22.054086    28221.009    1.8540322 
    2370    585.38889   -7979.5058   -7914.2048  -0.96477768    28232.431    1.8620571 
    2380    579.46168   -7978.0845   -7913.4447    105.95645    28243.955    1.8742166 
    2390    566.03756   -7975.8501   -7912.7077    223.94061    28255.919    1.8886173 
    2400    564.49603   -7974.9399   -7911.9695    236.31136    28268.675    1.9016537 
    2410    576.08776   -7975.4707   -7911.2073    267.28284    28282.329    1.9101079 
    2420    595.05971   -7976.8149   -7910.4351    247.81991    28296.958    1.9143256 
    2430    598.98504   -7976.5052   -7909.6875    334.96509    28312.587    1.9178078 
    2440    597.59293   -7975.6529   -7908.9905     405.8336    28329.491    1.9236949 
    2450    599.14941   -7975.1675   -7908.3315    276.55344    28347.841    1.9336957 
    2460    601.89587    -7974.847   -7907.7046    133.81828    28367.291    1.9475188 
    2470    602.65115   -7974.3352   -7907.1086    2.3973512    28387.366    1.9640364 
    2480     606.1216   -7974.1589   -7906.5451   -26.963905    28407.654    1.9815067 
    2490    608.21865   -7973.8605   -7906.0128    36.946634    28428.073    1.9971793 
    2500    614.10187   -7974.0197   -7905.5157   -30.849215    28448.761    2.0096649 
    2510    615.24152    -7973.685   -7905.0539   -43.905825    28469.581    2.0219857 
    2520    615.50248   -7973.2947   -7904.6345   -61.012361     28490.45    2.0380982 
    2530    614.73466   -7972.8278   -7904.2532   -118.04703    28511.298    2.0591482 
    2540    620.63558    -7973.143   -7903.9102   -244.09479     28531.93    2.0827741 
    2550    624.47708    -7973.272   -7903.6106   -411.74173    28551.914    2.1059323 
    2560    620.37211   -7972.5684    -7903.365   -439.14566    28570.749    2.1246061 
    2570    617.12762   -7972.0108   -7903.1692   -510.62184    28588.247    2.1360546 
    2580    613.21319   -7971.4171   -7903.0122   -493.23196      28604.2    2.1421886 
    2590    613.11107   -7971.2818   -7902.8884   -427.30197     28618.63    2.1466879 
    2600    618.64994   -7971.8082   -7902.7969   -354.83222    28631.746    2.1527503 
    2610    618.64936   -7971.7586   -7902.7473   -286.58642    28643.794    2.1626085 
    2620    612.75093   -7971.0958   -7902.7425     -338.379    28654.944    2.1756778 
    2630    602.73059   -7970.0017   -7902.7662   -480.62364    28665.034    2.1888321 
    2640    603.12599   -7970.0796      -7902.8   -790.40755    28673.529     2.198701 
    2650    606.29511    -7970.475   -7902.8418   -1053.3981     28679.42    2.2050263 
    2660    607.36191   -7970.6502   -7902.8981   -1228.0059    28681.775    2.2096716 
    2670    613.81366   -7971.4498    -7902.978   -1410.8123    28679.895    2.2133275 
    2680    610.26704   -7971.1653   -7903.0891   -1335.5274    28673.213     2.215595 
    2690    608.53759   -7971.1111   -7903.2278   -1174.7264    28661.867    2.2167812 
    2700    611.34925   -7971.5856   -7903.3887   -1024.9449    28646.328    2.2184389 
    2710    608.43839   -7971.4479   -7903.5757   -834.78731    28627.084     2.221869 
    2720    593.72259   -7970.0049   -7903.7742   -559.27546     28604.77    2.2275273 
    2730    583.73746    -7969.073   -7903.9562   -330.64816    28580.253    2.2347884 
    2740    589.77793   -7969.8969   -7904.1063   -180.10416    28554.304    2.2431434 
    2750    598.37104   -7970.9862    -7904.237   -27.060495    28527.451     2.252605 
    2760      603.123   -7971.6457   -7904.3665    -11.90016    28500.145    2.2615041 
    2770     603.4405    -7971.822   -7904.5073   -81.403117     28472.46    2.2673717 
    2780    596.00885   -7971.1372   -7904.6515    15.875978    28444.241    2.2699244 
    2790    602.39513   -7971.9915   -7904.7935    171.07193    28415.775    2.2698426 
    2800    611.40834    -7973.143   -7904.9394     352.2027    28387.596    2.2690879 
    2810    620.68501   -7974.3531   -7905.1147    462.47009    28360.298    2.2691839 
    2820    621.98586   -7974.7214    -7905.338    538.58772    28334.272    2.2708143 
    2830    618.06549   -7974.5593   -7905.6131    661.33273    28309.811    2.2735232 
    2840    611.94127   -7974.1876   -7905.9246    949.53132    28287.391    2.2770637 
    2850    607.70517   -7974.0465   -7906.2561    1151.2613    28267.918    2.2826265 
    2860    598.74788   -7973.3803   -7906.5891    1183.6171    28252.092    2.2916995 
    2870    596.28321   -7973.4316   -7906.9153    1053.8327    28240.048    2.3026371 
    2880    591.95906   -7973.2589    -7907.225    882.05864    28231.422      2.31211 
    2890    583.24717   -7972.5715   -7907.5094    804.05195    28225.694     2.317933 
    2900    579.04471   -7972.3498   -7907.7565    779.69904    28222.621    2.3207853 
    2910    579.77187   -7972.6405   -7907.9661    763.79543    28222.138    2.3235991 
    2920    571.35837   -7971.8674   -7908.1315    881.51837    28224.262    2.3281083 
    2930    561.23879   -7970.8408   -7908.2338     1080.448     28229.39     2.333155 
    2940    562.85728   -7971.0454   -7908.2578    1058.8076    28238.119    2.3373202 
    2950    575.13594   -7972.3646   -7908.2073    860.24126    28250.436    2.3400856 
    2960    579.32156   -7972.7202    -7908.096    800.86585    28265.804    2.3419523 
    2970     584.5896   -7973.1527   -7907.9409    819.53105    28284.024    2.3438588 
    2980    597.93441    -7974.452   -7907.7515    560.72522    28305.096    2.3468348 
    2990    608.19488   -7975.3896   -7907.5445   -39.743725    28328.146    2.3517967 
    3000    608.79189   -7975.2506   -7907.3389   -490.96461    28351.345    2.3579797 
    3010    612.33909   -7975.4538   -7907.1464   -721.89111     28373.16    2.3646435 
    3020    618.63777   -7975.9877   -7906.9777   -782.08594    28392.784    2.3717883 
    3030    618.38888   -7975.8324   -7906.8502   -811.00385    28409.949    2.3783524 
    3040    611.50569   -7974.9786   -7906.7642   -821.45906     28424.53    2.3836714 
    3050    614.01437   -7975.2107   -7906.7165   -801.52276    28436.481     2.389421 
    3060    603.38162   -7974.0083   -7906.7002   -704.19866    28445.864    2.3987311 
    3070    587.14538   -7972.1915   -7906.6945   -518.33638    28452.981    2.4100506 
    3080    586.03914   -7972.0448   -7906.6713   -349.01055    28458.395    2.4186023 
    3090    592.97931   -7972.7713   -7906.6236     -164.043    28462.692     2.423289 
    3100    602.41484    -7973.763   -7906.5628   -80.943908    28466.453    2.4259637 
    3110    617.08833   -7975.3519   -7906.5147   -114.62034    28469.941    2.4277158 
    3120    608.14281   -7974.3336   -7906.4944    54.015939    28473.155    2.4304198 
    3130    599.16452   -7973.3286   -7906.4909    201.45874    28476.579    2.4351669 
    3140    605.35101   -7974.0135   -7906.4857    152.21979    28480.659    2.4424674 
    3150    607.52375   -7974.2569   -7906.4867    145.25475     28485.34    2.4511745 
    3160     601.8918   -7973.6457   -7906.5037     30.43091    28490.535    2.4583454 
    3170     594.2916   -7972.8199   -7906.5257   -129.73183    28495.881    2.4624477 
    3180     594.0755   -7972.8059   -7906.5359   -237.06719    28500.876    2.4636714 
    3190    603.53742    -7973.862   -7906.5365     -421.978     28505.09    2.4632568 
    3200    614.05424   -7975.0452   -7906.5466   -533.29743     28507.94    2.4627026 
    3210    619.79447   -7975.7258   -7906.5868   -525.96395    28509.031    2.4624277 
    3220    611.37267    -7974.861   -7906.6614   -446.03917    28508.345    2.4625424 
    3230    593.64821   -7972.9703    -7906.748   -194.58874    28506.217    2.4622565 
    3240    587.06902   -7972.3063   -7906.8179     24.09507    28503.388    2.4605178 
    3250    585.20111   -7972.1349   -7906.8548    180.75928    28500.621    2.4585694 
    3260    587.44747   -7972.3952   -7906.8646    155.76382    28498.413    2.4584946 
    3270    593.42514     -7973.05   -7906.8525    91.898525    28496.721    2.4610836 
    3280    597.04167   -7973.4269    -7906.826    21.453976    28495.348    2.4665643 
    3290    594.05522   -7973.0599   -7906.7922   -20.958472    28494.056    2.4737852 
    3300    595.61144    -7973.189   -7906.7477   -69.044074    28492.692    2.4802689 
    3310    599.54103   -7973.5708   -7906.6911   -10.837854    28491.144    2.4857728 
    3320     598.6161   -7973.4015    -7906.625    169.32968    28489.608    2.4930668 
    3330    605.68777   -7974.1242   -7906.5588    222.80044      28488.6    2.5045535 
    3340    601.08698   -7973.5501    -7906.498    295.98423    28488.377    2.5200521 
    3350    585.66913    -7971.766   -7906.4338    416.89163    28489.178    2.5363334 
    3360    578.79822   -7970.9058   -7906.3399    566.20472    28491.433    2.5505013 
    3370    594.17138   -7972.4834   -7906.2027    465.98597    28495.552    2.5625056 
    3380    612.22027   -7974.3327   -7906.0386    222.51476     28501.22    2.5744518 
    3390    613.10181   -7974.2775   -7905.8851    144.66943    28507.728    2.5873289 
    3400    611.97464   -7974.0255   -7905.7588    41.764836     28514.73    2.5997323 
    3410      615.245   -7974.2914   -7905.6599   -133.69526    28521.869     2.611209 
    3420    610.23628    -7973.664   -7905.5913      -306.52    28528.568    2.6223144 
    3430    598.18211   -7972.2715   -7905.5434   -440.97445    28534.252    2.6326815 
    3440    589.63389   -7971.2681   -7905.4935   -627.93355    28538.426    2.6421959 
    3450    584.62309   -7970.6326   -7905.4171   -815.39999     28540.46    2.6512969 
    3460    585.69469    -7970.641   -7905.3059   -649.15902     28539.83    2.6608919 
    3470    581.42955   -7970.0135   -7905.1542   -243.75953     28537.06    2.6722601 
    3480     580.0368   -7969.6596   -7904.9557   -24.298983    28533.389     2.684019 
    3490    588.89703   -7970.3944   -7904.7021    28.095692    28529.604    2.6929089 
    3500    602.87021   -7971.6578   -7904.4068   -108.09955    28525.852    2.6972221 
    3510    608.85696   -7972.0149    -7904.096   -188.59936    28521.742    2.6980831 
    3520    615.81034   -7972.4866    -7903.792   -226.24358    28516.976    2.6979459 
    3530    622.37393   -7972.9374   -7903.5107   -154.27843    28511.462    2.6990585 
    3540    625.68652   -7973.0651   -7903.2689    33.999928    28505.463    2.7018664 
    3550    626.22752   -7972.9349   -7903.0782    17.997853    28499.487    2.7058506 
    3560    621.17424    -7972.233   -7902.9401    31.232078    28493.592    2.7101615 
    3570    617.26188   -7971.7046   -7902.8481    26.765929    28487.774    2.7133446 
    3580    614.57263   -7971.3502   -7902.7937    46.399962    28482.028    2.7152937 
    3590    610.39782   -7970.8599   -7902.7691    66.413226    28476.421    2.7170336 
    3600    614.51579   -7971.3207   -7902.7705     20.53918    28471.019    2.7199133 
    3610    620.16376   -7971.9888   -7902.8086   -93.980951    28465.641    2.7254796 
    3620    612.32862   -7971.2001    -7902.894   -49.262343     28459.95    2.7337467 
    3630    602.90993   -7970.2707   -7903.0152    198.67038    28454.129    2.7425828 
    3640    600.63972   -7970.1591   -7903.1568    430.36794    28448.945    2.7500408 
    3650    599.21132   -7970.1572   -7903.3143    633.21796    28445.194    2.7551566 
    3660    601.61146   -7970.6051   -7903.4944    753.35702    28443.542    2.7566397 
    3670    600.74862   -7970.7158   -7903.7014    926.24187    28444.463    2.7543155 
    3680    602.53569   -7971.1507   -7903.9369    1037.2193    28448.535    2.7491149 
    3690    611.71368   -7972.4506   -7904.2131    918.28044    28456.097    2.7442661 
    3700    621.95846   -7973.9384    -7904.558     667.9014    28466.818     2.743577 
    3710    621.18815   -7974.2906   -7904.9961    424.53218    28479.932    2.7494339 
    3720    607.79818   -7973.3207   -7905.5199    177.88002    28494.609    2.7625564 
    3730    589.56437   -7971.8465   -7906.0797    77.425994    28510.092     2.780252 
    3740    578.29807   -7971.1299   -7906.6198   -115.36354    28525.957    2.7969574 
    3750    576.33409   -7971.3979    -7907.107   -325.95971    28541.608    2.8090581 
    3760    570.43416   -7971.1565   -7907.5237   -311.89113     28556.39    2.8165781 
    3770    564.39358   -7970.8149    -7907.856   -147.27864    28570.317    2.8216875 
    3780    564.71075   -7971.0904    -7908.096   -224.78247    28583.844      2.82696 
    3790    570.48517   -7971.8917   -7908.2532    -653.6091    28596.641    2.8347119 
    3800     567.5132   -7971.6412   -7908.3343    -932.4631    28607.411    2.8444792 
    3810     568.7003   -7971.7884    -7908.349   -979.87237    28615.175    2.8528333 
    3820    578.71314   -7972.8588   -7908.3025   -754.07523    28619.745     2.858252 
    3830    594.93594   -7974.5808   -7908.2148   -413.02492    28621.804    2.8628601 
    3840    602.17489   -7975.2841   -7908.1105   -251.39689    28622.419    2.8702204 
    3850    610.09138   -7976.0692   -7908.0126   -326.04184    28622.102    2.8814628 
    3860    608.32027   -7975.7905   -7907.9315    -340.9921    28620.676    2.8933638 
    3870    605.83772   -7975.4499   -7907.8678   -267.67136    28618.088    2.9011539 
    3880    607.97463   -7975.6379   -7907.8174   -122.44018    28614.565    2.9040631 
    3890    599.97296   -7974.7013   -7907.7734    181.37602    28610.627    2.9034315 
    3900    600.06459   -7974.6719   -7907.7338    370.29429    28607.228    2.8996819 
    3910    597.26262   -7974.3162   -7907.6906    475.04502    28605.053    2.8967834 
    3920    596.19851   -7974.1511   -7907.6442    544.09111    28604.484    2.8984772 
    3930    590.40539   -7973.4433   -7907.5827    683.63846    28605.816    2.9053993 
    3940    592.92021   -7973.6381   -7907.4969    799.73731    28609.536    2.9159199 
    3950     595.9369   -7973.8615   -7907.3838    978.39596    28616.115    2.9295536 
    3960    591.62505   -7973.2424   -7907.2457    1139.3541    28626.196    2.9455607 
    3970    591.72259   -7973.0805   -7907.0729    939.02478     28640.29    2.9626557 
    3980    581.99399   -7971.7598   -7906.8374    718.13249    28657.909    2.9807687 
    3990    586.31989   -7971.9154   -7906.5105    587.69631    28678.398    2.9980678 
    4000    605.18611   -7973.5725   -7906.0631    334.55112    28701.303     3.013095 
    4010    619.08296   -7974.5702   -7905.5105    31.199334    28725.836    3.0262247 
    4020    621.87116   -7974.2661   -7904.8954   -197.57382    28751.026    3.0389179 
    4030    619.70466   -7973.3885   -7904.2595   -360.80108    28776.087    3.0531159 
    4040     613.7468    -7972.098   -7903.6336   -406.19143     28800.46    3.0709922 
    4050    599.27761   -7969.8836   -7903.0332   -239.37146    28824.007    3.0937365 
    4060    598.16264   -7969.1921   -7902.4661   -202.56152    28847.181     3.119228 
    4070     615.5654   -7970.5948   -7901.9276   -476.12844    28870.064    3.1430463 
    4080    630.72087   -7971.8135   -7901.4556    -813.7613    28891.773    3.1623051 
    4090    629.22546   -7971.2839   -7901.0929   -819.76645      28911.2    3.1769988 
    4100    610.18224   -7968.9013   -7900.8345   -451.20888    28928.274    3.1881908 
    4110    599.17434   -7967.4729   -7900.6341   -149.80264    28944.111    3.1969611 
    4120    602.78849   -7967.6987   -7900.4567   -61.377047    28959.712    3.2044984 
    4130    600.08911   -7967.2383   -7900.2974   -4.9046334    28975.446     3.210437 
    4140    594.83728   -7966.5049   -7900.1499    163.60643    28991.574    3.2139046 
    4150    599.31367   -7966.8614   -7900.0071    346.51286    29008.657    3.2145143 
    4160    604.45809      -7967.3   -7899.8718    347.52173    29027.326    3.2113397 
    4170    611.75566    -7967.991   -7899.7487     59.41065    29047.584    3.2054941 
    4180    623.54436   -7969.2097   -7899.6524   -224.17912    29068.547    3.2003337 
    4190    634.52583   -7970.3878   -7899.6055   -599.34049    29089.172    3.1992302 
    4200    642.28167   -7971.2867   -7899.6393   -968.18063    29108.131    3.2030894 
    4210    629.18927   -7969.9471   -7899.7601   -999.47088    29124.189    3.2085434 
    4220    628.60958    -7970.075   -7899.9527   -1085.7243    29137.011    3.2096801 
    4230    632.71339   -7970.7908   -7900.2106   -1086.4233    29146.267    3.2053976 
    4240    622.41471   -7969.9693    -7900.538   -782.28994    29151.933     3.198536 
    4250    601.77928   -7968.0233   -7900.8939   -472.63421    29154.929     3.192707 
    4260    606.27565   -7968.8789   -7901.2479   -471.72456    29156.214    3.1890282 
    4270     619.5072   -7970.7182   -7901.6112   -607.14823     29155.79    3.1868628 
    4280    615.56343   -7970.6624   -7901.9954   -519.26196    29153.265    3.1864285 
    4290    606.63967   -7970.0519   -7902.3804   -524.88161    29148.787    3.1884074 
    4300    598.21312     -7969.47   -7902.7384   -608.94483    29142.303    3.1915363 
    4310    596.03182   -7969.5401   -7903.0519    -720.8409    29133.478    3.1938623 
    4320    605.67955   -7970.8969   -7903.3324   -758.76822    29121.884    3.1945126 
    4330    600.07759   -7970.5266   -7903.5871   -567.66697    29107.359    3.1931211 
    4340    585.22734   -7969.0802   -7903.7972   -353.92779    29090.452    3.1873421 
    4350    593.11132   -7970.1187   -7903.9562   -416.87041     29071.76     3.175477 
    4360    599.13137   -7970.9166   -7904.0826   -340.76934     29051.18    3.1602979 
    4370    583.46457   -7969.2601   -7904.1737    74.714201    29028.998    3.1452109 
    4380    583.78073   -7969.3401   -7904.2185      385.401    29006.478     3.131114 
    4390     602.1794    -7971.398    -7904.224    569.06566    28984.751     3.119038 
    4400    624.72483   -7973.9293   -7904.2404    520.24099    28964.432    3.1107267 
    4410    612.12154     -7972.58   -7904.2969    561.48129    28945.485    3.1071481 
    4420     589.0173   -7970.0759   -7904.3701    781.39658    28928.121    3.1050058 
    4430    584.55519   -7969.6257   -7904.4177    913.46982    28913.057    3.0996048 
    4440    595.93448   -7970.9128   -7904.4354    986.15726    28900.825    3.0890567 
    4450    596.79803   -7971.0144   -7904.4407    1127.0365    28891.805    3.0760268 
    4460    597.76232   -7971.1217   -7904.4404    1158.8442    28886.514     3.063291 
    4470     617.1294   -7973.2901   -7904.4484    835.45975    28885.046    3.0523188 
    4480    624.82052   -7974.1914   -7904.4918    647.57694    28886.561    3.0446693 
    4490     623.9938   -7974.1943   -7904.5869    496.14914    28890.425    3.0393983 
    4500    625.08212   -7974.4645   -7904.7357    303.29779    28896.146    3.0358019 
    4510    608.57555   -7972.8176   -7904.9301     274.4011    28903.147      3.03612 
    4520    588.62597   -7970.7937   -7905.1316    365.90788    28911.354    3.0412676 
    4530    595.38599   -7971.7297   -7905.3135    194.56145    28920.987    3.0478603 
    4540    601.00967   -7972.5197   -7905.4762    4.1952816    28931.579    3.0542777 
    4550    606.40526   -7973.2841   -7905.6387   -271.36428    28942.427    3.0621831 
    4560    604.46384   -7973.2403   -7905.8115   -578.16134    28952.574    3.0729227 
    4570    593.31927   -7972.1729   -7905.9872   -762.06853    28960.975    3.0847402 
    4580    586.27939   -7971.5536   -7906.1532   -967.85371    28966.873    3.0952587 
    4590    582.74143   -7971.3026   -7906.2969   -1200.9516    28969.466    3.1038856 
    4600    585.79071   -7971.7587   -7906.4129   -1381.9904    28967.863    3.1096735 
    4610    592.81219   -7972.6362   -7906.5071   -1368.8799    28961.376    3.1114234 
    4620    595.15759   -7972.9795   -7906.5887   -1178.2451    28949.946    3.1101749 
    4630    596.50739   -7973.2132   -7906.6719   -899.30374    28934.126    3.1079386 
    4640     601.2376    -7973.833   -7906.7641      -718.93    28914.768    3.1068236 
    4650    598.32898    -7973.616   -7906.8715     -489.084      28892.5    3.1078611 
    4660    587.95598   -7972.5679   -7906.9806   -90.429549    28868.135    3.1103147 
    4670    583.01084   -7972.1086   -7907.0728    92.201084    28842.921    3.1127492 
    4680    582.77852   -7972.1512   -7907.1413    123.95593    28817.535    3.1140438 
    4690    593.45789   -7973.3946   -7907.1935     181.2217    28792.165    3.1138358 
    4700    597.78162   -7973.9257   -7907.2423    324.67313    28767.041    3.1119285 
    4710    593.67434    -7973.524   -7907.2987    495.21907    28742.668     3.107969 
    4720    593.30071   -7973.5432   -7907.3597    553.44296    28719.613      3.10295 
    4730    592.13166    -7973.476   -7907.4228    617.10838    28698.136    3.0989606 
    4740    591.40967   -7973.4571   -7907.4844    751.91267    28678.521    3.0986349 
    4750    599.36238   -7974.4067    -7907.547    780.53367    28661.191    3.1013005 
    4760    606.34289   -7975.2611   -7907.6226    704.91514    28646.291    3.1023489 
    4770    614.00661   -7976.2253   -7907.7319    506.33958    28633.597     3.098347 
    4780     616.7211   -7976.6857   -7907.8896    202.26387    28622.451    3.0902704 
    4790    612.33944    -7976.406   -7908.0986   -60.010936    28611.875    3.0820641 
    4800    598.58597    -7975.112   -7908.3389   -25.335393    28601.082    3.0762769 
    4810    589.19419   -7974.3089   -7908.5834    8.3972567    28590.068    3.0731974 
    4820       589.41   -7974.5637   -7908.8141   -2.3288248    28578.951    3.0742945 
    4830    593.00953   -7975.1837   -7909.0326    109.86353    28567.739    3.0813296 
    4840    590.88785   -7975.1514    -7909.237    339.58142    28556.812    3.0933768 
    4850    590.29469   -7975.2762    -7909.428    555.13286     28546.92    3.1079189 
    4860    581.52496   -7974.4692   -7909.5992    821.46839    28538.843    3.1242728 
    4870    573.52965   -7973.7127   -7909.7346    980.63019    28533.461    3.1419513 
    4880    575.05003   -7973.9708   -7909.8231    1070.9204    28531.365    3.1587674 
    4890    579.24444   -7974.4769   -7909.8613    1071.4454    28532.882    3.1724245 
    4900    587.61423   -7975.4093     -7909.86     987.5922    28538.073    3.1825937 
    4910    593.64531   -7976.0561   -7909.8341    922.17348    28546.719    3.1905372 
    4920    598.88102   -7976.6024   -7909.7963    840.99043    28558.638    3.1975718 
    4930    600.89968   -7976.7869   -7909.7557    628.02665     28573.54    3.2054789 
    4940    595.32411   -7976.1205   -7909.7112    434.32397    28590.784    3.2155263 
    4950    596.25706   -7976.1658   -7909.6525    198.88677    28609.699    3.2283407 
    4960    607.92519   -7977.3938   -7909.5788   -55.317555    28629.501    3.2447471 
    4970    616.97893   -7978.3367   -7909.5118   -194.69346    28649.372    3.2650872 
    4980    616.25624   -7978.2188   -7909.4745   -262.80396    28668.797    3.2869171 
    4990    611.85507   -7977.7275   -7909.4741   -316.60596    28687.522    3.3056545 
    5000    602.99618   -7976.7682   -7909.5031   -422.00424    28705.315    3.3201075 
Loop time of 2912.54 on 16 procs for 3000 steps with 864 atoms

Performance: 0.089 ns/day, 269.679 hours/ns, 1.030 timesteps/s
98.1% CPU use with 16 MPI tasks x 1 OpenMP threads

MPI task timing breakdown:
Section |  min time  |  avg time  |  max time  |%varavg| %total
---------------------------------------------------------------
Pair    | 1715.7     | 2414.3     | 2778.4     | 720.1 | 82.89
Bond    | 0.00036502 | 0.0011436  | 0.001713   |   1.5 |  0.00
Neigh   | 0.032505   | 0.036277   | 0.041209   |   1.5 |  0.00
Comm    | 50.197     | 414.24     | 1109.9     |1702.5 | 14.22
Output  | 0.20242    | 0.20768    | 0.28498    |   4.4 |  0.01
Modify  | 29.636     | 83.709     | 153.83     | 359.7 |  2.87
Other   |            | 0.02246    |            |       |  0.00

Nlocal:        54.0000 ave          60 max          47 min
Histogram: 3 0 1 3 0 1 2 2 0 4
Nghost:        403.812 ave         431 max         385 min
Histogram: 2 5 1 0 1 2 1 2 0 2
Neighs:         0.00000 ave           0 max           0 min
Histogram: 16 0 0 0 0 0 0 0 0 0
FullNghs:      1573.50 ave        1847 max        1263 min
Histogram: 2 1 2 1 1 2 1 2 0 4

Total # of neighbors = 25176
Ave neighs/atom = 29.138889
Ave special neighs/atom = 0.0000000
Neighbor list builds = 300
Dangerous builds = 300
unfix   2

fix     3 all npt temp 600.0 600.0 $(100.0*dt) aniso 1.01325 1.01325 $(1000.0*dt)
fix     3 all npt temp 600.0 600.0 0.10000000000000000555 aniso 1.01325 1.01325 $(1000.0*dt)
fix     3 all npt temp 600.0 600.0 0.10000000000000000555 aniso 1.01325 1.01325 1
run     20000
Per MPI rank memory allocation (min/avg/max) = 8.894 | 8.899 | 8.901 Mbytes
Step Temp PotEng TotEng Press Volume c_msd[4] 
    5000    602.99618   -7976.7682   -7909.5031   -422.00424    28705.315    3.3201075 
    5010    592.00152   -7975.5411   -7909.5024   -422.65446    28704.584    3.3280065 
    5020    586.38354   -7974.8996   -7909.4876   -328.77847    28702.431    3.3341859 
    5030    584.79702   -7974.6807   -7909.4457   -279.79593    28699.118    3.3416624 
    5040    578.72697   -7973.9225   -7909.3647   -155.45631    28694.867    3.3517328 
    5050    581.95158   -7974.1524   -7909.2349    35.903933    28690.102    3.3623031 
    5060    593.51264   -7975.2642    -7909.057    271.48556    28685.485    3.3714289 
    5070    598.44002   -7975.6024   -7908.8456    556.10218    28681.816    3.3803331 
    5080     601.8363   -7975.7519   -7908.6162    742.82983    28680.037    3.3901111 
    5090    597.55909    -7975.031   -7908.3723    732.39645    28680.755    3.4002819 
    5100    593.93544   -7974.3619   -7908.1075    720.29843    28684.022    3.4098124 
    5110    599.76308   -7974.7151   -7907.8106    524.98452    28689.719    3.4182556 
    5120    602.27893   -7974.6666   -7907.4815    372.21857    28697.265     3.424592 
    5130    601.65116   -7974.2397   -7907.1246    321.30767    28706.159    3.4266217 
    5140    615.66906   -7975.4229   -7906.7441    282.97306    28716.208    3.4237816 
    5150    624.90397   -7976.0633   -7906.3543    299.24202    28727.324    3.4210318 
    5160    631.74343   -7976.4631   -7905.9912    140.32896    28739.475    3.4244198 
    5170     622.0699   -7975.0597   -7905.6669   -109.72599    28752.137    3.4362621 
    5180    602.04384    -7972.532   -7905.3732   -165.42739    28764.541    3.4538193 
    5190    593.38626   -7971.2647   -7905.0716   -246.67698    28776.434     3.471668 
    5200    599.88716   -7971.6491   -7904.7308   -574.55394    28787.463     3.485253 
    5210    603.27696   -7971.6488   -7904.3523   -735.57885    28796.615    3.4929661 
    5220    596.96253    -7970.536   -7903.9439   -647.57863    28803.335    3.4944427 
    5230    600.91694   -7970.5317   -7903.4985   -538.35239    28807.851    3.4911634 
    5240    608.53289   -7970.8938    -7903.011   -328.21931    28810.566    3.4877742 
    5250    626.48132   -7972.3953   -7902.5103   -225.43039    28812.118    3.4874065 
    5260    636.37574   -7973.0261   -7902.0374   -290.68946    28812.866    3.4909918 
    5270    635.76316   -7972.5592   -7901.6388   -423.54359     28812.59    3.4969231 
    5280    637.60029   -7972.4489   -7901.3236   -401.54949    28810.899     3.502392 
    5290    636.80363   -7972.1305   -7901.0941   -212.99703    28807.847    3.5074979 
    5300    626.57166   -7970.8369   -7900.9419    18.839593     28804.04    3.5139896 
    5310    624.86541   -7970.5561   -7900.8514     19.96187    28800.197     3.521664 
    5320    630.07076   -7971.1056   -7900.8202   -230.84589    28796.325    3.5291646 
    5330    626.90796   -7970.7916   -7900.8591   -554.48638    28791.615    3.5360605 
    5340    622.02674   -7970.3565   -7900.9685   -787.20641    28784.982    3.5424721 
    5350    614.16038    -7969.641   -7901.1304   -845.27511    28775.636    3.5479649 
    5360    615.10435   -7969.9602   -7901.3444   -844.67117    28763.322    3.5515017 
    5370    617.57781   -7970.5237    -7901.632   -741.40281    28748.057    3.5526961 
    5380    611.41339   -7970.2248   -7902.0207   -402.75007     28730.25    3.5512877 
    5390    610.38175   -7970.6162   -7902.5272    16.277338    28711.029    3.5468275 
    5400    614.90593   -7971.7649   -7903.1712    198.41353    28691.744    3.5398557 
    5410    620.70594   -7973.2182   -7903.9775    183.23182    28673.059    3.5323784 
    5420    612.98961   -7973.2842   -7904.9043    144.00698    28654.996     3.527056 
    5430    608.32529   -7973.6951   -7905.8355   -5.7202506    28637.377    3.5234702 
    5440    610.78169   -7974.8088   -7906.6751   -151.30209    28619.721    3.5199628 
    5450    602.56009   -7974.5724   -7907.3559   -61.863263    28601.614    3.5187894 
    5460    597.85604   -7974.5531   -7907.8613    79.791649    28583.314    3.5227342 
    5470    605.64755   -7975.7963   -7908.2354    122.22209    28565.249    3.5306263 
    5480    607.58092   -7976.3092   -7908.5327    161.53551    28547.596    3.5404033 
    5490    603.06406   -7976.0528   -7908.7801     130.0482    28530.469    3.5521274 
    5500    603.34368   -7976.3012   -7908.9974   -42.971596    28513.731    3.5650202 
    5510    597.44733   -7975.8394   -7909.1933   -207.09325    28496.839    3.5764069 
    5520    589.75596    -7975.156   -7909.3678   -231.32911    28479.275    3.5847668 
    5530    581.30044   -7974.3496   -7909.5047   -127.10971    28460.967    3.5911802 
    5540    586.81173   -7975.0576   -7909.5979   -111.92073    28442.187    3.5962613 
    5550    595.21811   -7976.0567   -7909.6593  -0.75180615    28423.054    3.6016758 
    5560    590.53675   -7975.5764   -7909.7011    325.69995    28403.984    3.6093502 
    5570    581.22778   -7974.5552   -7909.7184     707.6794    28386.016    3.6187589 
    5580    574.73609   -7973.8053   -7909.6926    936.28032    28370.381    3.6279305 
    5590     582.7828   -7974.6292   -7909.6189    868.12968    28357.788    3.6363037 
    5600    594.59321    -7975.836   -7909.5083    749.61926    28348.104    3.6448633 
    5610    597.36225   -7976.0179   -7909.3812     710.3363    28340.943    3.6532523 
    5620    596.55788   -7975.7922   -7909.2453     793.6963    28336.198     3.658713 
    5630    602.41067   -7976.3028    -7909.103    706.80424    28334.064    3.6591779 
    5640    604.30164   -7976.3708   -7908.9601    632.92761    28334.322    3.6569208 
    5650    601.54099   -7975.9258    -7908.823    752.62321    28336.773    3.6564879 
    5660    596.93716   -7975.2766   -7908.6874    914.87019    28341.785     3.660369 
    5670    592.11016   -7974.5942   -7908.5434    974.62841    28349.874    3.6673982 
    5680      594.502   -7974.6985   -7908.3809    825.71967    28361.228    3.6746139 
    5690    598.68798   -7974.9836   -7908.1991    635.63614     28375.43    3.6797532 
    5700    591.18818   -7973.9491   -7908.0011    506.99111    28391.872    3.6816837 
    5710    587.61435   -7973.3289   -7907.7796    343.34113    28410.112    3.6795703 
    5720    586.51089    -7972.946   -7907.5198    118.45147    28429.614    3.6748888 
    5730     587.4142   -7972.7459    -7907.219   -26.444516    28449.654    3.6699756 
    5740    589.07859   -7972.5927   -7906.8801    45.047045    28469.795    3.6655552 
    5750     589.4252   -7972.2645   -7906.5132    244.44825    28490.262    3.6602251 
    5760    596.04954   -7972.6141   -7906.1239    333.34738     28511.66    3.6536899 
    5770    601.05822    -7972.772    -7905.723    404.95058    28534.343    3.6489622 
    5780    602.55549   -7972.5447   -7905.3287    420.62435    28558.538    3.6488837 
    5790    614.85836   -7973.5428   -7904.9545    462.19898    28584.356    3.6534033 
    5800    616.73415   -7973.4203   -7904.6227    593.28111    28611.968    3.6620907 
    5810    606.48613   -7972.0001   -7904.3457    703.94574    28641.826    3.6743146 
    5820    620.14709   -7973.2885   -7904.1102    631.98104    28674.264    3.6873515 
    5830    630.43071   -7974.2492   -7903.9237    721.77559    28709.206    3.7001242 
    5840    629.12985   -7973.9922   -7903.8118    633.40273    28746.846    3.7130421 
    5850     628.8318   -7973.9173   -7903.7702    375.79533    28786.916    3.7274719 
    5860    622.56469   -7973.2348   -7903.7868    72.744282    28828.572    3.7456048 
    5870    619.32137   -7972.9344   -7903.8482    -287.2181    28870.759     3.766537 
    5880    617.22968   -7972.8003   -7903.9474   -485.71989    28912.274    3.7861282 
    5890    614.67628   -7972.6536   -7904.0856   -575.70954    28952.354    3.7995611 
    5900    614.56676   -7972.8179    -7904.262   -642.78847    28990.644    3.8065742 
    5910    607.70968   -7972.2618   -7904.4709   -644.91484    29026.883     3.811675 
    5920    604.17954   -7972.0986   -7904.7014   -725.72104    29060.972    3.8187575 
    5930    600.72957   -7971.9516   -7904.9393   -813.50891    29092.659    3.8297094 
    5940    600.46596   -7972.1648   -7905.1819   -1046.6848    29121.513    3.8439129 
    5950    602.10665   -7972.5996   -7905.4337   -1143.9906    29146.802    3.8597237 
    5960    598.24235   -7972.4332   -7905.6983    -1226.854    29168.103    3.8766484 
    5970    589.42338   -7971.7186   -7905.9675   -1247.2377    29185.104    3.8957582 
    5980    578.87227   -7970.7961    -7906.222   -985.70293    29197.796    3.9167559 
    5990    569.31823   -7969.9503   -7906.4419   -706.27478    29206.994    3.9379093 
    6000    565.33551   -7969.6698   -7906.6058   -557.69582    29213.658    3.9579664 
    6010    572.45479   -7970.5725   -7906.7143   -609.74003    29218.275    3.9778759 
    6020    574.25805   -7970.8307   -7906.7713    -582.5777    29220.763    4.0005525 
    6030    581.15442   -7971.6129   -7906.7842   -575.82493    29221.174    4.0254983 
    6040    588.26573    -7972.378   -7906.7561    -623.3875    29219.512    4.0496911 
    6050    593.19818   -7972.8694   -7906.6973   -632.82119    29215.638    4.0698084 
    6060    584.46704   -7971.8026   -7906.6044   -706.03826     29209.47    4.0839185 
    6070    577.44447   -7970.8707   -7906.4559   -867.82305    29200.731    4.0919617 
    6080    579.72531    -7970.884   -7906.2147   -1057.1958    29188.855    4.0971402 
    6090    583.96654   -7970.9957   -7905.8534   -1102.4578    29173.217    4.1040722 
    6100    585.46624   -7970.6728   -7905.3632   -1116.9454    29153.569    4.1144504 
    6110    577.69594   -7969.1906   -7904.7478   -1022.0491    29129.902     4.126169 
    6120    576.54353     -7968.34   -7904.0257   -935.87905    29102.501    4.1355928 
    6130    587.70566   -7968.7944    -7903.235   -736.97047    29071.722    4.1405358 
    6140    594.62239   -7968.7821   -7902.4511   -476.53364    29038.252    4.1415966 
    6150    605.04625   -7969.2427   -7901.7489   -378.84056    29002.944    4.1394393 
    6160    623.02529   -7970.6647   -7901.1653   -541.14826    28966.112     4.135527 
    6170    630.79118   -7971.0909   -7900.7252   -758.88734    28927.237    4.1334759 
    6180    632.75904   -7971.0111   -7900.4259   -783.50001    28885.656    4.1351904 
    6190    641.55547   -7971.8151   -7900.2486   -684.91966    28841.265    4.1398403 
    6200    631.66593   -7970.6334   -7900.1701   -176.34851    28794.559    4.1465627 
    6210    617.09587   -7968.9911   -7900.1532    395.99666    28747.205    4.1532613 
    6220     614.5355   -7968.7186   -7900.1662    665.46189      28701.1    4.1588253 
    6230    612.51206   -7968.5321   -7900.2055    775.50125    28657.242    4.1677737 
    6240    604.16575   -7967.6607   -7900.2651    852.62254    28616.054    4.1843326 
    6250    602.29632    -7967.521   -7900.3339    961.94776    28577.844    4.2068452 
    6260    611.27067   -7968.5982     -7900.41    857.91853    28542.897    4.2307815 
    6270    628.62552   -7970.6482   -7900.5241     682.3408    28510.889    4.2521747 
    6280    635.28694   -7971.5708   -7900.7036    742.42302     28481.31    4.2689164 
    6290    648.89975   -7973.3689   -7900.9831    782.46205    28454.266    4.2806464 
    6300     644.1061   -7973.2333   -7901.3823    908.56413    28429.929    4.2899475 
    6310     621.4019   -7971.1871   -7901.8688    1104.5326     28408.72    4.2977433 
    6320    604.89197   -7969.8573   -7902.3807    997.36602    28391.156    4.3053401 
    6330    602.87791   -7970.1324   -7902.8804    713.22711    28376.919    4.3149663 
    6340    607.95001   -7971.1782   -7903.3604    361.23832    28365.077     4.326355 
    6350    610.97719   -7971.9787   -7903.8233    110.23406     28354.49    4.3372003 
    6360     616.8778   -7973.0906    -7904.277   -156.22875     28344.25    4.3461307 
    6370    607.49869   -7972.4845   -7904.7171   -166.81598    28333.578    4.3548172 
    6380    601.01391   -7972.1625   -7905.1184   -182.42636    28322.333    4.3630284 
    6390    614.02028   -7973.9881   -7905.4932   -218.44014    28310.461    4.3695103 
    6400    609.79105   -7973.8771    -7905.854   -162.13463    28297.869    4.3771666 
    6410    597.88821   -7972.8909   -7906.1956   -153.05722    28284.685    4.3885888 
    6420    585.53806   -7971.8108   -7906.4931    -66.29249    28270.985    4.4026075 
    6430    581.03724   -7971.5482   -7906.7326    240.78303      28257.1    4.4160025 
    6440    582.41167   -7971.8784   -7906.9095    621.15384    28244.017    4.4264847 
    6450    598.28311   -7973.7847   -7907.0453    680.97327    28232.885    4.4335392 
    6460    605.98003   -7974.7704   -7907.1724    591.53077    28223.964    4.4399706 
    6470      593.141   -7973.4645   -7907.2987    600.37109    28217.023     4.449561 
    6480    583.98084   -7972.5484   -7907.4045    588.89259    28212.056    4.4620753 
    6490    584.54943   -7972.6806   -7907.4733    512.97124    28209.031    4.4757467 
    6500    589.14056   -7973.2276   -7907.5081    443.03318    28207.708     4.490837 
    6510    591.80589   -7973.5334   -7907.5166     492.2922    28207.896    4.5073231 
    6520    592.88228   -7973.6427   -7907.5058    612.52121     28209.76     4.524274 
    6530    590.92395    -7973.395   -7907.4766    652.67437    28213.669    4.5422942 
    6540    596.72273   -7973.9994   -7907.4341    512.49887    28219.721     4.562136 
    6550    596.65122    -7973.937   -7907.3797    505.10687    28227.573    4.5826155 
    6560    593.30601   -7973.4988   -7907.3146    650.24538    28237.215     4.600051 
    6570    588.67132   -7972.8986   -7907.2314    816.06516     28249.13    4.6108557 
    6580    587.93649    -7972.708   -7907.1228    813.04384    28263.815    4.6149039 
    6590    584.82918   -7972.2188   -7906.9803    875.63941    28281.354     4.614225 
    6600    578.70714   -7971.3524   -7906.7967    1059.0603    28302.016    4.6124127 
    6610    576.08243   -7970.8174   -7906.5545    1070.4698    28326.373     4.612532 
    6620    580.63942   -7971.0086   -7906.2374    835.31701    28354.468    4.6147997 
    6630    592.87415   -7971.9784   -7905.8424    615.53672    28385.655    4.6183708 
    6640    607.72896   -7973.1838   -7905.3907    418.07289    28419.224    4.6230953 
    6650    615.92081   -7973.6255   -7904.9186    266.52027    28454.541    4.6288272 
    6660    623.94216   -7974.0621   -7904.4604    14.594043    28491.046     4.635357 
    6670    627.87449    -7974.079   -7904.0387   -230.73656    28527.935    4.6443395 
    6680     618.3699   -7972.6502   -7903.6701   -540.13067    28564.316    4.6582055 
    6690    604.83192   -7970.8146   -7903.3447   -739.94662    28599.189    4.6765078 
    6700    597.83634   -7969.7289   -7903.0393   -887.00638    28631.818    4.6949935 
    6710    593.94235   -7968.9903   -7902.7352   -916.34873    28661.702    4.7088043 
    6720    598.28552   -7969.1687    -7902.429   -801.12726    28688.717      4.71726 
    6730     615.2491   -7970.7619   -7902.1299   -878.07665    28713.112    4.7224302 
    6740    626.25171   -7971.7273    -7901.868    -983.6387    28734.641    4.7263915 
    6750    623.48355   -7971.2253   -7901.6747   -1030.1079    28752.929    4.7306986 
    6760    617.74459   -7970.4569   -7901.5466    -987.9448    28767.814      4.73676 
    6770    613.97041   -7969.9552   -7901.4658    -858.0514    28779.409    4.7461894 
    6780    621.02544   -7970.6992   -7901.4229   -797.16588    28788.088    4.7582088 
    6790    618.50734   -7970.4187   -7901.4233   -636.64193    28794.109    4.7714953 
    6800    612.24536   -7969.7603   -7901.4634   -536.40111     28797.95    4.7855651 
    6810     618.4947   -7970.5289   -7901.5349   -519.19649    28799.936     4.800092 
    6820    619.54334   -7970.7587   -7901.6477   -368.82682    28800.179    4.8160777 
    6830    606.58357   -7969.4622   -7901.7968   -236.64213    28799.142    4.8341254 
    6840    603.92272   -7969.3331   -7901.9646   -305.69294    28797.212    4.8527824 
    6850    607.99003   -7969.9675   -7902.1453   -471.04339    28794.178    4.8698187 
    6860    611.85542   -7970.6086   -7902.3552   -556.44493    28789.507    4.8824997 
    6870    611.61651   -7970.8343   -7902.6075   -554.66924     28782.89    4.8895383 
    6880    610.68075   -7971.0335   -7902.9111   -567.86389    28774.286    4.8929876 
    6890    610.32931   -7971.3588   -7903.2756   -598.49624    28763.656    4.8966795 
    6900    612.90509   -7972.0896   -7903.7191   -842.99031    28750.805     4.902887 
    6910    607.99052   -7972.0846   -7904.2624   -1031.0146    28734.952    4.9120283 
    6920    595.95219   -7971.3752   -7904.8958   -935.37728    28715.488    4.9231493 
    6930    594.41063   -7971.9041   -7905.5967   -824.19759    28692.621    4.9340139 
    6940    605.66804   -7973.9235   -7906.3603   -685.10738    28666.737    4.9436418 
    6950    599.80866   -7974.0598   -7907.1502   -400.28446     28638.33    4.9532517 
    6960    582.46993   -7972.8498   -7907.8744   -37.315367    28608.332    4.9639884 
    6970    570.58844   -7972.0912   -7908.4412    315.94991    28577.968    4.9763233 
    6980    580.79466   -7973.6275    -7908.839    483.19409    28548.366    4.9880263 
    6990    583.35883   -7974.1704   -7909.0959    652.13025    28520.166    4.9992803 
    7000    579.48635   -7973.8866    -7909.244     865.7598    28493.943    5.0120183 
    7010    579.18721   -7973.9165   -7909.3073    1116.3011    28470.457    5.0257659 
    7020    588.85323   -7975.0054   -7909.3179    1158.7142     28450.49    5.0381637 
    7030    587.28652   -7974.8135   -7909.3008    1121.0567    28434.259    5.0493897 
    7040    577.06111   -7973.6343   -7909.2622    1045.4047    28421.664     5.061249 
    7050    567.26043   -7972.4663   -7909.1875    896.30799    28412.474    5.0718001 
    7060    562.00135   -7971.7509   -7909.0588    805.46996    28406.258     5.079835 
    7070    568.79867   -7972.3135   -7908.8631    687.25338    28402.712    5.0863403 
    7080    591.10961   -7974.5519   -7908.6128     298.6427     28401.39    5.0930689 
    7090    602.41605   -7975.5377   -7908.3373   -66.481075    28401.099    5.1024104 
    7100    606.99484   -7975.7853   -7908.0741    -261.8235    28400.644    5.1156739 
    7110     612.5496   -7976.1654   -7907.8345   -477.26974     28399.28    5.1314395 
    7120    607.71024    -7975.417    -7907.626   -486.43155    28396.333    5.1472461 
    7130    586.46109   -7972.8554   -7907.4348   -161.62387    28391.783    5.1603693 
    7140    578.69508   -7971.7797   -7907.2254    189.98939    28386.615    5.1678001 
    7150    585.40812   -7972.2767   -7906.9735    390.58031    28381.953    5.1693272 
    7160      587.524   -7972.2232    -7906.684    635.28543    28378.577    5.1680766 
    7170    590.94216   -7972.2885    -7906.368    767.84312     28377.27    5.1682049 
    7180    594.29407    -7972.328   -7906.0336    766.04415    28378.524    5.1721846 
    7190    599.95916    -7972.617   -7905.6907    527.19071    28382.343    5.1788974 
    7200    601.67351   -7972.4684   -7905.3508    187.24601    28387.986    5.1857598 
    7210    590.31683   -7970.8672   -7905.0165    143.77564     28394.47    5.1910648 
    7220    586.03905   -7970.0514   -7904.6778     218.2027    28401.605    5.1914173 
    7230    591.98315   -7970.3593   -7904.3227    216.73379    28409.603    5.1847628 
    7240    604.64695   -7971.4074   -7903.9582    151.85869    28418.481    5.1740401 
    7250     625.5734   -7973.3985   -7903.6149    80.727088    28428.041    5.1639627 
    7260    631.46943   -7973.7714   -7903.3301     131.3567    28438.121    5.1572834 
    7270    636.88638   -7974.1753   -7903.1297    69.412725    28448.816    5.1546295 
    7280    642.93689   -7974.7391   -7903.0186   -92.744397    28459.954     5.155668 
    7290     646.0479   -7975.0769   -7903.0093   -208.24817    28471.037    5.1590367 
    7300    644.38426   -7974.9902   -7903.1081   -267.99916    28481.651    5.1639064 
    7310    634.05392   -7974.0375   -7903.3079    -198.7562    28491.615    5.1691414 
    7320    619.99451   -7972.7434   -7903.5821   -208.16241    28501.086    5.1734335 
    7330    610.98275   -7972.0589   -7903.9029   -447.04454    28509.987    5.1767662 
    7340    588.61038   -7969.8931   -7904.2328   -531.47821    28517.619     5.179054 
    7350    570.46872   -7968.1597    -7904.523   -444.30012    28523.649    5.1785327 
    7360    577.42248   -7969.1684   -7904.7561   -390.48348    28528.268    5.1739197 
    7370    583.27507   -7970.0011   -7904.9359   -178.08429    28531.723    5.1668099 
    7380    592.37422   -7971.1616   -7905.0814   -60.010284    28534.625    5.1600624 
    7390    598.71622   -7971.9978   -7905.2101    102.71678    28537.421    5.1571375 
    7400    600.11731   -7972.2797   -7905.3357    313.62285    28540.661    5.1591136 
    7410    603.73182   -7972.8148   -7905.4676    287.12863    28544.985    5.1631358 
    7420    605.93439   -7973.2057   -7905.6128    80.163786    28550.352    5.1658534 
    7430    599.77096   -7972.6748   -7905.7694   -123.13982    28556.172    5.1649145 
    7440    594.38178   -7972.2335   -7905.9294   -467.77403    28561.668     5.160896 
    7450    582.31873   -7971.0352   -7906.0766   -616.24317    28565.756    5.1549941 
    7460    577.88127   -7970.6553   -7906.1918   -615.21669    28567.867    5.1478507 
    7470    587.26007   -7971.7827    -7906.273   -614.22834    28567.904    5.1421621 
    7480      581.848   -7971.2343   -7906.3282   -442.58773    28565.871    5.1415035 
    7490    582.03022   -7971.2816   -7906.3553   -263.54129     28562.27    5.1457909 
    7500    598.29101   -7973.0968   -7906.3565   -252.99883    28557.622    5.1505804 
    7510    600.60413   -7973.3407   -7906.3424   -180.87056    28552.012     5.151538 
    7520    604.98588   -7973.8168   -7906.3298   -121.56438    28545.645    5.1479597 
    7530    604.94651   -7973.8023   -7906.3196   -77.701545    28538.721     5.144599 
    7540    602.90484   -7973.5738   -7906.3189     -87.9821    28531.336    5.1459675 
    7550    597.47811   -7972.9726   -7906.3231   -150.61168    28523.469    5.1515699 
    7560    601.73415   -7973.4542   -7906.3298   -384.57358    28514.843    5.1573283 
    7570    609.84342   -7974.3721   -7906.3432   -579.80778    28504.687    5.1620897 
    7580    614.15265   -7974.8945   -7906.3848   -597.94123    28492.358    5.1697745 
    7590    598.27646   -7973.1977   -7906.4591   -318.95253    28477.801    5.1837342 
    7600    583.09269   -7971.5823   -7906.5374   -136.51706    28461.761    5.2015443 
    7610    590.63234   -7972.4854   -7906.5994   -129.87294     28444.82    5.2188895 
    7620    598.04312   -7973.3598   -7906.6471   0.11115263    28427.087    5.2340454 
    7630    604.10254   -7974.0863   -7906.6978    147.73428    28408.939    5.2463162 
    7640    602.86544   -7974.0068   -7906.7562    277.94084    28390.882    5.2571629 
    7650     605.7745   -7974.4069   -7906.8318    304.40577     28373.33    5.2672663 
    7660    598.51664    -7973.684   -7906.9186    395.81765    28356.432    5.2764481 
    7670    602.53082   -7974.2265   -7907.0132    529.29493    28340.502    5.2832479 
    7680    609.87432   -7975.1534    -7907.121    653.84892    28326.005    5.2875352 
    7690    608.72783   -7975.1593   -7907.2548    903.90875    28313.436    5.2906388 
    7700    607.05867   -7975.1343    -7907.416    1114.9462    28303.634    5.2952265 
    7710    608.79161   -7975.5168   -7907.6051    1106.6442    28297.322    5.3037971 
    7720    614.95439   -7976.4278   -7907.8287    1018.6446    28294.617      5.31533 
    7730     621.7421   -7977.4604   -7908.1041     940.8362    28295.304    5.3277822 
    7740    614.17201   -7976.9488   -7908.4369    993.42811     28299.25    5.3393412 
    7750    599.91347   -7975.7263    -7908.805    1050.5941    28306.668    5.3482594 
    7760    590.84363   -7975.0853   -7909.1758    1013.6064    28317.814    5.3552074 
    7770    590.03919   -7975.3512   -7909.5314    800.09264    28332.629    5.3612457 
    7780     583.0463   -7974.8965   -7909.8568     488.3837    28350.508    5.3679861 
    7790     586.4186    -7975.556   -7910.1401    119.24936    28370.487    5.3767764 
    7800    600.40456   -7977.3763   -7910.4003   -209.29285    28391.374    5.3877986 
    7810      589.106   -7976.3607    -7910.645   -299.07911    28412.129    5.4011784 
    7820    581.00985   -7975.6741   -7910.8616   -444.56409    28432.316    5.4158393 
    7830    584.69092    -7976.257   -7911.0339   -551.23261    28451.471    5.4315305 
    7840    591.95611   -7977.2107   -7911.1771   -413.96431    28469.264    5.4479405 
    7850    588.80058   -7976.9815   -7911.2999   -257.15199    28486.023    5.4618265 
    7860    590.98184    -7977.328   -7911.4031   -222.26346    28502.224     5.470836 
    7870    593.21535   -7977.6632   -7911.4891   -248.85836    28517.998    5.4784188 
    7880    588.16611   -7977.1717   -7911.5609   -241.73796    28533.296    5.4891096 
    7890    584.44563   -7976.8051   -7911.6093   -329.03316    28548.081    5.5045171 
    7900    584.22029   -7976.7978   -7911.6271   -546.56046    28562.002    5.5232322 
    7910    573.66203    -7975.597   -7911.6041   -636.08053    28574.388    5.5424894 
    7920    567.08799   -7974.7857   -7911.5261   -656.16838    28584.857      5.55766 
    7930    569.70737   -7974.9235   -7911.3717   -770.51659    28593.259    5.5654873 
    7940    579.77236   -7975.8124   -7911.1379   -869.82502    28599.187    5.5667208 
    7950    583.61947   -7975.9371   -7910.8334   -719.86237    28602.325    5.5642596 
    7960    587.51735   -7976.0038   -7910.4653   -719.00298    28602.987     5.559261 
    7970    595.36624   -7976.4512   -7910.0372   -803.03498     28601.16    5.5536265 
    7980    589.19428   -7975.2888   -7909.5633   -751.24461    28596.573    5.5516034 
    7990    578.69774   -7973.6065   -7909.0519   -605.28911    28589.327    5.5554776 
    8000    579.45925   -7973.1351   -7908.4956    -405.2073    28579.873      5.56393 
    8010    592.63923    -7974.014   -7907.9042   -271.70233    28568.827    5.5745747 
    8020    602.78105   -7974.5634   -7907.3223    -168.0784    28556.633     5.586774 
    8030    602.71694    -7974.035    -7906.801   -119.22503    28543.617    5.5999763 
    8040    605.39335   -7973.8947   -7906.3621   -175.66521    28529.919    5.6117177 
    8050    603.31217   -7973.3037   -7906.0033   -138.82576    28515.408    5.6191941 
    8060    600.58583   -7972.7126   -7905.7164   -60.277256    28500.177    5.6219079 
    8070     596.6385   -7972.0381   -7905.4822    33.890761    28484.468    5.6214126 
    8080    591.46735   -7971.2575   -7905.2784    199.25235    28468.622    5.6193492 
    8090    593.73197   -7971.3232   -7905.0915    318.93788    28453.165    5.6156999 
    8100    595.18432   -7971.3101   -7904.9164    441.19413    28438.531    5.6106333 
    8110    589.65616   -7970.5273   -7904.7502    605.56815    28425.178    5.6054225 
    8120    592.04874   -7970.6285   -7904.5846    576.16327    28413.595    5.6019541 
    8130    600.92042   -7971.4533   -7904.4198    486.53526    28403.778    5.6038337 
    8140     600.0893    -7971.209   -7904.2682     405.7095    28395.449    5.6108194 
    8150    590.13233   -7969.9554   -7904.1252    397.38714    28388.401    5.6177808 
    8160    590.75145   -7969.8777   -7903.9785    161.04553    28382.506    5.6221543 
    8170    590.30295   -7969.6682    -7903.819   -66.971006    28377.076    5.6269005 
    8180    591.44023   -7969.6238   -7903.6477    -335.6657    28371.311    5.6340939 
    8190    604.29102   -7970.8773   -7903.4677   -627.97851    28364.298    5.6425648 
    8200    614.14509   -7971.8078    -7903.299   -685.10873    28355.099    5.6516463 
    8210    618.92102   -7972.2045   -7903.1629    -522.0457    28343.493    5.6612513 
    8220    621.47822   -7972.3941   -7903.0673   -228.53218    28329.982    5.6715683 
    8230    615.31585   -7971.6489   -7903.0095    198.33232    28315.516    5.6803769 
    8240    605.37394   -7970.5073    -7902.977    522.07253    28301.453    5.6844628 
    8250    600.86713   -7969.9822   -7902.9545    635.28952    28288.876    5.6836212 
    8260    607.18494   -7970.6696   -7902.9372    693.27452    28278.232    5.6789318 
    8270    614.51873   -7971.4871   -7902.9366    765.89828    28269.759    5.6718411 
    8280    617.05078   -7971.8054   -7902.9725    889.83702    28263.764    5.6602845 
    8290    615.32589   -7971.6931   -7903.0526    958.31887    28260.664     5.643775 
    8300    620.18188   -7972.3628   -7903.1805    830.04808    28260.676    5.6271049 
    8310    626.92398   -7973.3084   -7903.3741    720.83341    28263.502    5.6159762 
    8320    621.26235   -7972.9491   -7903.6464    707.39925    28268.843    5.6128746 
    8330    622.06135   -7973.3953   -7904.0035    536.19613    28276.614    5.6161823 
    8340    616.06493    -7973.163     -7904.44    239.61052    28286.277    5.6233699 
    8350    615.57662    -7973.616   -7904.9475   -13.018618    28296.915    5.6317356 
    8360    619.43739   -7974.6232    -7905.524   -97.175298    28307.744    5.6408253 
    8370    612.61544   -7974.4893   -7906.1511   -47.616146    28318.474    5.6505696 
    8380     606.1306   -7974.4001   -7906.7853   -124.94866    28329.178    5.6593045 
    8390    604.27287   -7974.7916   -7907.3841   -288.03311    28339.609    5.6669909 
    8400    608.75447   -7975.8337   -7907.9263   -513.50424    28349.214    5.6744705 
    8410    610.34011   -7976.4948   -7908.4105   -477.76055    28357.336    5.6842251 
    8420    596.82761   -7975.3998   -7908.8228   -258.32534    28364.017    5.6992048 
    8430    589.29434   -7974.8848   -7909.1481   -50.278723    28369.929    5.7191069 
    8440    592.22456   -7975.4561   -7909.3926   -8.3240515      28375.7    5.7400734 
    8450     594.5549   -7975.8982   -7909.5747    33.931435    28381.555    5.7568183 
    8460    597.86686   -7976.4085   -7909.7155   -56.756301    28387.563    5.7662831 
    8470     597.6646   -7976.4995   -7909.8291    3.6313982     28393.53     5.769223 
[...]
   22890    613.88673   -7971.5342   -7903.0543    -82.19646    28093.572    12.214076 
   22900    613.46962   -7971.1836   -7902.7501   -71.769625    28087.019    12.203651 
   22910    629.01114   -7972.6759   -7902.5087   -66.615552    28080.337    12.191301 
   22920    633.96198   -7973.0651   -7902.3457    55.144965    28073.581    12.183886 
   22930    624.31763   -7971.9131   -7902.2695    244.64314    28067.126    12.186483 
   22940    624.38431   -7971.9142   -7902.2632    245.00327    28061.511    12.196226 
   22950    614.87041   -7970.8974   -7902.3076    396.68372    28056.855    12.208403 
   22960    607.89176   -7970.1942    -7902.383      618.797    28053.592    12.220849 
   22970    609.33978   -7970.4452   -7902.4725    783.76512    28052.391    12.231587 
   22980    614.88143    -7971.172   -7902.5811    859.89195    28053.747    12.240642 
   22990    612.17438   -7971.0025   -7902.7135    1056.1872    28057.957    12.250597 
   23000    608.39736   -7970.7313   -7902.8637    1187.2242    28065.543    12.261465 
   23010    609.79637   -7971.0536   -7903.0299    1119.1857    28076.851    12.272577 
   23020    604.01221   -7970.5876   -7903.2091    1040.9437    28091.658    12.284714 
   23030    595.68616   -7969.8382   -7903.3886    1164.9751    28109.731    12.297106 
   23040    604.68625   -7971.0134   -7903.5597    1114.7156    28131.318    12.308296 
   23050    619.74419   -7972.8708   -7903.7374    987.63906    28156.243    12.317819 
   23060    623.08797   -7973.4553   -7903.9489     980.0223    28184.084     12.32554 
   23070    624.65608   -7973.8889   -7904.2076    897.93131    28214.709    12.331402 
   23080    622.29151   -7973.9297   -7904.5121     889.5381    28247.858    12.335229 
   23090    614.86253   -7973.4402   -7904.8514    928.40113    28283.433    12.339028 
   23100    608.56463   -7973.0844   -7905.1981    835.64852    28321.463    12.346746 
   23110    602.71837   -7972.7576   -7905.5235    619.22551     28361.54    12.363207 
   23120    590.60471   -7971.6831   -7905.8003    472.48421    28402.962    12.392382 
   23130    594.38192   -7972.3234   -7906.0192     85.66441    28445.084     12.43277 
   23140    601.91128   -7973.3335   -7906.1894   -435.81742    28486.569      12.4793 
   23150    597.55045   -7972.9827    -7906.325   -785.68229    28525.739    12.525265 
   23160    596.94188   -7973.0224   -7906.4326   -1035.4047    28561.402    12.563311 
   23170    599.47949   -7973.3909   -7906.5181   -1229.2668    28592.724    12.588678 
   23180    601.75063   -7973.7164   -7906.5902   -1264.3591     28619.16    12.601953 
   23190    599.13391   -7973.4851   -7906.6508   -1168.6882    28640.678    12.607955 
   23200    603.36229   -7974.0143   -7906.7083   -1107.5279    28657.658    12.611555 
   23210    607.47661   -7974.5358   -7906.7708   -1054.7753    28670.426    12.615752 
   23220    610.88473   -7974.9907   -7906.8456   -911.63333    28679.303    12.622133 
   23230    613.58583   -7975.3851   -7906.9387   -862.97387    28684.798    12.631216 
   23240    607.77394   -7974.8445   -7907.0464   -763.60585    28687.237    12.640613 
   23250    609.72342   -7975.1784   -7907.1628   -777.15684    28686.974     12.64617 
   23260    616.33933   -7976.0481   -7907.2946   -742.83733    28684.117    12.647162 
   23270    616.81274   -7976.2581   -7907.4517    -666.2424    28678.845    12.646693 
   23280    615.58732   -7976.3055   -7907.6358   -669.21653    28671.475    12.647163 
   23290    607.58225   -7975.6134   -7907.8367   -725.11554    28662.063    12.649218 
   23300    601.14359   -7975.0986   -7908.0401   -850.17021    28650.474    12.651452 
   23310    596.73485   -7974.7997    -7908.233   -1010.3609    28636.377    12.648143 
   23320     597.6924   -7975.0846   -7908.4112   -1066.4904    28619.366    12.633626 
   23330    599.77435   -7975.4834   -7908.5777   -1064.1467    28599.341    12.612716 
   23340      602.344   -7975.9354   -7908.7431   -1000.7404    28576.432     12.59525 
   23350    595.73488   -7975.3634   -7908.9083   -937.18398    28550.942    12.583944 
   23360    591.73645   -7975.0749   -7909.0658   -952.52398     28523.15    12.574945 
   23370    591.75243   -7975.2124   -7909.2015    -998.7566     28493.12    12.563411 
   23380    602.67697   -7976.5514   -7909.3219   -1029.9931    28460.791    12.547067 
   23390    610.89211   -7977.5952   -7909.4493   -904.54032     28426.18    12.529685 
   23400      602.195   -7976.7668    -7909.591    -461.4664    28389.846    12.518791 
   23410    594.25818   -7976.0175   -7909.7271    24.761686    28353.258    12.518544 
   23420    592.24102    -7975.909   -7909.8436    246.87929    28317.954    12.526289 
   23430    597.99792   -7976.6562   -7909.9486    198.01461    28284.615    12.534539 
   23440    595.69462   -7976.5033   -7910.0527    51.481472    28253.041    12.538164 
   23450    588.30095   -7975.7763   -7910.1504   -58.293745    28222.736    12.533531 
   23460    597.40979   -7976.8825   -7910.2405   -334.65964    28193.196    12.521794 
   23470    601.93809    -7977.483   -7910.3359   -295.96284    28163.636    12.510043 
   23480    587.85738   -7976.0096   -7910.4332    158.58075    28134.203    12.503452 
   23490    585.87376   -7975.8731    -7910.518    454.71742    28106.178    12.504714 
   23500     591.9337   -7976.6178   -7910.5867     660.1442    28080.483    12.512713 
   23510    600.54531   -7977.6467   -7910.6549    927.49206    28057.736    12.519458 
   23520    600.87096   -7977.7646   -7910.7365    1230.1723    28038.698    12.518554 
   23530    600.27112   -7977.8063   -7910.8452    1406.9349    28024.169    12.509925 
   23540     607.9786   -7978.8154   -7910.9945    1372.1241    28014.559    12.496661 
   23550    613.65516    -7979.662   -7911.2078    1241.8565    28009.644    12.481638 
   23560    605.09105   -7978.9968    -7911.498    1138.6301    28008.902    12.465993 
   23570    595.54924   -7978.2873   -7911.8529    1057.7358    28011.896    12.448611 
   23580    602.14484   -7979.4372    -7912.267    801.19822    28018.207    12.431892 
   23590    595.01353   -7979.1035   -7912.7288    553.54049    28026.997     12.42365 
   23600    582.92751   -7978.2323   -7913.2059    405.84099    28037.424    12.428111 
   23610    581.45361   -7978.5276   -7913.6656    276.68662    28048.953    12.441856 
   23620    578.18865   -7978.5881   -7914.0903     166.1813    28061.156    12.458724 
   23630    576.22411   -7978.7441   -7914.4654     78.60393    28073.673    12.473633 
   23640    574.14529   -7978.8328    -7914.786    59.687745    28086.225    12.486464 
   23650    565.24933   -7978.0945   -7915.0401    192.82798    28098.796    12.498712 
   23660    571.99078   -7979.0313   -7915.2249    230.06858    28111.745    12.509234 
   23670    577.77662   -7979.8002   -7915.3483    316.92187    28125.258    12.517024 
   23680    583.69886   -7980.5384   -7915.4259    332.08957    28139.598     12.52312 
   23690    595.73989   -7981.9272   -7915.4715    67.142778    28154.725    12.527138 
   23700     597.8748   -7982.1956   -7915.5017   -86.186202    28169.893    12.525732 
   23710    596.85273   -7982.1088    -7915.529   -139.02703    28184.593    12.517278 
   23720    591.77549   -7981.5614    -7915.548   -14.866957    28198.688    12.503988 
   23730    586.45457   -7980.9734   -7915.5536    275.86313    28212.608    12.489431 
   23740    579.81919   -7980.2084   -7915.5287    449.19454    28227.234     12.47781 
   23750    583.47479   -7980.5499   -7915.4624    426.34866    28243.134     12.47483 
   23760    587.88508   -7980.9308   -7915.3514    232.00029    28260.223    12.485241 
   23770    590.07704   -7981.0244   -7915.2004    14.832614    28277.908    12.506137 
   23780    592.87763   -7981.1488   -7915.0124    -300.3675    28295.427    12.530378 
   23790    587.11123   -7980.2788   -7914.7857   -504.22437    28311.813    12.553041 
   23800    577.08643   -7978.8876   -7914.5127   -606.33472    28326.394    12.572575 
   23810    571.44614   -7977.9165   -7914.1708   -697.22089    28338.831    12.587511 
   23820    583.35948   -7978.8208   -7913.7462   -805.03714    28348.821    12.595613 
   23830    587.09829   -7978.7425   -7913.2508   -694.97475    28356.113    12.597803 
   23840    577.86519   -7977.1743   -7912.7125   -503.93349    28361.057    12.597711 
   23850    585.92938   -7977.5014   -7912.1401   -479.48625    28364.235    12.597576 
   23860    594.99255    -7977.925   -7911.5526   -501.41893    28365.776    12.596726 
   23870    592.66382   -7977.1103   -7910.9978   -457.59069    28365.651    12.594261 
   23880    588.72806   -7976.1721   -7910.4986   -459.95158    28363.976    12.592761 
   23890    583.65604   -7975.1616   -7910.0538    -370.7947    28360.806    12.593559 
   23900    584.41763   -7974.8474   -7909.6547   -253.71716    28356.407    12.596986 
   23910     594.0087   -7975.5585   -7909.2959   -24.302813    28351.241    12.605819 
   23920    601.84906   -7976.1207   -7908.9835    53.308724    28345.977     12.61907 
   23930    601.91852   -7975.8714   -7908.7265   -78.158026    28340.864    12.629519 
   23940    593.30441   -7974.6947   -7908.5107   -141.94984    28335.564    12.633192 
   23950    594.83934   -7974.6734   -7908.3182   -142.44404    28329.826    12.633893 
   23960    596.26935   -7974.6509   -7908.1362   -38.543663    28323.676    12.635669 
   23970    586.24055   -7973.3579   -7907.9619    233.64404    28317.484    12.636249 
   23980    578.94067   -7972.3602   -7907.7785    431.37267    28312.072    12.631385 
   23990    581.79453    -7972.469    -7907.569    566.65887    28308.115    12.620789 
   24000    590.66622   -7973.2236   -7907.3339    598.38343    28306.037    12.606496 
   24010    608.39002   -7974.9591   -7907.0922    432.68801    28305.918    12.591365 
   24020    615.39761   -7975.5181   -7906.8696     245.4132    28307.258    12.577725 
   24030    619.70092   -7975.8172   -7906.6886   -99.242551    28309.366    12.566679 
   24040    618.81966   -7975.5874   -7906.5572   -437.54766    28311.132    12.558493 
   24050     607.2828   -7974.2129   -7906.4696   -407.46204    28311.563    12.549711 
   24060    602.04934   -7973.5624   -7906.4029   -352.19248    28310.638    12.534998 
   24070    614.34055   -7974.8783   -7906.3476   -418.54486    28308.487    12.511952 
   24080     621.8223   -7975.6812    -7906.316   -342.44951    28304.971    12.484439 
   24090    620.78492   -7975.5792   -7906.3297   -147.79758    28300.339    12.457177 
   24100    611.90271   -7974.6456    -7906.387     107.3011    28295.233    12.432686 
   24110    607.02775   -7974.1905   -7906.4757    449.03387    28290.516    12.412706 
   24120     611.7083   -7974.8257   -7906.5888    621.30131    28287.256     12.39989 
   24130    616.40499   -7975.4992   -7906.7383    670.52461    28286.049    12.396259 
   24140     613.2604   -7975.3435   -7906.9334      546.166    28287.049    12.399172 
   24150    609.42698   -7975.1562   -7907.1737    264.04253    28289.843    12.405401 
   24160    596.46671   -7973.9798    -7907.443    170.09086      28293.6    12.411908 
   24170    585.64988   -7973.0473   -7907.7171    209.32768    28297.985    12.414276 
   24180    582.47703   -7972.9515   -7907.9753    130.47369     28303.06    12.410915 
   24190    585.32304   -7973.5073   -7908.2137   -3.2269403     28308.58    12.406321 
   24200    591.87923   -7974.4659   -7908.4409    16.499595    28314.147    12.408621 
   24210    589.91018   -7974.4697   -7908.6644    232.11103    28319.843    12.418227 
   24220    586.82447   -7974.3422   -7908.8811    477.94035    28326.361    12.429728 
   24230    592.50981   -7975.1849   -7909.0896    388.09194    28334.415    12.440563 
   24240    600.59316   -7976.2994   -7909.3024    136.12717    28343.756    12.453019 
   24250    605.55568   -7977.0939   -7909.5433   -56.233652    28353.584    12.470402 
   24260    601.30681   -7976.8992   -7909.8225    -136.2054    28363.295    12.493379 
   24270    598.24464   -7976.8731    -7910.138   -321.13125    28372.555    12.515071 
   24280     604.1132   -7977.8857    -7910.496   -609.92905    28380.735    12.531008 
   24290    603.89476   -7978.2731   -7910.9077   -741.92567    28386.946    12.545444 
   24300    595.73583   -7977.8221   -7911.3669    -829.8199    28390.693    12.563234 
   24310    590.21383   -7977.6913    -7911.852   -867.27723    28391.678    12.582094 
   24320    590.85355   -7978.2602   -7912.3496   -937.26213    28389.725    12.597647 
   24330    595.50516   -7979.2824   -7912.8529   -1127.9091    28384.565    12.612714 
   24340     600.9797   -7980.3995   -7913.3593   -1218.0823     28375.62    12.632759 
   24350    598.36809   -7980.6112   -7913.8623   -1045.6957    28362.618    12.657594 
   24360    584.78867   -7979.5669   -7914.3329   -643.15868    28346.135    12.683874 
   24370    568.99274   -7978.1991   -7914.7271    -280.7172     28327.46    12.709479 
   24380     564.7442   -7978.0194   -7915.0214   -61.544275     28307.78    12.734849 
   24390    565.75203   -7978.3263   -7915.2158    76.129799    28287.856    12.761464 
   24400    567.83224   -7978.6669   -7915.3244    118.25287    28268.156    12.789398 
   24410    567.08666   -7978.6146   -7915.3552    133.59093    28248.855    12.816344 
   24420    571.12602   -7979.0306   -7915.3207    11.823781    28229.965    12.839832 
   24430    576.93009   -7979.5873   -7915.2299   -103.67151    28211.134    12.857222 
   24440    583.30796     -7980.17   -7915.1011    48.573138    28192.032    12.868082 
   24450    572.61455    -7978.815    -7914.939    519.36581    28173.211    12.874453 
   24460    565.38981   -7977.8118   -7914.7417    800.31045    28156.083     12.87807 
   24470    569.25594   -7978.0056   -7914.5043    868.94161    28141.573    12.881487 
   24480    579.49917   -7978.8801   -7914.2361    903.63685    28129.949    12.887682 
   24490    590.05902    -7979.781    -7913.959    886.06645    28121.298    12.896832 
   24500    591.78041   -7979.7076   -7913.6936    874.59047    28115.608    12.907621 
   24510     596.0274   -7979.9398    -7913.452    792.83725    28112.801    12.917009 
   24520    597.81403   -7979.9226   -7913.2356    707.82751     28112.64    12.920421 
   24530    604.37439   -7980.4693   -7913.0504    589.84978    28114.836    12.917848 
   24540    606.46506   -7980.5513   -7912.8992    388.55208    28118.962    12.917131 
   24550    601.46972   -7979.8773   -7912.7824    148.13718    28124.369    12.926843 
   24560    594.40223   -7978.9904    -7912.684   -124.73675    28130.245    12.948605 
   24570    591.97258   -7978.6195   -7912.5841   -212.53181    28135.768    12.977241 
   24580    590.66383   -7978.3649   -7912.4754   -93.790152    28140.654    13.006328 
   24590    591.62475   -7978.3548   -7912.3582   -1.9586952     28145.21     13.03058 
   24600    588.91583   -7977.9295    -7912.235    34.920537    28149.755    13.047734 
   24610    578.08571   -7976.5847   -7912.0984    94.514425    28154.429    13.057721 
   24620    574.50917   -7976.0187   -7911.9314     25.16551    28159.378    13.062869 
   24630    579.50566   -7976.3706   -7911.7259   -63.514355    28164.402    13.066879 
   24640    578.84674   -7976.0568   -7911.4855    32.023891    28169.279    13.069727 
   24650    588.32811   -7976.8459    -7911.217    64.532205    28174.244    13.068128 
   24660    604.20102   -7978.3348   -7910.9352     37.33296    28179.406    13.061975 
   24670    606.76847   -7978.3567   -7910.6707    162.46141     28184.76    13.056265 
   24680    605.87629   -7978.0231   -7910.4367    123.80603    28190.616    13.056025 
   24690    613.23776   -7978.6363   -7910.2287   -152.74058    28196.829    13.063275 
   24700    613.94184   -7978.5407   -7910.0546   -440.61173    28202.528    13.075571 
   24710    605.06517   -7977.4134   -7909.9175    -566.7207    28206.819    13.086504 
   24720    599.98628   -7976.7322   -7909.8028   -548.43656    28209.278    13.091036 
   24730    603.05385   -7976.9672   -7909.6956   -581.25929    28209.894    13.089088 
   24740     612.2775   -7977.9005      -7909.6   -614.25179     28208.57     13.08471 
   24750    620.45616   -7978.7458    -7909.533   -468.34246     28205.26    13.083074 
   24760     626.2372   -7979.3722   -7909.5145   -391.12162    28200.349    13.087804 
   24770    621.94781   -7978.9303   -7909.5511    -278.9356     28194.15    13.098774 
   24780    622.48878   -7979.0824   -7909.6429   -118.28235    28187.037    13.111971 
   24790    625.35688    -7979.549   -7909.7895    51.435841    28179.532    13.122376 
   24800    621.90277   -7979.3723   -7909.9982    206.19217    28172.186    13.127585 
   24810    611.63147   -7978.4895   -7910.2611    268.03714    28165.501    13.127696 
   24820    606.33624   -7978.2031   -7910.5654    148.64277    28159.638    13.123902 
   24830    594.61881   -7977.2252   -7910.8946    138.46853    28154.306    13.118148 
   24840    580.45948   -7975.9717   -7911.2206    229.54173    28149.456    13.111082 
   24850     576.4776   -7975.8262   -7911.5193    140.66846    28145.302    13.101689 
   24860    576.44193   -7976.0841   -7911.7811    -35.06319    28141.587    13.090985 
   24870    579.34231   -7976.6322   -7912.0057   -148.44224    28137.763    13.080146 
   24880    579.00917   -7976.7868   -7912.1975   -155.82971    28133.476     13.06884 
   24890    579.77453   -7977.0341   -7912.3594   -122.73037    28128.689     13.05721 
   24900    583.02977    -7977.536   -7912.4982   -185.48114    28123.453    13.050387 
   24910    579.03235   -7977.2107   -7912.6188   -127.24991    28117.641    13.052763 
   24920    569.40014   -7976.2269   -7912.7095   -30.003102     28111.42    13.062187 
   24930    572.88105   -7976.6637    -7912.758   -131.55737    28105.013    13.074216 
   24940    577.54559   -7977.1826   -7912.7565   -136.62953    28098.189    13.085664 
   24950     572.1948   -7976.5263   -7912.6971    17.299324    28090.925    13.093579 
   24960    566.15132   -7975.7101   -7912.5551    247.68563     28083.71    13.094226 
   24970    563.74465   -7975.1793   -7912.2927    477.87436    28077.304    13.087918 
   24980     578.3247   -7976.3963   -7911.8833    620.36969    28072.433    13.079581 
   24990    603.94176   -7978.7018   -7911.3312    651.15739    28069.546    13.071563 
   25000    619.39968   -7979.7912   -7910.6963    792.79845    28068.854    13.059595 
Loop time of 19381.4 on 16 procs for 20000 steps with 864 atoms

Performance: 0.089 ns/day, 269.185 hours/ns, 1.032 timesteps/s
98.0% CPU use with 16 MPI tasks x 1 OpenMP threads

MPI task timing breakdown:
Section |  min time  |  avg time  |  max time  |%varavg| %total
---------------------------------------------------------------
Pair    | 11099      | 16111      | 18463      |1893.8 | 83.13
Bond    | 0.0027342  | 0.0075584  | 0.01373    |   3.6 |  0.00
Neigh   | 0.22501    | 0.24875    | 0.30947    |   4.0 |  0.00
Comm    | 353.63     | 2693.9     | 7456.1     |4461.6 | 13.90
Output  | 2.2784     | 2.3559     | 2.9991     |  10.9 |  0.01
Modify  | 233.36     | 573.21     | 1167.2     |1151.3 |  2.96
Other   |            | 0.2115     |            |       |  0.00

Nlocal:        54.0000 ave          59 max          49 min
Histogram: 1 1 3 2 0 2 2 1 0 4
Nghost:        419.812 ave         463 max         390 min
Histogram: 2 1 4 2 1 3 0 2 0 1
Neighs:         0.00000 ave           0 max           0 min
Histogram: 16 0 0 0 0 0 0 0 0 0
FullNghs:      1617.62 ave        1954 max        1416 min
Histogram: 3 2 4 2 0 0 1 2 0 2

Total # of neighbors = 25882
Ave neighs/atom = 29.956019
Ave special neighs/atom = 0.0000000
Neighbor list builds = 2000
Dangerous builds = 2000
unfix   3
                
Total wall time: 6:43:07
