LAMMPS (29 Sep 2021 - Update 3)
OMP_NUM_THREADS environment is not set. Defaulting to 1 thread. (src/comm.cpp:98)
  using 1 OpenMP thread(s) per MPI task
units	metal
atom_style	full

read_data	mixed.data
Reading data file ...
  orthogonal box = (0.0000000 0.0000000 0.0000000) to (19.174564 18.334371 80.209106)
  2 by 1 by 8 MPI processor grid
  reading atoms ...
  864 atoms
Finding 1-2 1-3 1-4 neighbors ...
  special bond factors lj:    0        0        0       
  special bond factors coul:  0        0        0       
     0 = max # of 1-2 neighbors
     0 = max # of 1-3 neighbors
     0 = max # of 1-4 neighbors
     1 = max # of special neighbors
  special bonds CPU = 0.001 seconds
  read_data CPU = 0.032 seconds

pair_style	quip
pair_coeff	* * /ocean/projects/cts180021p/wuziqi/clease/mint-PD/PhaseDiagram-Clease/Liquid/GAP_potential/gap_LiKCl.xml "Potential xml_label=GAP_2021_9_27_0_1_17_37_618" 17 19 3

neighbor	0.3 bin
neigh_modify	delay 10

timestep	0.001
compute	msd all msd
thermo_style	custom step temp pe etotal press vol c_msd[4]
thermo	10
dump	1 all custom 10 xyz-mix.dump type id x y z
dump	2 all custom 10 force-mix.dump type id fx fy fz

fix     1 all nve
run     2000
Neighbor list info ...
  update every 1 steps, delay 10 steps, check yes
  max neighbors/atom: 2000, page size: 100000
  master list distance cutoff = 6.22
  ghost atom cutoff = 6.22
  binsize = 3.11, bins = 7 6 26
  1 neighbor lists, perpetual/occasional/extra = 1 0 0
  (1) pair quip, perpetual
      attributes: full, newton on
      pair build: full/bin
      stencil: full/bin/3d
      bin: standard
Per MPI rank memory allocation (min/avg/max) = 8.893 | 8.896 | 8.899 Mbytes
Step Temp PotEng TotEng Press Volume c_msd[4] 
       0            0   -7433.4988   -7433.4988   -3276.2935    28197.798            0 
      10    52.404798   -7439.3508    -7433.505   -3251.1444    28197.798 0.00037653742 
      20    139.99986   -7449.1283   -7433.5111   -2882.4638    28197.798 0.0046525409 
      30    184.89844   -7454.1347    -7433.509   -2125.0677    28197.798  0.015985103 
      40    208.94932   -7456.8149   -7433.5063   -1662.4669    28197.798  0.031135218 
      50    246.75939   -7461.0345   -7433.5082   -1664.6184    28197.798   0.04535964 
      60    276.85124   -7464.3928   -7433.5096   -1760.8171    28197.798  0.058304449 
      70    281.74509   -7464.9368   -7433.5077   -1780.9744    28197.798  0.071745136 
      80    278.62215   -7464.5886   -7433.5078   -1830.5145    28197.798  0.086537519 
      90    271.63877   -7463.8088   -7433.5071   -1784.3037    28197.798   0.10323335 
     100    268.54351   -7463.4633   -7433.5068   -1527.9053    28197.798   0.12174182 
     110    273.48277   -7464.0152   -7433.5078   -1273.3517    28197.798   0.14167857 
     120    278.69582   -7464.5968   -7433.5079   -1205.0202    28197.798   0.16248057 
     130    280.47217   -7464.7953   -7433.5082   -1323.1784    28197.798   0.18317475 
     140    277.20241   -7464.4295   -7433.5071   -1372.0801    28197.798   0.20283031 
     150    282.78617    -7465.053   -7433.5078   -1505.2169    28197.798   0.22058727 
     160     290.1136   -7465.8712   -7433.5086   -1674.0159    28197.798   0.23758181 
     170    284.88573   -7465.2876   -7433.5082   -1706.4981    28197.798   0.25570249 
     180    274.35333   -7464.1113   -7433.5068   -1718.6147    28197.798    0.2744632 
     190    276.48598   -7464.3491   -7433.5066   -1804.1052    28197.798   0.29182989 
     200    291.90348   -7466.0708   -7433.5085   -1940.0736    28197.798   0.30710935 
     210    297.83834   -7466.7336   -7433.5092    -1986.102    28197.798    0.3219422 
     220    286.77102   -7465.4971   -7433.5074   -2078.2599    28197.798   0.33684136 
     230    279.78719   -7464.7179   -7433.5072   -2190.0553    28197.798   0.35047641 
     240    281.73444   -7464.9357   -7433.5078    -2262.753    28197.798   0.36287355 
     250    285.80956   -7465.3901   -7433.5076    -2332.639    28197.798   0.37537005 
     260    292.11854   -7466.0939   -7433.5076   -2475.3781    28197.798    0.3890125 
     270    301.52725   -7467.1437   -7433.5079    -2617.426    28197.798   0.40407374 
     280    309.73897   -7468.0605   -7433.5086   -2752.0145    28197.798   0.42025778 
     290     308.0229   -7467.8686   -7433.5082   -2715.4369    28197.798   0.43692842 
     300    301.85764   -7467.1796   -7433.5069   -2565.9773    28197.798   0.45280033 
     310    304.69869   -7467.4976    -7433.508   -2628.8465    28197.798   0.46676108 
     320     307.0623   -7467.7615   -7433.5082   -2768.8787    28197.798   0.47983687 
     330    305.41709   -7467.5778    -7433.508      -2765.1    28197.798   0.49324396 
     340    302.56991     -7467.26   -7433.5078   -2716.3178    28197.798   0.50716353 
     350    300.34229   -7467.0112   -7433.5075   -2658.0167    28197.798   0.52121437 
     360    300.13685   -7466.9889   -7433.5081   -2535.9529    28197.798    0.5349885 
     370    296.38971   -7466.5706   -7433.5079   -2515.3636    28197.798   0.54851429 
     380    291.53808   -7466.0294   -7433.5079    -2529.736    28197.798   0.56205372 
     390     290.1885   -7465.8788   -7433.5078   -2482.9536    28197.798   0.57569719 
     400    291.57655   -7466.0341   -7433.5083   -2460.7608    28197.798   0.58950816 
     410    291.81754   -7466.0603   -7433.5076   -2418.5806    28197.798   0.60282046 
     420    298.48497   -7466.8046   -7433.5081   -2435.9821    28197.798   0.61423917 
     430    304.86003   -7467.5166    -7433.509   -2500.2682    28197.798   0.62410746 
     440    300.53815   -7467.0334   -7433.5079   -2482.1647    28197.798   0.63337578 
     450    297.90616   -7466.7393   -7433.5074   -2405.1031    28197.798   0.64188608 
     460    305.04414   -7467.5363   -7433.5082   -2344.8776    28197.798   0.64994066 
     470    313.18339   -7468.4445   -7433.5084   -2312.4999    28197.798   0.65909106 
     480    315.98519   -7468.7577   -7433.5091    -2216.287    28197.798   0.67012074 
     490    307.67199   -7467.8296   -7433.5083   -2089.9887    28197.798   0.68241459 
     500    299.91726   -7466.9628   -7433.5066    -1960.647    28197.798   0.69416783 
     510    308.53611   -7467.9263   -7433.5087   -1960.4852    28197.798   0.70416346 
     520    314.23793   -7468.5623   -7433.5086    -2016.915    28197.798   0.71410879 
     530    312.42144   -7468.3595   -7433.5085   -1984.2099    28197.798   0.72571833 
     540    307.01613   -7467.7561    -7433.508   -1823.8796    28197.798   0.73855723 
     550    303.44774   -7467.3583   -7433.5082   -1689.4313    28197.798   0.75080443 
     560    302.80868   -7467.2868   -7433.5081   -1721.8734    28197.798   0.76028881 
     570    306.14156   -7467.6591   -7433.5086   -1896.0317    28197.798   0.76577262 
     580    306.93991    -7467.748   -7433.5084   -2073.7003    28197.798   0.76829475 
     590    304.78082   -7467.5068   -7433.5081   -2160.3833    28197.798   0.76976388 
     600    306.71546   -7467.7219   -7433.5073    -2171.429    28197.798   0.77165514 
     610    317.96515   -7468.9782   -7433.5087   -2147.6693    28197.798   0.77469492 
     620    323.44563   -7469.5898    -7433.509   -2055.8519    28197.798   0.77920454 
     630    319.88606   -7469.1913   -7433.5076   -1961.8604    28197.798   0.78506808 
     640    323.09929   -7469.5502   -7433.5079   -1999.1427    28197.798   0.79162168 
     650    330.22678   -7470.3467   -7433.5094   -2105.0366    28197.798     0.799145 
     660    325.03755   -7469.7673   -7433.5088   -2197.0267    28197.798   0.80803625 
     670    314.39576   -7468.5789   -7433.5076   -2235.4599    28197.798    0.8167893 
     680    312.43479   -7468.3614   -7433.5088   -2308.4479    28197.798   0.82351397 
     690    307.50893   -7467.8118   -7433.5087   -2373.4206    28197.798   0.82881195 
     700    298.71836   -7466.8303   -7433.5078   -2292.5189    28197.798   0.83403601 
     710    295.74109    -7466.498   -7433.5077   -2234.6653    28197.798    0.8394168 
     720    303.45036   -7467.3579   -7433.5076   -2292.9548    28197.798   0.84453546 
     730    318.26702   -7469.0126   -7433.5094    -2401.384    28197.798   0.84949034 
     740    319.34393    -7469.132   -7433.5087   -2368.6494    28197.798   0.85545651 
     750    314.90106   -7468.6353   -7433.5076   -2297.5898    28197.798   0.86221479 
     760    318.89541   -7469.0818   -7433.5085   -2261.3305    28197.798     0.868374 
     770    321.30469   -7469.3508   -7433.5087   -2239.4677    28197.798   0.87328839 
     780     318.1442   -7468.9979   -7433.5085   -2193.7408    28197.798   0.87694376 
     790    311.48519   -7468.2551   -7433.5085   -2098.5648    28197.798   0.87939462 
     800    306.47815   -7467.6949   -7433.5068   -1982.0979    28197.798   0.88141231 
     810    316.96018   -7468.8665   -7433.5091    -1983.996    28197.798   0.88434461 
     820    319.28905   -7469.1263   -7433.5092    -1988.341    28197.798   0.89005413 
     830    311.73538   -7468.2821   -7433.5075   -1995.9118    28197.798   0.89840964 
     840    311.65354   -7468.2738   -7433.5084   -2001.3043    28197.798   0.90692957 
     850    312.67197   -7468.3873   -7433.5082   -2004.4044    28197.798    0.9137187 
     860    315.83867   -7468.7406   -7433.5083   -2079.1873    28197.798   0.91829904 
     870    320.71995   -7469.2858    -7433.509   -2168.5597    28197.798   0.92142159 
     880    320.57652   -7469.2691   -7433.5083   -2173.6428    28197.798   0.92519045 
     890    318.91447   -7469.0843   -7433.5089   -2156.9615    28197.798   0.93124072 
     900    312.61391   -7468.3805   -7433.5079    -2099.649    28197.798   0.93924677 
     910    312.10913   -7468.3244   -7433.5082   -2047.7717    28197.798   0.94673589 
     920    316.04181   -7468.7639    -7433.509   -1987.5347    28197.798   0.95198829 
     930    315.03787    -7468.652    -7433.509   -1844.1499    28197.798   0.95534233 
     940    309.80641    -7468.067   -7433.5076   -1661.8607    28197.798   0.95785559 
     950    314.68824   -7468.6122   -7433.5082   -1685.0824    28197.798   0.96071691 
     960    324.95429   -7469.7579   -7433.5087   -1820.0386    28197.798   0.96600779 
     970    331.35116   -7470.4718   -7433.5091    -1957.237    28197.798   0.97519119 
     980     329.7825   -7470.2967    -7433.509   -1901.9892    28197.798   0.98742251 
     990    322.65959   -7469.5016   -7433.5084   -1774.2109    28197.798    1.0002266 
    1000    316.60889   -7468.8269   -7433.5087   -1746.2277    28197.798     1.011533 
    1010    311.25193    -7468.229   -7433.5084   -1845.6806    28197.798      1.02082 
    1020    307.20804   -7467.7784   -7433.5089   -2068.9867    28197.798    1.0281087 
    1030    300.75734    -7467.058    -7433.508   -2239.9958    28197.798    1.0338805 
    1040    299.87308   -7466.9592   -7433.5079   -2372.2706    28197.798    1.0391214 
    1050    306.88679   -7467.7423   -7433.5086   -2472.0727    28197.798    1.0450663 
    1060    312.67567   -7468.3884    -7433.509   -2543.5336    28197.798    1.0516895 
    1070     312.8664   -7468.4091   -7433.5084   -2570.2571    28197.798    1.0572381 
    1080    312.76626   -7468.3979   -7433.5084   -2664.3961    28197.798    1.0603499 
    1090    312.81427   -7468.4033   -7433.5084   -2700.2906    28197.798    1.0615235 
    1100    312.52187   -7468.3705   -7433.5082   -2687.2237    28197.798    1.0621707 
    1110    312.75056   -7468.3963   -7433.5085   -2641.2369    28197.798    1.0634308 
    1120    311.63928   -7468.2725   -7433.5087   -2523.8064    28197.798    1.0656422 
    1130    309.44865   -7468.0275    -7433.508   -2319.4135    28197.798    1.0686259 
    1140    314.06598   -7468.5434   -7433.5089   -2167.0113    28197.798    1.0722483 
    1150    316.84713   -7468.8536   -7433.5088   -2057.6275    28197.798    1.0766087 
    1160     317.6305   -7468.9401    -7433.508   -1909.0819    28197.798    1.0804093 
    1170    324.21655   -7469.6761   -7433.5093   -1794.4319    28197.798    1.0823291 
    1180    324.83339   -7469.7444   -7433.5088   -1595.8979    28197.798      1.08324 
    1190     323.0656    -7469.547   -7433.5086   -1375.8946    28197.798    1.0843645 
    1200    326.00229   -7469.8755   -7433.5094   -1363.0761    28197.798    1.0866847 
    1210    323.60131   -7469.6075   -7433.5093   -1443.8788    28197.798    1.0914376 
    1220    314.86633   -7468.6315   -7433.5077    -1441.619    28197.798    1.0987426 
    1230    317.32768   -7468.9064    -7433.508   -1559.6432    28197.798    1.1065849 
    1240    326.61768   -7469.9442   -7433.5095    -1737.292    28197.798    1.1124274 
    1250    327.91435   -7470.0882   -7433.5088   -1749.2493    28197.798    1.1148136 
    1260    327.41425   -7470.0321   -7433.5085   -1712.0432    28197.798    1.1139762 
    1270    328.75653   -7470.1825   -7433.5092   -1683.8137    28197.798    1.1115386 
    1280    325.80598   -7469.8529   -7433.5088   -1538.0149    28197.798    1.1099118 
    1290    323.59797   -7469.6061   -7433.5083    -1393.147    28197.798    1.1110394 
    1300    328.71985   -7470.1782    -7433.509   -1431.9253    28197.798    1.1157633 
    1310    332.05384   -7470.5509   -7433.5098   -1601.7046    28197.798    1.1238464 
    1320    326.34719   -7469.9128   -7433.5083    -1756.141    28197.798    1.1334851 
    1330    324.68525   -7469.7281    -7433.509   -1866.9567    28197.798    1.1424768 
    1340    323.62895   -7469.6106   -7433.5093   -1820.3961    28197.798    1.1503474 
    1350    321.18374   -7469.3371   -7433.5086   -1632.9848    28197.798    1.1571992 
    1360    323.09507   -7469.5509   -7433.5091   -1587.1482    28197.798    1.1631636 
    1370    324.29232   -7469.6842   -7433.5089   -1616.6449    28197.798    1.1686982 
    1380     326.2503   -7469.9023   -7433.5086   -1636.9188    28197.798     1.173831 
    1390    332.41763   -7470.5906   -7433.5089   -1665.6686    28197.798     1.178143 
    1400     337.5602   -7471.1651   -7433.5097   -1687.4959    28197.798    1.1818866 
    1410    333.85834   -7470.7513   -7433.5089   -1669.0761    28197.798    1.1862746 
    1420    329.15392   -7470.2262   -7433.5086   -1696.7844    28197.798     1.192114 
    1430    328.52491   -7470.1563   -7433.5089   -1763.0447    28197.798    1.1993094 
    1440     327.3183   -7470.0222   -7433.5093   -1740.2368    28197.798    1.2070267 
    1450    320.56166   -7469.2677   -7433.5086   -1571.8358    28197.798    1.2140574 
    1460    317.21612   -7468.8939    -7433.508   -1450.6782    28197.798    1.2193446 
    1470    324.56132   -7469.7143    -7433.509   -1410.6769    28197.798    1.2226826 
    1480    330.13379   -7470.3368   -7433.5098   -1431.8034    28197.798    1.2245776 
    1490    325.99003   -7469.8731   -7433.5084   -1460.0301    28197.798    1.2251991 
    1500    326.34111   -7469.9125   -7433.5087   -1492.8131    28197.798    1.2250425 
    1510    328.98361   -7470.2082   -7433.5096   -1366.0993    28197.798    1.2258269 
    1520    323.19049   -7469.5616   -7433.5092   -1233.2236    28197.798    1.2287949 
    1530    314.30765   -7468.5695    -7433.508   -1166.0146    28197.798     1.233467 
    1540    316.88621   -7468.8578   -7433.5086   -1296.0227    28197.798    1.2387587 
    1550    324.65879   -7469.7256   -7433.5094   -1479.6195    28197.798    1.2448694 
    1560    327.50012   -7470.0423   -7433.5091   -1643.9366    28197.798    1.2525129 
    1570    327.65604   -7470.0595    -7433.509   -1741.9673    28197.798    1.2614899 
    1580    328.47786    -7470.151   -7433.5088   -1769.2005    28197.798    1.2709819 
    1590    329.28696   -7470.2422   -7433.5097   -1803.0203    28197.798    1.2802744 
    1600     321.9951   -7469.4276   -7433.5085   -1826.5634    28197.798    1.2894024 
    1610    317.74199   -7468.9527   -7433.5082   -1871.7877    28197.798    1.2978342 
    1620    322.49906   -7469.4845   -7433.5092   -1926.4056    28197.798    1.3047741 
    1630    324.53767   -7469.7123   -7433.5097    -1886.055    28197.798    1.3106314 
    1640    321.32055   -7469.3524   -7433.5086   -1889.5966    28197.798    1.3165616 
    1650    324.87363   -7469.7495   -7433.5094   -2048.7483    28197.798    1.3231018 
    1660    327.06048   -7469.9934   -7433.5093   -2321.9126    28197.798    1.3301325 
    1670    327.01807    -7469.988   -7433.5087   -2463.2173    28197.798    1.3371232 
    1680    332.73575   -7470.6262    -7433.509   -2473.9756    28197.798    1.3434501 
    1690    340.27634   -7471.4684   -7433.5101   -2358.4231    28197.798     1.349213 
    1700    337.44669   -7471.1522   -7433.5095   -2252.2725    28197.798    1.3549843 
    1710    330.67556    -7470.396   -7433.5086   -2160.1691    28197.798    1.3604068 
    1720    331.67093   -7470.5077   -7433.5093   -2156.9409    28197.798    1.3647557 
    1730    333.01289   -7470.6579   -7433.5098   -2021.7211    28197.798    1.3682441 
    1740    330.44178   -7470.3703    -7433.509   -1850.1577    28197.798    1.3714091 
    1750     332.4665    -7470.596   -7433.5089   -1832.8568    28197.798    1.3748089 
    1760    338.17048   -7471.2334     -7433.51   -1973.1084    28197.798    1.3794872 
    1770    335.21561    -7470.903   -7433.5092   -2005.2986    28197.798    1.3861103 
    1780    331.46871   -7470.4842   -7433.5083    -2006.432    28197.798    1.3935425 
    1790    336.57308   -7471.0542    -7433.509   -1950.7177    28197.798    1.4003036 
    1800    342.16681   -7471.6789   -7433.5097   -1858.6382    28197.798    1.4064058 
    1810    341.53807   -7471.6084   -7433.5093   -1744.4176    28197.798    1.4119797 
    1820    338.74843   -7471.2969    -7433.509   -1716.7454    28197.798    1.4163984 
    1830    337.43007   -7471.1504   -7433.5096   -1688.5283    28197.798    1.4193696 
    1840    332.09753   -7470.5554   -7433.5094   -1600.2009    28197.798    1.4219384 
    1850    325.17964    -7469.783   -7433.5087    -1439.338    28197.798    1.4258708 
    1860    325.05027   -7469.7687   -7433.5089    -1373.363    28197.798    1.4317493 
    1870    331.46526   -7470.4843   -7433.5088    -1327.857    28197.798    1.4388941 
    1880    342.15073   -7471.6771   -7433.5097   -1249.4856    28197.798    1.4469071 
    1890    346.12273   -7472.1203   -7433.5098   -1070.4903    28197.798    1.4557041 
    1900    342.16962    -7471.678   -7433.5085   -929.47635    28197.798    1.4642996 
    1910     342.4351   -7471.7085   -7433.5094   -1069.1378    28197.798    1.4714358 
    1920    340.30349   -7471.4704    -7433.509   -1312.7881    28197.798    1.4769569 
    1930    335.83125   -7470.9717   -7433.5092   -1652.4617    28197.798    1.4812625 
    1940    329.14467   -7470.2254   -7433.5088   -1839.7793    28197.798     1.484747 
    1950    325.46317   -7469.8145   -7433.5086    -1862.611    28197.798    1.4876872 
    1960    325.80538   -7469.8536   -7433.5095   -1803.4783    28197.798    1.4908352 
    1970    322.63237   -7469.4987   -7433.5085   -1762.1388    28197.798    1.4943863 
    1980    323.28026   -7469.5712   -7433.5088   -1849.0487    28197.798    1.4974264 
    1990    326.60106   -7469.9416   -7433.5087   -1955.1148    28197.798     1.499423 
    2000    331.22759   -7470.4581   -7433.5091   -2018.3182    28197.798     1.500266 
Loop time of 970.93 on 16 procs for 2000 steps with 864 atoms

Performance: 0.178 ns/day, 134.851 hours/ns, 2.060 timesteps/s
97.3% CPU use with 16 MPI tasks x 1 OpenMP threads

MPI task timing breakdown:
Section |  min time  |  avg time  |  max time  |%varavg| %total
---------------------------------------------------------------
Pair    | 525.67     | 782.09     | 966.05     | 496.7 | 80.55
Bond    | 0.00014853 | 0.00052182 | 0.0014973  |   0.0 |  0.00
Neigh   | 0.020078   | 0.024693   | 0.027107   |   1.3 |  0.00
Comm    | 3.3533     | 185.5      | 443.8      |1021.1 | 19.10
Output  | 0.79474    | 1.8332     | 3.5354     |  71.3 |  0.19
Modify  | 0.0082719  | 0.0089512  | 0.011137   |   0.7 |  0.00
Other   |            | 1.477      |            |       |  0.15

Nlocal:        54.0000 ave          62 max          42 min
Histogram: 1 0 0 1 2 2 4 3 1 2
Nghost:        408.688 ave         443 max         379 min
Histogram: 2 2 1 1 2 3 1 3 0 1
Neighs:         0.00000 ave           0 max           0 min
Histogram: 16 0 0 0 0 0 0 0 0 0
FullNghs:      1634.62 ave        2021 max        1124 min
Histogram: 1 0 1 1 3 1 5 2 0 2

Total # of neighbors = 26154
Ave neighs/atom = 30.270833
Ave special neighs/atom = 0.0000000
Neighbor list builds = 199
Dangerous builds = 198
unfix   1

velocity    all create 675.0 1312343 dist gaussian
fix     2 all npt temp 675.0 675.0 $(100.0*dt) aniso 0.0 1.01325 $(1000.0*dt)
fix     2 all npt temp 675.0 675.0 0.10000000000000000555 aniso 0.0 1.01325 $(1000.0*dt)
fix     2 all npt temp 675.0 675.0 0.10000000000000000555 aniso 0.0 1.01325 1
run     3000
Per MPI rank memory allocation (min/avg/max) = 8.897 | 8.898 | 8.900 Mbytes
Step Temp PotEng TotEng Press Volume c_msd[4] 
    2000          675   -7470.4581   -7395.1608   -565.70381    28197.798     1.500266 
    2010    631.43556   -7465.5863   -7395.1487    -467.5892    28197.009    1.4984219 
    2020    557.66221   -7457.2583   -7395.0502   -340.78719    28194.865    1.5018767 
    2030    518.34957   -7452.5862   -7394.7635   -336.96234    28191.672    1.5057976 
    2040    508.65124   -7450.9659   -7394.2251   -190.68886     28187.54    1.5093253 
    2050    508.86908   -7450.2105   -7393.4454   -60.320325    28182.846    1.5138629 
    2060    496.04423   -7447.8702   -7392.5358    76.538888    28177.982    1.5197091 
    2070    492.54874   -7446.5962   -7391.6516    301.19815    28173.376    1.5252463 
    2080    507.31583   -7447.4359   -7390.8441    411.95066    28169.619    1.5306538 
    2090    521.03055   -7448.2125   -7390.0908     320.5986     28167.03    1.5376033 
    2100    529.01423   -7448.3557   -7389.3434    76.549876    28165.343    1.5463726 
    2110    533.60982   -7448.0834   -7388.5584   -51.889791    28163.935    1.5569456 
    2120    534.94849   -7447.3867   -7387.7124   -125.35918    28162.395    1.5691501 
    2130    529.53164   -7445.8769   -7386.8069   -113.43034    28160.519    1.5818717 
    2140    535.65888    -7445.596   -7385.8424   -175.68256    28158.287    1.5938425 
    2150    542.66353   -7445.3579    -7384.823    -258.2128     28155.54    1.6057598 
    2160    542.33778   -7444.2793   -7383.7807   -379.72341     28152.03    1.6191056 
    2170    531.75147   -7442.0527    -7382.735   -414.28454    28147.433    1.6338679 
    2180    530.56198   -7440.8667   -7381.6817   -487.55121      28141.6    1.6476638 
    2190    538.60731   -7440.6808   -7380.5984   -563.25813    28134.334     1.659732 
    2200    544.99177   -7440.2902   -7379.4955   -565.24214    28125.435    1.6714206 
    2210     553.9459   -7440.1752   -7378.3817   -591.99971    28114.895    1.6829107 
    2220    562.84518   -7440.0436   -7377.2573   -722.79256      28102.6    1.6928678 
    2230    564.07619   -7439.0487   -7376.1252   -676.40896    28088.271    1.7008426 
    2240     576.0261   -7439.2517   -7374.9951   -705.50876    28071.972    1.7089845 
    2250    590.58051   -7439.7398   -7373.8596   -740.06601    28053.677    1.7216369 
    2260    585.67155   -7438.0732   -7372.7407   -667.68156    28033.321    1.7413609 
    2270    589.38322   -7437.3848   -7371.6382   -526.59331    28011.122    1.7658727 
    2280     601.0193   -7437.5731   -7370.5285   -324.70972    27987.533    1.7926436 
    2290    612.33601     -7437.73    -7369.423   -173.81685    27963.135    1.8198209 
    2300    617.85573    -7437.257   -7368.3343   -232.14956    27938.341    1.8462309 
    2310    615.93212   -7435.9861   -7367.2779   -461.00257    27913.017    1.8720986 
    2320    607.90057   -7434.0605   -7366.2483   -478.09043    27886.629    1.8982488 
    2330    594.95409   -7431.5958   -7365.2278   -199.08866    27859.176    1.9246289 
    2340    601.78754   -7431.3133    -7364.183     49.18669    27831.421     1.951513 
    2350    612.61806   -7431.4315    -7363.093    204.22238    27804.104    1.9806033 
    2360    624.33041   -7431.6311   -7361.9861    370.18595    27777.701    2.0113895 
    2370     635.3651   -7431.7588   -7360.8829     668.7624    27752.758    2.0417477 
    2380    632.57105   -7430.3709   -7359.8066    730.99827     27730.01    2.0714034 
    2390    632.89121    -7429.361   -7358.7611    579.97924    27709.637     2.100821 
    2400    650.35578   -7430.2771    -7357.729      246.278    27691.171    2.1300607 
    2410    657.98504   -7430.1187   -7356.7195    158.31259    27673.773    2.1617981 
    2420    662.79969   -7429.6931   -7355.7568    371.22433    27657.211    2.1967847 
    2430      664.111   -7428.9226     -7354.84    574.39023    27641.986    2.2328526 
    2440    654.99555   -7427.0344   -7353.9687      630.206    27628.627     2.268207 
    2450    650.08893   -7425.6393   -7353.1209    545.27832    27617.257    2.3015292 
    2460    649.30421   -7424.7041   -7352.2733    400.54247    27607.612    2.3328589 
    2470    654.33426   -7424.4151   -7351.4231     127.2523    27599.242    2.3637552 
    2480    663.10617   -7424.5396   -7350.5692   -181.32448    27591.379    2.3961988 
    2490     681.5589    -7425.757   -7349.7281   -365.42742    27583.189    2.4302185 
    2500    683.76458    -7425.202    -7348.927   -332.98973    27574.196     2.463342 
    2510    675.97013   -7423.5951   -7348.1896   -249.81969     27564.46    2.4928886 
    2520    675.19746   -7422.8105   -7347.4912   -306.29216    27554.186    2.5187415 
    2530    678.90987   -7422.5498   -7346.8164   -463.92681    27543.228     2.541976 
    2540    674.93494   -7421.4636   -7346.1736   -296.98849     27531.27     2.563252 
    2550    657.02821   -7418.8449   -7345.5524   -7.5866435    27518.737    2.5822495 
    2560     669.2459   -7419.5855   -7344.9301    64.018836    27506.366    2.5981383 
    2570    691.94766   -7421.4892   -7344.3014     36.55725    27494.385    2.6121478 
    2580     691.9461   -7420.9006   -7343.7129     148.6518     27482.78    2.6248284 
    2590    695.61731   -7420.7818   -7343.1846    174.89049    27471.784    2.6344426 
    2600    695.48395    -7420.292   -7342.7097    62.671623    27461.444    2.6425407 
    2610    694.48576   -7419.7637   -7342.2928   -144.45373    27451.432     2.650565 
    2620    692.67752   -7419.1928   -7341.9236   -127.42847    27441.256    2.6583856 
    2630    699.81454    -7419.662   -7341.5966    164.26697    27430.965    2.6644597 
    2640    714.13447   -7420.9834   -7341.3206    556.14341     27421.33    2.6675537 
    2650    729.88591    -7422.552   -7341.1321    975.82104    27413.415    2.6694456 
    2660    724.47569   -7421.8791   -7341.0628    1336.2787    27408.331    2.6728283 
    2670    713.14747    -7420.665   -7341.1123    1490.2911    27406.991    2.6778932 
    2680    711.22333   -7420.6006   -7341.2626    1567.8657    27409.802    2.6832643 
    2690    703.13668   -7419.9359      -7341.5    1557.9088    27416.917    2.6892351 
    2700    694.04472    -7419.227   -7341.8052     1390.077    27428.248    2.6973881 
    2710    687.49768   -7418.8451   -7342.1537    1150.5565    27443.278    2.7067546 
    2720    683.28743   -7418.7489   -7342.5272    1013.9625    27461.353    2.7129722 
    2730    687.00384   -7419.5599   -7342.9235    879.68354    27482.048    2.7133429 
    2740    682.72354   -7419.5019   -7343.3431    578.26717    27504.897    2.7093783 
    2750    679.73455   -7419.5939   -7343.7685    273.06524    27529.083    2.7020092 
    2760    692.71219   -7421.4853   -7344.2122    10.199025    27553.737    2.6920056 
    2770     682.5494     -7420.82   -7344.6806    37.606587    27578.172    2.6838316 
    2780    673.80063   -7420.3223   -7345.1588    105.09659    27602.402    2.6808686 
    2790    675.48159   -7420.9842   -7345.6332    78.931486    27626.606    2.6829727 
    2800    675.95941   -7421.5042   -7346.0999    126.18535    27650.762     2.687344 
    2810    682.57649    -7422.707   -7346.5646     22.93051     27674.93    2.6915158 
    2820    681.30844   -7423.0361   -7347.0351   -48.836162    27698.868    2.6962774 
    2830    675.31181   -7422.8414   -7347.5093    67.634467    27722.416    2.7018609 
    2840    676.21888   -7423.4137   -7347.9804    94.945506    27745.829    2.7077194 
    2850    676.64652   -7423.9302   -7348.4493    106.64971    27769.206    2.7140127 
    2860    675.65072   -7424.2863   -7348.9165    54.828673    27792.573    2.7191008 
    2870    671.22964   -7424.2465   -7349.3699   -215.02096     27815.73    2.7208859 
    2880    666.09777   -7424.0976   -7349.7934   -574.75944    27837.932    2.7184256 
    2890    675.52354   -7425.5494   -7350.1938   -836.64036    27858.212    2.7125024 
    2900    686.97426   -7427.2352   -7350.6022    -1064.228    27875.807     2.705995 
    2910     675.6315   -7426.3994   -7351.0317    -1192.967    27890.122    2.7005715 
    2920    645.69584   -7423.4667   -7351.4383   -1123.8313    27900.876    2.6952339 
    2930    634.38103   -7422.5425   -7351.7764   -1027.5356    27908.273     2.689141 
    2940    635.60791   -7422.9204   -7352.0174   -1205.4875    27912.527    2.6839494 
    2950    638.11684    -7423.344   -7352.1611   -1247.4241    27913.289    2.6820578 
    2960    640.06821   -7423.6179   -7352.2174   -1005.9527    27910.539     2.683956 
    2970    646.87119   -7424.3672   -7352.2078   -921.31905    27904.908    2.6890594 
    2980    640.61229    -7423.601   -7352.1398   -902.33002    27896.728    2.6964974 
    2990    641.30042   -7423.5488   -7352.0108   -960.32228    27886.065    2.7040271 
    3000    648.30675    -7424.135   -7351.8154   -1011.8449    27872.809    2.7102889 
    3010    645.24417   -7423.5346   -7351.5566   -895.81407    27856.913    2.7136262 
    3020     646.8158    -7423.387   -7351.2337   -710.27909    27838.722    2.7139514 
    3030    646.50889   -7422.9662   -7350.8471   -492.87693    27818.776    2.7150048 
    3040    645.83604   -7422.4476   -7350.4037   -76.850644    27797.781    2.7183666 
    3050    648.95972   -7422.2975   -7349.9051    329.78271    27776.862    2.7227951 
    3060    646.12422   -7421.4325   -7349.3564     654.8556    27757.177    2.7272568 
    3070    659.69417   -7422.3596   -7348.7697    691.27215    27739.564    2.7326611 
    3080    670.70918    -7422.978   -7348.1594    706.83244    27724.156    2.7411127 
    3090    684.61328    -7423.927   -7347.5574    810.54482    27710.992     2.754609 
    3100    700.04833   -7425.0876   -7346.9961    903.40335    27700.307    2.7734597 
    3110    686.79736    -7423.114   -7346.5007    1040.0761    27692.352    2.7947884 
    3120    678.02702   -7421.6965   -7346.0616    1007.9083    27687.405    2.8127415 
    3130    689.22867   -7422.5294   -7345.6449      810.635    27685.343    2.8268326 
    3140    693.56786   -7422.6269   -7345.2583    543.84562    27685.598    2.8412526 
    3150    701.54603   -7423.1837   -7344.9252    341.93668    27687.431    2.8583954 
    3160    703.39171    -7423.115   -7344.6506    109.14789    27690.208    2.8776364 
    3170    704.88793    -7423.074   -7344.4427    5.4958105    27693.316    2.8955367 
    3180    706.62978   -7423.1282   -7344.3026    29.529601     27696.45     2.911219 
    3190    692.35881   -7421.4629   -7344.2292    139.28785     27699.66    2.9275159 
    3200    694.76236   -7421.7053   -7344.2035    104.93224    27703.199    2.9443511 
    3210    703.85157   -7422.7349   -7344.2192   -165.13902    27706.935    2.9594257 
    3220    702.04303   -7422.6134   -7344.2995   -259.47633    27710.211    2.9720254 
    3230    689.88447   -7421.4005   -7344.4428   -207.01302    27712.749     2.983023 
    3240    685.54188   -7421.0973    -7344.624   -241.69619    27714.671    2.9949555 
    3250    692.19051   -7422.0569    -7344.842   -492.32658    27715.853    3.0098682 
    3260    677.54213   -7420.6733   -7345.0924   -815.40398    27715.613    3.0267773 
    3270    660.37112   -7419.0138   -7345.3484   -940.03903    27713.101    3.0410074 
    3280    653.21223   -7418.4391   -7345.5723   -707.95296    27708.017    3.0503517 
    3290    656.04493    -7418.932   -7345.7492   -301.77239    27701.009    3.0556592 
    3300    666.09136   -7420.1896   -7345.8861   -178.40208    27693.125    3.0593823 
    3310     667.1797   -7420.4264   -7346.0015   -152.68974    27684.771    3.0651792 
    3320     667.3635   -7420.5491   -7346.1037   -90.546668    27676.057    3.0741849 
    3330     672.7879   -7421.2425    -7346.192   -136.76799    27667.136    3.0852089 
    3340    689.82833    -7423.238   -7346.2866   -392.36226     27657.83    3.0967643 
    3350    695.29756   -7423.9775   -7346.4161   -465.33698    27647.504    3.1072644 
    3360    683.61341   -7422.8464   -7346.5883     -261.717    27635.979    3.1137173 
    3370     675.3724   -7422.1211   -7346.7823    77.824478    27623.815    3.1155304 
    3380    672.52755    -7421.999   -7346.9776    479.81493    27611.954    3.1184661 
    3390    673.28448   -7422.2762   -7347.1703    621.00054     27601.44    3.1282621 
    3400    672.58153   -7422.3891   -7347.3616    593.30985    27592.717    3.1452635 
    3410    669.66264   -7422.2491   -7347.5472     407.7957    27585.678    3.1658365 
    3420    679.47781   -7423.5347   -7347.7379     51.34724    27579.769    3.1857852 
    3430     674.3911   -7423.1655   -7347.9362     15.65235    27574.129    3.2037701 
    3440     676.0506   -7423.5554   -7348.1409   -27.538772    27568.548    3.2192783 
    3450    688.52309   -7425.1673   -7348.3615    -203.7007    27562.867    3.2330848 
    3460    683.25101    -7424.827   -7348.6093   -158.88032    27556.699    3.2473154 
    3470    674.23926    -7424.089   -7348.8766    52.040646    27550.153    3.2618548 
    3480    687.49244    -7425.846   -7349.1551    191.04008    27543.755    3.2767668 
    3490     703.1264   -7427.9115   -7349.4767    46.131076    27537.833    3.2955058 
    3500    690.08595   -7426.8392   -7349.8591   -125.96716    27532.036    3.3185635 
    3510    669.80555   -7424.9802   -7350.2623   -112.27219    27525.947    3.3410175 
    3520    668.10487   -7425.1848   -7350.6567   -80.866069    27519.562    3.3599282 
    3530    659.80545   -7424.6231   -7351.0208   -204.09488     27512.95    3.3774468 
    3540    657.16331   -7424.6602   -7351.3527   -533.39192    27505.731    3.3939238 
    3550    661.14731   -7425.4027   -7351.6507   -726.15331    27497.063    3.4081949 
    3560    670.90845   -7426.7622   -7351.9214   -528.14948     27486.48    3.4221136 
    3570      675.454   -7427.5252   -7352.1773   -157.22956    27474.479    3.4417799 
    3580    674.85251   -7427.6995   -7352.4187    182.33364    27462.066    3.4712893 
    3590    687.44904   -7429.3497   -7352.6637    303.97675    27450.158    3.5101573 
    3600    684.79129   -7429.3207   -7352.9312    444.71795    27439.175    3.5561976 
    3610    664.77462   -7427.3692   -7353.2126    624.27463    27429.491    3.6041345 
    3620    640.14019   -7424.8655   -7353.4568    808.83105    27421.607    3.6484175 
    3630    646.42937   -7425.7511   -7353.6409    746.04257    27415.943    3.6870834 
    3640    650.03469   -7426.2778   -7353.7655    677.91966    27412.405    3.7215282 
    3650    645.84669   -7425.8826   -7353.8374    681.94936    27410.803    3.7538299 
    3660    640.40178   -7425.2827   -7353.8449    572.08495    27411.094    3.7845815 
    3670    641.53367   -7425.3458   -7353.7818    231.34367     27412.92    3.8137583 
    3680    649.85019   -7426.1371   -7353.6453   -179.94982    27415.361    3.8426316 
    3690    657.59535   -7426.8003   -7353.4446   -451.71907    27417.319    3.8729735 
    3700    650.19122   -7425.7157   -7353.1859   -466.80255    27418.084    3.9051723 
    3710    640.58914   -7424.3195   -7352.8608   -512.97926    27417.525    3.9373572 
    3720    635.75989   -7423.3711   -7352.4511   -337.25346     27415.63    3.9681395 
    3730    645.47003   -7423.9548   -7351.9517   -85.459238    27412.815    3.9969708 
    3740    662.32967   -7425.2564   -7351.3726    223.52274    27409.794    4.0233711 
    3750    678.73637   -7426.4777   -7350.7636    352.28299    27407.365    4.0459036 
    3760    684.05466   -7426.4883    -7350.181    457.73207    27405.934    4.0627537 
    3770    678.15484   -7425.3073   -7349.6581    677.38238    27405.823     4.073474 
    3780    683.72251   -7425.4703      -7349.2     628.2317    27407.522    4.0798853 
    3790     679.4143   -7424.5917    -7348.802    349.27125    27410.917    4.0867631 
    3800    672.40096    -7423.469   -7348.4617    61.925363    27415.287     4.097279 
    3810    679.66352   -7423.9815    -7348.164   -96.879217    27419.866     4.111792 
    3820    670.06704   -7422.6494   -7347.9024    60.778008    27424.263    4.1268646 
    3830    655.62314   -7420.8013   -7347.6655    332.56422    27428.878    4.1378962 
    3840    662.48405   -7421.3272   -7347.4261    288.13771     27434.35    4.1441772 
    3850    668.80102     -7421.79   -7347.1843     244.8744    27440.637    4.1484372 
    3860     665.1403   -7421.1482   -7346.9508    345.23577    27447.644    4.1521074 
    3870    676.66063   -7422.2121   -7346.7296    517.39484    27455.654    4.1543211 
    3880    692.52824   -7423.7834   -7346.5308    455.37241     27465.05    4.1541715 
    3890    696.15642   -7424.0413    -7346.384    507.73236    27475.775     4.149622 
    3900    682.63583   -7422.4389   -7346.2899    480.28598    27487.908    4.1387271 
    3910    673.36966   -7421.3343    -7346.219    129.37207    27501.323     4.123861 
    3920    677.47928   -7421.7259   -7346.1521   -340.05421     27515.09    4.1091333 
    3930    676.22638   -7421.5251   -7346.0911   -543.91293    27527.971     4.095992 
    3940    666.60215   -7420.3887   -7346.0282    -657.1127    27539.333    4.0823528 
    3950     670.1518   -7420.7093   -7345.9528   -911.33245     27548.81    4.0651796 
    3960    674.62726   -7421.1197   -7345.8641   -1086.2714    27555.733    4.0457458 
    3970     676.2227   -7421.2072   -7345.7736   -1054.7922    27559.632    4.0268686 
    3980    674.76812   -7420.9536   -7345.6822   -776.21571     27560.62    4.0084446 
    3990    675.20103   -7420.9069   -7345.5872   -546.21305    27559.408    3.9913989 
    4000    673.95739   -7420.6674   -7345.4864   -643.97654    27556.571    3.9787449 
    4010    677.60137   -7420.9683   -7345.3809   -897.42811    27551.889    3.9714729 
    4020    687.76214   -7422.0013   -7345.2804   -957.78858    27544.744    3.9672366 
    4030    688.83631   -7422.0435   -7345.2028   -715.11345     27534.99    3.9648921 
    4040    689.05876   -7422.0248   -7345.1593    -360.0473    27523.267    3.9654422 
    4050    680.52608   -7421.0569   -7345.1432   -78.380955    27510.553    3.9686585 
    4060    680.64522   -7421.0682   -7345.1412   -179.99422    27497.561    3.9722693 
    4070    704.78647   -7423.7884   -7345.1684   -579.19556    27483.995    3.9773401 
    4080    713.35967   -7424.8505   -7345.2742   -673.40284    27468.898    3.9866915 
    4090    697.78434   -7423.3311   -7345.4922    -506.0787    27452.008     3.999696 
    4100    676.40669   -7421.2572    -7345.803   -390.59879      27433.7    4.0124655 
    4110     671.2963   -7421.0674   -7346.1833   -288.14418    27414.334    4.0218489 
    4120    676.95223   -7422.1578   -7346.6428   -374.94504    27394.134    4.0300645 
    4130    663.68868    -7421.221   -7347.1855   -396.51622    27372.946     4.039849 
    4140    653.01716   -7420.6282   -7347.7832    -304.5731    27350.709     4.050303 
    4150    655.35166    -7421.506   -7348.4005   -36.731448    27327.698    4.0625169 
    4160    672.42027   -7424.0428   -7349.0333    81.753277    27304.567    4.0771331 
    4170    681.96647   -7425.7735   -7349.6991    10.242954    27281.651    4.0946186 
    4180    661.32532   -7424.1284   -7350.3566    88.898615    27258.838    4.1149477 
    4190    653.48182    -7423.847   -7350.9501    196.33829    27236.295    4.1338597 
    4200    650.99405   -7424.0728   -7351.4534    455.40043    27214.374    4.1487354 
    4210    655.26907   -7424.9592    -7351.863    815.90451    27193.766    4.1614807 
    4220     661.7691   -7426.0166   -7352.1953    1115.2068    27175.415    4.1751181 
    4230    660.99391      -7426.2   -7352.4651    1357.4837    27160.161    4.1911736 
    4240    657.76617   -7426.0544   -7352.6796    1374.4352    27148.593    4.2074057 
    4250    654.20224   -7425.8111   -7352.8338     1424.861    27140.822    4.2211094 
    4260    651.69439   -7425.6245    -7352.927    1496.3791    27136.983    4.2339968 
    4270    651.07234    -7425.595   -7352.9669    1518.0973    27137.238    4.2476267 
    4280    645.84283   -7425.0031   -7352.9584    1563.5094    27141.659     4.259458 
    4290    644.18008   -7424.7535   -7352.8942     1622.685    27150.392    4.2657975 
    4300    653.80391   -7425.7085   -7352.7757    1520.2374    27163.526     4.265271 
    4310    659.07284   -7426.1371   -7352.6166    1513.9595    27180.885    4.2584773 
    4320    665.19858   -7426.6393   -7352.4354    1340.4078    27202.374    4.2480388 
    4330    662.76077   -7426.1707   -7352.2388    1176.8486    27227.587    4.2390444 
    4340     656.8751    -7425.302   -7352.0265     1099.299    27256.115    4.2329527 
    4350    651.60137   -7424.4731    -7351.786    988.94627    27287.726    4.2290459 
    4360    649.08812   -7423.9125   -7351.5058    693.20834    27322.071    4.2262311 
    4370    637.32977   -7422.2678   -7351.1727    388.90198    27358.397    4.2230652 
    4380    643.64518   -7422.5796     -7350.78   -26.756662    27395.805    4.2182345 
    4390    656.58375    -7423.571   -7350.3281   -396.12013    27433.182    4.2124308 
    4400    670.63588   -7424.6681   -7349.8576   -675.82468    27469.492    4.2072463 
    4410      679.492   -7425.2084     -7349.41   -854.47678     27503.93    4.2039554 
    4420    674.00665   -7424.2035    -7349.017   -843.25308    27536.009    4.2022995 
    4430    679.98172   -7424.5354   -7348.6824   -882.38987     27565.69    4.1996295 
    4440    690.25314   -7425.4046   -7348.4058   -820.06698    27592.894    4.1963881 
    4450    684.16953   -7424.5186   -7348.1985    -611.5016    27617.793    4.1968942 
    4460    680.27349   -7423.9353   -7348.0498   -485.97782     27640.91    4.2007245 
    4470    671.63605   -7422.8552   -7347.9332   -305.35551    27662.635    4.2037112 
    4480    664.88071   -7422.0006   -7347.8322   -229.19118    27683.448    4.2029547 
    4490    673.37821   -7422.8424    -7347.726   -504.38141    27703.496    4.1986976 
    4500    682.86612    -7423.798   -7347.6232   -806.86834     27722.07    4.1931126 
    4510    681.34965   -7423.5471   -7347.5415   -972.09905    27738.364    4.1878674 
    4520    678.71987   -7423.1943   -7347.4821   -1220.6229     27751.81     4.184656 
    4530    673.46211   -7422.5626   -7347.4369    -1224.157    27761.816    4.1858712 
    4540    678.40459   -7423.0749   -7347.3978   -1162.4749    27768.332    4.1912401 
    4550    691.88828   -7424.5562    -7347.375   -1285.0247    27771.448     4.198149 
    4560    679.12009   -7423.1308   -7347.3739   -1400.2456     27770.88    4.2032821 
    4570    665.46051   -7421.6149   -7347.3817   -1397.1044    27766.333    4.2041683 
    4580    670.22909   -7422.1403   -7347.3752   -1366.8098    27757.793    4.2034534 
    4590    677.41643    -7422.928   -7347.3612   -1031.0694    27745.469    4.2054268 
    4600    673.30524   -7422.4538   -7347.3456   -316.41333    27730.336    4.2109733 
    4610      675.447   -7422.6726   -7347.3255    172.40479    27714.262    4.2191241 
    4620    684.84069   -7423.7014   -7347.3064    331.46656    27698.683    4.2286064 
    4630    694.53104   -7424.7873   -7347.3113    216.03779     27684.05    4.2395911 
    4640    692.78675   -7424.6428   -7347.3614   -32.099347    27670.041    4.2536365 
    4650    680.01333   -7423.3088   -7347.4523   -122.26479     27656.02    4.2737954 
    4660    668.07785   -7422.0836   -7347.5585    56.290735    27641.758    4.3017042 
    4670     675.4116    -7423.002   -7347.6588    253.11138    27627.709    4.3341909 
    4680    695.14226   -7425.3176   -7347.7735    187.05506    27614.343      4.36523 
    4690    698.07093   -7425.8158    -7347.945     93.60894    27601.539    4.3914684 
    4700    674.32765   -7423.3938   -7348.1715    131.29337    27589.069    4.4121959 
    4710    673.52937   -7423.5653    -7348.432    56.836415    27576.965    4.4259791 
    4720    679.98838   -7424.5809   -7348.7272   -116.25716     27565.01    4.4352229 
    4730    672.12619   -7424.0434   -7349.0667   -139.75949    27552.774    4.4432695 
    4740    675.75689   -7424.8359   -7349.4542   -209.07922    27540.144    4.4512801 
    4750    671.65246   -7424.8248   -7349.9009   -276.94703    27526.954    4.4615806 
    4760    645.86205   -7422.4255   -7350.3786   -286.47867    27513.014    4.4735104 
    4770    638.37038    -7422.058   -7350.8468   -250.47415    27498.299    4.4829989 
    4780    649.92072   -7423.7927   -7351.2931   -368.54269    27482.848    4.4877617 
    4790    665.89275   -7426.0276   -7351.7463   -439.53828    27466.369    4.4891659 
    4800    659.18904   -7425.7481   -7352.2146   -56.932999    27448.773    4.4928438 
    4810    651.95559    -7425.399   -7352.6724    445.17955    27431.046    4.5022884 
    4820    664.48909   -7427.2501   -7353.1254    556.85815    27414.441    4.5160487 
    4830     646.9246    -7425.725   -7353.5596     798.7744    27399.449     4.530945 
    4840    641.21817   -7425.4796   -7353.9507    790.23656    27386.615    4.5409332 
    4850    639.97847   -7425.6769   -7354.2863    718.58843    27375.955    4.5445757 
    4860    627.12385   -7424.5068   -7354.5502    881.59926    27367.335    4.5452374 
    4870    631.91531   -7425.2205   -7354.7294    895.56418    27361.134    4.5465646 
    4880    644.15128   -7426.6895   -7354.8335    737.61946    27357.378    4.5515916 
    4890    635.73816   -7425.7868   -7354.8692    828.00215    27355.755    4.5590616 
    4900    635.87606   -7425.7592   -7354.8263    787.56469    27356.427    4.5651065 
    4910    639.16764   -7425.9944   -7354.6943    493.93972    27359.236    4.5687668 
    4920    630.81842   -7424.8288   -7354.4601    311.19554    27363.483    4.5708316 
    4930    636.29101   -7425.0795   -7354.1003    99.948081    27368.591    4.5715621 
    4940    633.18413    -7424.219   -7353.5863    189.09295    27374.095    4.5716517 
    4950    634.09504   -7423.6467   -7352.9125    174.70319    27380.123    4.5707627 
    4960    634.23392   -7422.8307   -7352.0809    121.13342     27386.67    4.5700251 
    4970     634.0574   -7421.8807   -7351.1507    75.091808    27393.592    4.5703746 
    4980    659.40314   -7423.7672   -7350.2098    -127.3089    27400.709    4.5704485 
    4990    678.52501   -7425.0604     -7349.37   -163.36471    27407.547    4.5715602 
    5000    673.94282   -7423.9046   -7348.7252    124.46147    27414.058    4.5750436 
Loop time of 1484.49 on 16 procs for 3000 steps with 864 atoms

Performance: 0.175 ns/day, 137.453 hours/ns, 2.021 timesteps/s
97.0% CPU use with 16 MPI tasks x 1 OpenMP threads

MPI task timing breakdown:
Section |  min time  |  avg time  |  max time  |%varavg| %total
---------------------------------------------------------------
Pair    | 922.34     | 1211.6     | 1465.8     | 519.3 | 81.62
Bond    | 0.00022459 | 0.00059731 | 0.0013785  |   0.0 |  0.00
Neigh   | 0.032568   | 0.037943   | 0.042116   |   1.2 |  0.00
Comm    | 12.147     | 239.86     | 501.45     |1163.4 | 16.16
Output  | 0.16487    | 0.16845    | 0.22006    |   3.2 |  0.01
Modify  | 4.3689     | 32.768     | 60.486     | 371.3 |  2.21
Other   |            | 0.01358    |            |       |  0.00

Nlocal:        54.0000 ave          59 max          47 min
Histogram: 2 0 0 1 4 1 2 1 2 3
Nghost:        416.062 ave         443 max         395 min
Histogram: 2 1 2 2 3 2 2 1 0 1
Neighs:         0.00000 ave           0 max           0 min
Histogram: 16 0 0 0 0 0 0 0 0 0
FullNghs:      1673.75 ave        1932 max        1367 min
Histogram: 2 1 1 1 1 1 4 2 1 2

Total # of neighbors = 26780
Ave neighs/atom = 30.995370
Ave special neighs/atom = 0.0000000
Neighbor list builds = 300
Dangerous builds = 300
unfix   2

fix     3 all npt temp 675.0 675.0 $(100.0*dt) aniso 1.01325 1.01325 $(1000.0*dt)
fix     3 all npt temp 675.0 675.0 0.10000000000000000555 aniso 1.01325 1.01325 $(1000.0*dt)
fix     3 all npt temp 675.0 675.0 0.10000000000000000555 aniso 1.01325 1.01325 1
run     20000
Per MPI rank memory allocation (min/avg/max) = 8.897 | 8.898 | 8.900 Mbytes
Step Temp PotEng TotEng Press Volume c_msd[4] 
    5000    673.94282   -7423.9046   -7348.7252    124.46147    27414.058    4.5750436 
    5010    677.27601   -7424.2793   -7348.7281    394.64679    27414.362    4.5771039 
    5020    673.16479    -7423.825   -7348.7325    669.58249    27415.779    4.5778341 
    5030    665.46148   -7422.9693   -7348.7361     890.6855    27419.064    4.5763523 
    5040     658.1593   -7422.1411   -7348.7225    1109.5772     27424.86    4.5724834 
    5050     657.8914   -7422.0646   -7348.6758     1061.109    27433.712    4.5668846 
    5060    671.86989   -7423.5427   -7348.5946     796.6912    27445.512    4.5631722 
    5070    669.49511   -7423.1735   -7348.4903    730.74947    27459.632    4.5652979 
    5080    655.36177   -7421.4754   -7348.3689    812.77748    27475.871    4.5731625 
    5090    641.17718   -7419.7195   -7348.1952    854.48177    27494.438    4.5826756 
    5100    654.38258   -7420.9298   -7347.9325    630.02914    27515.394    4.5890445 
    5110    690.21817   -7424.5736   -7347.5787    56.463046    27538.082    4.5929483 
    5120     697.7941   -7425.0235   -7347.1835   -436.23312    27561.018    4.5999018 
    5130    688.81838   -7423.6263   -7346.7876   -858.34474    27582.783    4.6123893 
    5140    692.59759   -7423.6422   -7346.3819   -1168.0128    27602.183    4.6280203 
    5150     689.2024   -7422.8397   -7345.9581   -1176.1767    27618.385    4.6445348 
    5160    687.25903    -7422.195   -7345.5302   -1065.3391    27631.288    4.6592524 
    5170    672.86665    -7420.151   -7345.0917    -904.7737    27641.182    4.6715147 
    5180    670.26828   -7419.3937   -7344.6243   -939.31395    27648.452     4.683444 
    5190    682.51654   -7420.2452   -7344.1094   -1191.6031    27653.003    4.6970487 
    5200    676.02087   -7418.9778   -7343.5666   -1317.9696    27654.206     4.714044 
    5210    662.18302   -7416.8765    -7343.009   -1150.0345    27651.752       4.7337 
    5220    667.64604   -7416.9013   -7342.4244   -961.42301    27646.033    4.7526625 
    5230    682.97389   -7418.0115   -7341.8247   -766.02342    27637.565    4.7698188 
    5240    693.17075   -7418.5758   -7341.2516   -451.47237    27626.967    4.7858109 
    5250    705.98959   -7419.5059   -7340.7517   -249.81507    27615.069    4.8016087 
    5260    713.01703   -7419.8942    -7340.356   -11.706487    27602.489    4.8196392 
    5270    715.27446   -7419.8754   -7340.0855    392.92696    27589.933    4.8417316 
    5280    706.05263   -7418.6876   -7339.9264    778.98573     27578.52    4.8694869 
    5290    719.37255   -7420.1161    -7339.869    592.14574    27569.168    4.9030533 
    5300    730.24152   -7421.3686    -7339.909    235.69188    27561.481    4.9396254 
    5310    724.55347   -7420.8891   -7340.0641   -63.512077    27554.473    4.9749527 
    5320    700.31485   -7418.4171   -7340.2959   -76.578471    27547.384    5.0064159 
    5330    685.62827   -7417.0311   -7340.5483   -184.73025     27540.08    5.0329987 
    5340    695.42378   -7418.3761   -7340.8005   -532.98629    27532.215    5.0593432 
    5350    701.24073   -7419.2892   -7341.0647   -758.49185    27522.914     5.090364 
    5360    687.91499   -7418.0735   -7341.3356   -621.60643    27511.597    5.1269366 
    5370    679.61264   -7417.3979   -7341.5861   -408.64616    27498.578    5.1665898 
    5380    686.68835   -7418.4143   -7341.8131   -349.99605     27484.42    5.2091172 
    5390    698.59716   -7419.9753   -7342.0457    -246.6926     27469.35    5.2550586 
    5400    697.10726   -7420.0522   -7342.2889   -70.071375    27453.651    5.2988403 
    5410    703.86274   -7421.0688   -7342.5518    1.2104121    27437.783     5.333116 
    5420    704.54497   -7421.4353   -7342.8423   -94.924043    27421.937    5.3585397 
    5430    694.97101    -7420.684   -7343.1589   -349.17888    27405.849    5.3816097 
    5440    683.51205   -7419.7309   -7343.4841   -557.31262    27388.851    5.4080046 
    5450    667.28886   -7418.2255   -7343.7885   -275.98095    27370.499    5.4413105 
    5460    651.05764   -7416.6614   -7344.0349     245.1849    27351.508    5.4826342 
    5470    647.03695    -7416.381   -7344.2031    773.31757    27333.265    5.5261284 
    5480    665.27764    -7418.522   -7344.3093    1157.4492    27317.202    5.5641546 
    5490    674.86477   -7419.6614   -7344.3792    1293.6314    27304.359    5.5946072 
    5500    689.14786   -7421.3253   -7344.4498     1112.734    27295.075    5.6167463 
    5510    705.37808   -7423.2422   -7344.5562    893.27827    27288.903    5.6314629 
    5520    715.88361   -7424.5905   -7344.7326    836.81994    27285.277    5.6425205 
    5530     719.9308   -7425.3115   -7345.0022    863.89157    27283.996    5.6523196 
    5540    713.52433   -7424.9618   -7345.3671    1022.4587    27285.156    5.6618032 
    5550    698.23521   -7423.6924   -7345.8032    1146.3067    27289.131     5.672879 
    5560     678.4805   -7421.9416   -7346.2561    1366.1926    27296.309    5.6858119 
    5570    677.76629   -7422.2955   -7346.6897     1412.589    27307.206    5.6961017 
    5580    680.26156   -7422.9826   -7347.0984    1322.8368     27321.98    5.6997033 
    5590    684.68199   -7423.8691   -7347.4918    1079.0138    27340.351    5.6970066 
    5600    694.09901   -7425.3138    -7347.886    750.85349    27361.665    5.6927303 
    5610    686.34442   -7424.8475   -7348.2847    377.93317    27385.024    5.6915206 
    5620     664.6064   -7422.7953   -7348.6574    114.25532    27409.428    5.6932849 
    5630    658.11603   -7422.3856   -7348.9718   -144.39168    27434.096    5.6912757 
    5640    655.70724   -7422.3622   -7349.2171   -314.26049     27458.35      5.67821 
    5650    649.21501   -7421.8123   -7349.3914   -480.94188    27481.684    5.6529674 
    5660    647.70183   -7421.7469   -7349.4948    -683.3664    27503.604    5.6209721 
    5670     648.9518   -7421.9206    -7349.529   -814.12617    27523.561    5.5866517 
    5680    658.23503   -7422.9425   -7349.5154   -866.82077     27541.18    5.5504373 
    5690    660.34817   -7423.1327   -7349.4699   -768.32825    27556.358    5.5144916 
    5700    668.20336   -7423.9448   -7349.4057   -735.19068    27569.305     5.482182 
    5710     669.7062   -7424.0369   -7349.3302    -757.1671    27580.129    5.4572356 
    5720    658.47476    -7422.698   -7349.2442   -710.18694    27588.788    5.4383453 
    5730    655.26281   -7422.2202   -7349.1247   -533.16671    27595.445    5.4203246 
    5740    666.72029   -7423.3376    -7348.964   -404.88972    27600.551    5.4038085 
    5750    668.99797   -7423.4035   -7348.7758   -231.06394    27604.492    5.3908273 
    5760    674.58864   -7423.8302   -7348.5789    9.4173493    27607.782    5.3804961 
    5770    679.59904   -7424.1891   -7348.3788    99.477648    27611.047    5.3717811 
    5780    680.87369   -7424.1527   -7348.2002    140.87745    27614.558    5.3619807 
    5790    675.28978   -7423.3677   -7348.0381    68.651242     27618.43    5.3486372 
    5800    680.83853   -7423.8357   -7347.8871   -413.95697    27622.364     5.332302 
    5810    678.68387   -7423.4549   -7347.7467   -984.57506    27625.078    5.3164726 
    5820    661.82156   -7421.4395   -7347.6123   -1277.5253    27625.049    5.3052584 
    5830    654.51933   -7420.4716    -7347.459   -1225.5238    27621.506    5.2982796 
    5840    666.89908   -7421.6662   -7347.2726   -965.45789    27614.591    5.2932437 
    5850    665.20687   -7421.2661   -7347.0613   -496.52387    27605.092    5.2902281 
    5860    648.31434   -7419.1412   -7346.8208   -200.04793    27594.247      5.29003 
    5870    648.74416   -7418.8975   -7346.5291   -127.84533    27582.904    5.2912611 
    5880    654.73383   -7419.2067   -7346.1701   -77.267332     27571.33    5.2922681 
    5890    665.93465   -7420.0445   -7345.7584   -69.539689    27559.645    5.2921674 
    5900    680.08052   -7421.1792   -7345.3152   -99.800501    27547.892    5.2914976 
    5910    684.52724   -7421.2334   -7344.8733   -383.97265     27535.91    5.2913233 
    5920    689.17702    -7421.339   -7344.4602   -679.07301     27522.96    5.2908025 
    5930    695.56567   -7421.6783   -7344.0869   -676.59824    27508.287    5.2896892 
    5940    704.45369   -7422.3543   -7343.7714   -473.02423    27491.898    5.2888873 
    5950    701.22489   -7421.7495   -7343.5268   -241.84104    27474.338    5.2908309 
    5960    696.30632   -7421.0272   -7343.3532    -251.0796    27456.186     5.297252 
    5970    695.40238   -7420.8114   -7343.2383   -258.74371    27437.496    5.3109867 
    5980    702.73482   -7421.5669   -7343.1758   -170.87151    27418.287    5.3321721 
    5990     714.8234   -7422.9239   -7343.1843   -162.19872    27398.749    5.3576913 
    6000    706.88307   -7422.1271   -7343.2732    20.532851     27378.98    5.3865114 
    6010    697.31628   -7421.2099   -7343.4233    101.22451    27359.426    5.4186609 
    6020    691.57682   -7420.7586   -7343.6122     53.77785      27340.3    5.4544104 
    6030    685.08887   -7420.2327     -7343.81    157.00609    27321.528    5.4928324 
    6040      687.252   -7420.6703   -7344.0063    300.57371    27303.366    5.5305721 
    6050    679.11978   -7419.9431   -7344.1863    478.35199    27286.221    5.5620212 
    6060    677.94728    -7419.969   -7344.3429    678.78736    27270.553    5.5839892 
    6070    669.76744    -7419.176   -7344.4625    806.88867     27256.88    5.6028046 
    6080    665.86515   -7418.8189   -7344.5407    662.94562    27245.485    5.6236971 
    6090    674.26899   -7419.8079   -7344.5921    554.68827    27236.035    5.6449413 
    6100    680.37671   -7420.5269   -7344.6298    620.24209    27228.255    5.6647948 
    6110    689.55056   -7421.5951   -7344.6746     697.7224    27222.252    5.6834017 
    6120    690.39222   -7421.7494   -7344.7351    808.48521    27218.244    5.7026915 
    6130    696.40593   -7422.5056   -7344.8204    608.52998    27216.428      5.72573 
    6140    700.41438   -7423.0763    -7344.944    230.71791    27216.263    5.7557784 
    6150     699.2515    -7423.115   -7345.1125    6.8581432    27216.782    5.7926871 
    6160    702.34516   -7423.6794   -7345.3317   -225.22646    27217.309    5.8333419 
    6170    702.49476   -7423.9671   -7345.6028   -298.90984    27217.258     5.876363 
    6180    700.20625   -7424.0368   -7345.9278   -264.22196    27216.414    5.9213403 
    6190    688.72883   -7423.1151   -7346.2864    -177.5551    27214.884    5.9672129 
    6200    684.07644   -7422.9728   -7346.6631   -140.54539    27212.871    6.0129968 
    6210    677.65491    -7422.627   -7347.0336    50.080047    27210.548    6.0577292 
    6220    679.35379   -7423.1827   -7347.3998    309.87629    27208.398    6.0997268 
    6230    673.88323   -7422.9313   -7347.7586    584.24823     27207.13    6.1379061 
    6240     676.9757   -7423.6339   -7348.1162     646.6012    27207.428    6.1724769 
    6250    665.15366   -7422.6541   -7348.4552    647.03575    27209.506    6.2038005 
    6260    670.29029   -7423.5418   -7348.7699    428.52084    27213.266    6.2298863 
    6270    669.28108   -7423.7168   -7349.0575    430.65031    27218.205    6.2506071 
    6280    670.13051   -7424.0766   -7349.3225     527.4463    27224.292     6.266594 
    6290    679.98646   -7425.4312   -7349.5777    509.11739    27231.746    6.2793373 
    6300     678.0739   -7425.4759   -7349.8358    367.46486     27240.47    6.2923145 
    6310     665.2145   -7424.3004   -7350.0947    301.69164    27250.121    6.3089292 
    6320    647.60373   -7422.5555   -7350.3143    304.95025    27260.508    6.3283004 
    6330    652.77424   -7423.2983   -7350.4803    199.38094    27271.584    6.3472624 
    6340     654.6336   -7423.6247   -7350.5994     25.64852    27283.058    6.3647137 
    6350    642.20535   -7422.3095   -7350.6705   -38.451872    27294.499    6.3799402 
    6360    637.05263   -7421.7422    -7350.678    63.863207    27305.758    6.3923513 
    6370    648.72108    -7422.979   -7350.6132     199.7936    27317.067    6.4030273 
    6380    654.27315    -7423.471   -7350.4859    473.61013    27328.855    6.4134636 
    6390    651.98703   -7423.0357   -7350.3055    549.49066    27341.778    6.4208934 
    6400     662.8732   -7424.0145     -7350.07    334.78847    27356.018    6.4200347 
    6410    670.77628   -7424.6141   -7349.7879    251.22596    27371.082      6.40836 
    6420    674.26542   -7424.6913    -7349.476    114.49788    27386.663    6.3878648 
    6430    692.49361   -7426.3966   -7349.1479   -233.02118    27402.336    6.3623953 
    6440    686.44325   -7425.4027   -7348.8289   -72.529604    27417.344    6.3347297 
    6450    675.23635   -7423.8535   -7348.5299      296.024    27432.045    6.3071056 
    6460    677.16968   -7423.7614   -7348.2221    366.66677    27447.341     6.284258 
    6470    673.65964   -7423.0441   -7347.8963    254.81633    27463.457    6.2688781 
    6480    664.15991    -7421.636   -7347.5479    59.839482     27480.11    6.2562405 
    6490    664.54294   -7421.2952   -7347.1644   -332.79855    27496.702    6.2410173 
    6500    661.75122   -7420.5488   -7346.7294   -623.51407    27512.209    6.2229318 
    6510     665.0524   -7420.4349   -7346.2473   -580.47986    27525.901     6.204282 
    6520    663.12677    -7419.696   -7345.7232   -745.61578    27537.741    6.1881827 
    6530     668.7594   -7419.7687   -7345.1676   -964.75006    27547.342    6.1739279 
    6540    680.01341   -7420.4545    -7344.598    -859.1839    27554.201    6.1599961 
    6550    695.82682   -7421.6749   -7344.0544   -578.45812    27558.603    6.1467733 
    6560    713.75327   -7423.2134   -7343.5932   -474.21193     27561.27    6.1341713 
    6570     714.5721     -7422.97   -7343.2584   -522.76779    27562.545    6.1237344 
    6580    702.77556   -7421.4459   -7343.0503   -610.41593    27562.349    6.1182384 
    6590    698.65045   -7420.8699   -7342.9344   -863.12121    27560.394    6.1154557 
    6600    694.60442   -7420.3677   -7342.8835   -994.53972    27556.089    6.1109398 
    6610    684.92729   -7419.2839   -7342.8793   -912.53636    27549.126    6.1054521 
    6620     677.5893   -7418.4826   -7342.8965   -753.81243    27539.739    6.1015182 
    6630    680.96576   -7418.8792   -7342.9165   -640.06463    27528.381    6.1007641 
    6640    691.03073   -7420.0332   -7342.9477   -583.25619    27515.397    6.1037929 
    6650    697.38495   -7420.8024    -7343.008   -467.36335    27501.009    6.1075601 
    6660    692.44029   -7420.3463   -7343.1035   -188.57191    27485.593    6.1077267 
    6670    679.95477   -7419.0655   -7343.2155    56.021928    27469.878    6.1040054 
    6680    680.28331    -7419.212   -7343.3254    26.918193    27454.487    6.1006914 
    6690    685.09521   -7419.8596   -7343.4362    32.537913    27439.429    6.1020207 
    6700    676.86742   -7419.0542   -7343.5487     206.9589    27424.758    6.1107516 
    6710    675.84015   -7419.0488   -7343.6578    225.77027    27410.859    6.1253754 
    6720    685.42647   -7420.2235   -7343.7631    80.870972    27397.776    6.1370259 
    6730    699.76675   -7421.9544   -7343.8944   -22.582792    27385.132    6.1431526 
    6740    697.62877   -7421.8861   -7344.0645    164.64946    27372.701    6.1451151 
    6750    693.92356   -7421.6796   -7344.2714    416.00018    27360.943     6.138982 
    6760    683.73995   -7420.7712    -7344.499     655.4695    27350.512    6.1260171 
    6770    669.90553   -7419.4536   -7344.7246    1020.9836    27342.089        6.116 
    6780     674.7016   -7420.1965   -7344.9326    1233.8074    27336.597    6.1139965 
    6790     685.6034   -7421.6188   -7345.1388     1162.699    27334.525    6.1160841 
    6800    670.45495   -7420.1309   -7345.3406    1031.1967    27335.694    6.1149081 
    6810    664.62397   -7419.6627   -7345.5229    742.40474    27339.666    6.1074748 
    6820    670.20169   -7420.4314   -7345.6694    308.83285    27345.602    6.0995779 
    6830    694.70186   -7423.3021   -7345.8071   -267.30176    27352.265    6.0965158 
    6840    712.54205   -7425.4724   -7345.9873   -541.60174    27358.172    6.1004529 
    6850    705.93407    -7424.991    -7346.243   -404.99651    27362.604    6.1113182 
    6860    698.10212   -7424.4397   -7346.5653    -11.88798    27365.925     6.124174 
    6870    695.81455   -7424.5495   -7346.9304    460.64671    27369.186    6.1338622 
    6880     699.2009   -7425.3269   -7347.3299     810.8342    27373.657    6.1386142 
    6890    704.90839   -7426.4051   -7347.7715    745.30035    27380.203    6.1407817 
    6900    687.05435   -7424.8809   -7348.2389    442.52888    27388.661    6.1449578 
    6910    663.97424   -7422.7438   -7348.6765     197.0244    27398.247    6.1518159 
    6920    661.23196   -7422.8057   -7349.0443    -245.7603    27408.173    6.1583226 
    6930    656.96369   -7422.6214   -7349.3361   -615.83392    27417.285    6.1660254 
    6940    644.89245   -7421.4839   -7349.5452   -779.03937    27424.605     6.175481 
    6950    644.39686   -7421.5544    -7349.671    -839.7482    27429.685     6.183081 
    6960    654.17937   -7422.6964   -7349.7217   -665.81152    27432.426    6.1879176 
    6970    669.53855    -7424.416    -7349.728   -368.46594    27433.302    6.1903874 
    6980    671.61661   -7424.6385   -7349.7187   -47.837151    27433.151    6.1933829 
    6990    671.12645   -7424.5704   -7349.7052    5.3823443    27432.816    6.2029305 
    7000      671.292   -7424.5696    -7349.686   -169.59854    27432.464     6.221313 
    7010    674.03367   -7424.8499   -7349.6604   -291.62509     27431.68    6.2429667 
    7020    682.33712   -7425.7575   -7349.6417   -362.73651    27430.107    6.2619001 
    7030    687.81995   -7426.3672   -7349.6399   -214.83542    27427.629    6.2765317 
    7040    702.54685   -7428.0432    -7349.673   -266.68789    27424.521    6.2890393 
    7050    705.51133   -7428.4664   -7349.7655   -309.43549    27420.714    6.3076536 
    7060    683.41379   -7426.1366   -7349.9008   -96.440115     27416.17    6.3380972 
    7070    685.54689   -7426.5209   -7350.0472   -54.686082    27411.375    6.3742495 
    7080    697.58399   -7428.0266   -7350.2101   -71.652958    27406.474    6.4079996 
    7090    693.55007    -7427.773   -7350.4065    98.662887    27401.496    6.4369338 
    7100    681.36868   -7426.6365   -7350.6288    374.76179    27396.913    6.4610655 
    7110    671.26202    -7425.724   -7350.8437    552.26811    27393.433    6.4773758 
    7120    684.44787   -7427.4041   -7351.0529    361.08749    27391.444    6.4849021 
    7130    684.92063    -7427.672   -7351.2681    183.43793    27390.485    6.4903377 
    7140     687.6871   -7428.2128   -7351.5003    1.6908077    27390.041    6.4983215 
    7150    688.39491   -7428.5408   -7351.7493    -189.8419    27389.617    6.5084688 
    7160    681.99848   -7428.0939    -7352.016   -247.96671    27388.718    6.5199491 
    7170    666.15647    -7426.589   -7352.2782   -105.42493    27387.201    6.5358614 
    7180    659.20293   -7426.0467   -7352.5117    141.61452    27385.443    6.5581616 
    7190    655.41924   -7425.8138   -7352.7008    195.86488     27384.04    6.5809111 
    7200    650.53382   -7425.4072   -7352.8392    72.516338    27383.158      6.59752 
    7210    647.64659   -7425.1665   -7352.9205   -149.75912    27382.467    6.6096122 
    7220    647.62903   -7425.1845   -7352.9406   -332.72481    27381.381    6.6216943 
    7230    648.44324   -7425.2395   -7352.9047   -554.73887    27379.357    6.6359425 
    7240    634.16684   -7423.5529   -7352.8106   -405.76678    27375.923    6.6545964 
    7250    627.82347   -7422.6725   -7352.6379   -135.67687    27371.433    6.6780646 
    7260    646.65565   -7424.5149   -7352.3794   -87.282758    27366.563    6.7057366 
    7270    658.16797   -7425.4693   -7352.0497    83.435728    27361.563    6.7355676 
    7280    681.58463   -7427.7245   -7351.6927    195.00914    27356.839    6.7619295 
    7290    683.03282   -7427.5403   -7351.3469    378.50914    27352.748    6.7792284 
    7300    661.08163   -7424.7819   -7351.0372    694.28839    27349.802    6.7846781 
    7310    654.90284    -7423.787   -7350.7316    766.69405    27348.745     6.779916 
    7320    667.17957   -7424.8305   -7350.4057    633.61285    27349.785    6.7740345 
    7330    671.92402   -7425.0354   -7350.0813    496.43946    27352.575    6.7768157 
    7340     666.6782   -7424.1505   -7349.7816    625.61306    27356.792     6.790131 
    7350    669.91787   -7424.2398   -7349.5095     894.6611    27362.718    6.8095775 
    7360    678.38238   -7424.9491   -7349.2745    1069.1168    27371.043    6.8306919 
    7370    683.59981   -7425.3472   -7349.0907    921.33983    27382.161     6.849781 
    7380    683.49468   -7425.2037   -7348.9588    704.88305    27395.702    6.8649267 
    7390    681.52293   -7424.8944   -7348.8695    499.17561    27411.064    6.8764829 
    7400    685.56199   -7425.2914   -7348.8159    287.07686    27427.657    6.8842071 
    7410    684.67639   -7425.1705   -7348.7938    170.15254    27444.885    6.8904183 
    7420    679.20733   -7424.5678   -7348.8012    150.14181    27462.416    6.8971635 
    7430    661.46413   -7422.6006   -7348.8133    181.91376    27480.187    6.9046113 
    7440    657.61325   -7422.1563   -7348.7985   -85.205309    27498.192     6.911797 
    7450    672.93135   -7423.8194   -7348.7529   -720.79196    27515.643    6.9211399 
    7460    670.69556   -7423.5145   -7348.6974    -1038.733    27530.978    6.9365811 
    7470     664.9635   -7422.8178   -7348.6401   -1207.8022    27543.258    6.9554063 
    7480    661.10319   -7422.3158   -7348.5687   -1121.5241    27552.066    6.9717981 
    7490    651.66381   -7421.1615   -7348.4674   -668.79773    27557.721    6.9841237 
    7500    657.15837   -7421.6342   -7348.3272    -282.7128    27561.412    6.9924228 
    7510     665.6894   -7422.4057    -7348.147   -99.479255    27564.242    6.9982667 
    7520    674.60049   -7423.2036   -7347.9509    -163.7795    27566.698    7.0052086 
    7530     673.5871   -7422.8862   -7347.7466   -201.83495     27568.68    7.0146337 
    7540    672.24239   -7422.5252   -7347.5356   -147.89556    27570.093    7.0245674 
    7550    671.02715   -7422.1671   -7347.3131   -86.231429    27571.082    7.0326082 
    7560    682.61906   -7423.2345   -7347.0873   -183.91708    27571.782    7.0370895 
    7570    690.46202    -7423.895   -7346.8729   -454.09636    27571.905     7.038024 
    7580    690.88364   -7423.7585   -7346.6894   -700.85939    27570.761    7.0380895 
    7590     690.1325    -7423.527   -7346.5417   -797.74222    27567.698    7.0401595 
    7600    693.84735   -7423.8296   -7346.4299   -820.55204    27562.459    7.0441827 
    7610    693.48651   -7423.7155   -7346.3561   -770.27864    27555.025     7.049066 
    7620    689.59063   -7423.2483   -7346.3235   -788.03665    27545.513    7.0529971 
    7630    683.93377   -7422.6188   -7346.3249   -640.95632    27533.975    7.0547954 
    7640    677.21041   -7421.8899    -7346.346   -119.67086    27520.902    7.0546419 
    7650    677.08563   -7421.9051   -7346.3752    96.723917    27507.574    7.0515732 
    7660    676.01966   -7421.8209   -7346.4099    133.36794    27494.652    7.0445177 
    7670    677.88961   -7422.0725   -7346.4529    254.58844    27482.295    7.0364287 
    7680    677.41864   -7422.0686   -7346.5016    378.08052    27470.802    7.0337874 
    7690    684.15006   -7422.8866   -7346.5687    367.90321    27460.471    7.0406225 
    7700    682.57079   -7422.8049   -7346.6631     441.7209     27451.32    7.0583302 
    7710    684.68855   -7423.1724   -7346.7943    586.84344    27443.526    7.0828711 
    7720    696.26214   -7424.6499   -7346.9808    683.96057    27437.444     7.105594 
    7730    701.23481   -7425.4745   -7347.2507    774.85848     27433.36     7.119728 
    7740    707.03014   -7426.5103     -7347.64     531.9628    27431.402    7.1195706 
    7750    703.63111   -7426.6588   -7348.1677    195.94472     27430.93    7.1049365 
    7760    692.23672   -7426.0391    -7348.819    15.165723    27431.045    7.0817904 
    7770    680.19987   -7425.4259   -7349.5485   -44.272084    27431.219    7.0579133 
    7780    679.70258   -7426.1226   -7350.3008    -175.7658    27431.266    7.0403895 
    7790     685.2995   -7427.5024   -7351.0562   -499.87011    27430.787    7.0315405 
    7800     669.9325   -7426.4949   -7351.7629   -539.85474    27429.021    7.0290439 
    7810    660.18364   -7426.0175   -7352.3731   -550.15153    27425.739    7.0294177 
    7820    653.30273    -7425.736   -7352.8591   -347.32476    27421.024    7.0315201 
    7830    654.50128   -7426.2411   -7353.2305   -149.46688    27415.406    7.0334373 
    7840    651.48211    -7426.179   -7353.5052   -114.44401    27409.371    7.0350512 
    7850    645.06582   -7425.6492   -7353.6911   -56.795753    27403.079     7.039961 
    7860    643.12753   -7425.5368    -7353.795   -51.214835    27396.682    7.0515751 
    7870    639.33256   -7425.1372   -7353.8187   -193.70118    27390.179     7.067361 
    7880    646.86636   -7425.9342   -7353.7753   -376.39706    27383.213    7.0805108 
    7890    651.29363   -7426.3299   -7353.6771   -571.57308    27375.251    7.0904553 
    7900    650.14403   -7426.0616   -7353.5371   -489.49341    27365.841    7.1013201 
    7910    649.89816   -7425.8498   -7353.3526   -96.226975    27355.236    7.1144734 
    7920    651.08227   -7425.7477   -7353.1185    350.53342    27344.483    7.1307736 
    7930    658.35894   -7426.2836   -7352.8427    447.99219    27334.702    7.1496414 
    7940    658.82709   -7426.0275   -7352.5344    466.74109    27326.238    7.1689914 
    7950    659.59521   -7425.7824   -7352.2036    542.52293    27319.145    7.1872347 
    7960    664.33997    -7425.956   -7351.8478    782.86336    27313.665    7.2030853 
    7970    678.21201   -7427.1372   -7351.4817    968.99598     27310.37    7.2204648 
    7980    678.65873   -7426.8347   -7351.1293    1080.8921    27309.775    7.2436918 
    7990    667.71695   -7425.2853   -7350.8004    1093.3418    27312.179    7.2720306 
    8000     667.9666   -7424.9918   -7350.4791     859.8594    27317.516    7.3018356 
    8010    665.09791   -7424.3472   -7350.1545    868.23572    27325.278    7.3309336 
    8020    666.20617   -7424.1468   -7349.8305    869.76033    27335.382    7.3569534 
    8030    672.28697    -7424.503   -7349.5084    833.60411     27347.81    7.3784685 
    8040    668.00038   -7423.7103   -7349.1938    815.74762    27362.475    7.3977718 
    8050    673.22058   -7423.9927   -7348.8939    547.38255    27379.227    7.4156449 
    8060    683.68836   -7424.8728   -7348.6064    249.03884    27397.381    7.4323036 
    8070    689.45128   -7425.2646   -7348.3553   -3.7972753    27416.097    7.4500196 
    8080    692.04561   -7425.3486   -7348.1498    -250.9438    27434.647     7.472058 
    8090    701.64104   -7426.2684   -7347.9993   -377.76192    27452.355    7.5015011 
    8100    707.25121   -7426.8111   -7347.9162   -377.92077    27468.888    7.5384741 
    8110    700.31548   -7426.0292    -7347.908    -391.7692    27484.202    7.5816995 
    8120    686.05229   -7424.4792   -7347.9491   -244.31254    27498.308    7.6311502 
    8130    690.39505   -7425.0278   -7348.0132   -148.04325    27511.568    7.6862981 
    8140    694.67258   -7425.5871   -7348.0953    -177.6938    27524.238    7.7458907 
    8150    693.77127   -7425.6043   -7348.2131   -133.97661    27536.283      7.80496 
    8160    692.38121   -7425.6095   -7348.3734    -64.56721    27547.812    7.8580126 
    8170    693.00839   -7425.8834   -7348.5772   -137.85249    27558.957     7.903414 
    8180    683.75417   -7425.0854   -7348.8116   -294.62654    27569.542    7.9428218 
    8190    674.54177   -7424.2975   -7349.0513   -620.21483    27579.116    7.9773802 
    8200    675.65049   -7424.6477   -7349.2779   -888.86786    27586.833    8.0095004 
    8210    675.64775   -7424.8605    -7349.491   -843.04747    27592.027    8.0424945 
    8220    674.14509   -7424.8948   -7349.6929   -694.26537    27594.789    8.0785293 
    8230    682.83586   -7426.0687   -7349.8973    -558.1394    27595.551    8.1160007 
    8240    670.55052   -7424.9007   -7350.0998   -450.96497    27594.735    8.1530392 
    8250    660.87565    -7424.009   -7350.2873   -470.16867    27592.633    8.1871767 
    8260    654.09473   -7423.4001   -7350.4348   -447.13699    27589.262    8.2152027 
    8270     652.4915   -7423.3164   -7350.5299   -357.03999    27584.703    8.2334266 
    8280    667.30694   -7425.0205   -7350.5814   -311.56296    27579.197    8.2432099 
    8290    679.88115   -7426.4563   -7350.6145   -225.88272    27572.925    8.2513244 
    8300    688.20684   -7427.4286   -7350.6581   -199.19498    27566.116    8.2641503 
    8310    689.08703   -7427.5958   -7350.7271   -346.81651    27558.815    8.2835825 
    8320      682.141   -7426.9117   -7350.8178   -488.41837     27550.67    8.3062759 
    8330    687.67754   -7427.6345    -7350.923   -395.92733    27541.352    8.3289595 
    8340     696.0532   -7428.6964   -7351.0507   -78.440696    27531.141    8.3527442 
    8350    699.54332   -7429.2495   -7351.2144    86.707245     27520.84    8.3801813 
    8360    698.56044   -7429.3482   -7351.4228    152.66261    27510.938    8.4097485 
    8370    671.37804   -7426.5424   -7351.6491    278.10559    27501.654    8.4381297 
    8380    649.52272    -7424.286   -7351.8308    229.02597    27493.255    8.4609386 
    8390     665.6475   -7426.2052   -7351.9512   -91.464655    27485.543     8.477117 
    8400    675.12063   -7427.3404   -7352.0296   -196.59127    27477.753    8.4912731 
    8410     675.1148    -7427.404   -7352.0939   -119.09338    27469.563    8.5060653 
    8420    674.38496   -7427.3721   -7352.1435    161.14208    27461.231    8.5225654 
    8430    688.26618   -7428.9657   -7352.1886     342.8523    27453.451    8.5398621 
    8440    699.09443   -7430.2391   -7352.2541    298.02097    27446.693    8.5568405 
    8450     688.0392   -7429.0999   -7352.3481    -57.95381    27440.784    8.5715032 
    8460     681.8066   -7428.5138   -7352.4572   -423.10323    27434.798    8.5801819 
    8470    671.01071   -7427.4142    -7352.562   -413.87343    27427.815    8.5855053 
[...]
   22890     702.0402   -7425.0682   -7346.7546   -293.48726    27262.472    17.235314 
   22900     691.5333   -7424.2311   -7347.0895   -101.93501    27256.623    17.247192 
   22910    680.85852    -7423.344   -7347.3932    -56.75282    27250.505    17.250899 
   22920    681.39164   -7423.6677   -7347.6574   -197.78844    27244.237    17.256487 
   22930    683.90785   -7424.1799    -7347.889   -341.88823    27237.468    17.272469 
   22940    676.79962   -7423.5964   -7348.0983   -191.44582    27229.868    17.296816 
   22950    663.62761    -7422.299   -7348.2703    116.63711    27221.826    17.322306 
   22960    663.83164   -7422.4525   -7348.4011    233.24909    27214.103    17.339133 
   22970     660.0461   -7422.1189   -7348.4898    292.79707    27207.046    17.341976 
   22980    658.85488    -7422.033   -7348.5368    304.00373     27200.82    17.338522 
   22990    668.29054   -7423.0951   -7348.5463    74.292477    27195.394    17.336605 
   23000    683.64181   -7424.8052   -7348.5439   -129.47382    27190.203    17.337042 
   23010    683.27946   -7424.7707   -7348.5498    -94.51579    27184.737    17.340603 
   23020    677.92438   -7424.1972   -7348.5737    22.185745    27179.036    17.345057 
   23030    671.49959   -7423.5074   -7348.6007    344.34101    27173.486    17.345762 
   23040    677.83176   -7424.2362   -7348.6231    566.48832    27168.883    17.336955 
   23050    697.54822   -7426.4769   -7348.6644    503.16954    27165.774    17.318922 
   23060    695.47474   -7426.3346   -7348.7533    406.08357    27164.065    17.302882 
   23070    683.92844   -7425.1831   -7348.8899    195.47749    27163.457    17.298922 
   23080    676.68106   -7424.5332   -7349.0484   -96.960228    27163.364    17.308455 
   23090    680.97014   -7425.1767   -7349.2135   -364.53126    27163.021    17.325415 
   23100     694.5116    -7426.882   -7349.4082   -364.22398    27161.766    17.346209 
   23110    689.13272   -7426.5215   -7349.6477    4.8989423    27159.603    17.370433 
   23120    678.55627   -7425.6176   -7349.9237    336.32512    27157.456    17.395795 
   23130    678.70969   -7425.9359   -7350.2248     132.5759    27156.116    17.419012 
   23140    669.91207   -7425.2703   -7350.5406   -190.45031     27155.13    17.442081 
   23150    666.10046   -7425.1645     -7350.86   -513.06703    27153.635    17.471378 
   23160    665.72249   -7425.4397   -7351.1773   -832.29697     27150.74    17.511212 
   23170    653.96463   -7424.4317   -7351.4809   -780.28519    27145.673    17.561247 
   23180    645.12958    -7423.715   -7351.7498   -407.49722    27138.564    17.614397 
   23190     642.0305   -7423.5831   -7351.9636    52.870562     27130.37    17.658485 
   23200    645.29028   -7424.0975   -7352.1144    560.32471    27122.353    17.685647 
   23210    659.12778   -7425.7447    -7352.218    989.39667    27115.884    17.695714 
   23220    667.64528   -7426.7746   -7352.2978    1197.3669    27112.082    17.692116 
   23230    668.38653   -7426.9278   -7352.3683    1364.1445    27111.557    17.680777 
   23240     675.1976   -7427.7519   -7352.4326    1409.5539    27114.742    17.668244 
   23250    683.08512   -7428.7064   -7352.5072    1205.7293    27121.703    17.660051 
   23260    672.70171   -7427.6431   -7352.6022    1032.8994    27131.962    17.660492 
   23270    667.32651   -7427.1542   -7352.7129    757.72911    27145.008    17.669022 
   23280    668.46163   -7427.3918   -7352.8239    448.62119    27160.115    17.681151 
   23290    683.90648   -7429.2378    -7352.947    93.294553    27176.406    17.694386 
   23300    686.14358   -7429.6521   -7353.1117    68.022507    27192.994    17.708041 
   23310    671.74958   -7428.2692   -7353.3345     235.7732    27209.777    17.720777 
   23320    662.63776   -7427.5192   -7353.6009    79.577547     27227.08    17.731397 
   23330    652.30135   -7426.6466   -7353.8814   -166.56454    27244.553    17.739782 
   23340    652.29159   -7426.9207   -7354.1566   -494.39651    27261.485    17.744811 
   23350    647.58214   -7426.6445   -7354.4057   -665.93661    27277.049     17.74933 
   23360    642.28066   -7426.2633   -7354.6159   -832.40041    27290.726    17.759365 
   23370    638.07939   -7425.9486   -7354.7699   -929.17332    27302.069    17.779166 
   23380    646.04114   -7426.9321   -7354.8652   -915.80082    27310.833    17.808145 
   23390    655.47754   -7428.0302   -7354.9107   -1008.1315    27317.008    17.837667 
   23400    654.27449   -7427.9022   -7354.9169   -1064.0317    27320.384    17.856846 
   23410    658.68105   -7428.3609    -7354.884   -1032.1856    27320.825    17.864274 
   23420    672.80019   -7429.8706   -7354.8187   -957.45046    27318.418    17.869651 
   23430    667.78545   -7429.2234   -7354.7309   -738.92597    27313.418    17.884587 
   23440    664.76598    -7428.784   -7354.6284   -609.58215     27306.37     17.91307 
   23450    647.38696    -7426.707     -7354.49   -404.08324    27297.689    17.951568 
   23460    627.17031   -7424.2443   -7354.2825   -76.196175    27287.969    17.987153 
   23470    644.23318    -7425.834   -7353.9689   -98.668078    27277.988    18.007408 
   23480    680.76169   -7429.4994   -7353.5594   -339.80008    27267.706    18.013916 
   23490    682.53463   -7429.2553   -7353.1175   -234.66422    27256.598    18.009464 
   23500    675.34501   -7428.0166   -7352.6809   -60.504002     27244.87    17.991821 
   23510    690.59268   -7429.2806    -7352.244    72.374462    27232.999    17.969868 
   23520    695.80509   -7429.4441    -7351.826    326.99578    27221.382    17.962046 
   23530    691.01403    -7428.538   -7351.4543    665.45502     27210.72    17.972319 
   23540    686.19607   -7427.6725   -7351.1263    863.39821    27201.874    17.990419 
   23550    690.13767   -7427.8187   -7350.8328    903.16337     27195.38    18.007086 
   23560    696.63332   -7428.2861   -7350.5756    838.69057    27191.358    18.019207 
   23570    692.77441   -7427.6485   -7350.3685    891.76262    27189.681    18.024627 
   23580    679.18295   -7425.9653   -7350.2014    929.15297    27190.454    18.021846 
   23590    680.81541   -7426.0005   -7350.0545    663.37614    27193.704    18.017164 
   23600    677.82982   -7425.5295   -7349.9166    278.32955    27198.759    18.020596 
   23610     666.7972   -7424.1634   -7349.7811    117.19331    27204.651    18.033451 
   23620     667.2084   -7424.0567   -7349.6286    167.78169    27210.937    18.054803 
   23630    673.29269   -7424.5593   -7349.4525    270.26121     27217.72    18.085634 
   23640    675.51581    -7424.614   -7349.2592    301.62804    27225.266    18.125169 
   23650    685.77866   -7425.5581   -7349.0585   -31.221398    27233.582    18.166768 
   23660     685.1258   -7425.2823   -7348.8555   -298.09711    27241.864    18.200796 
   23670    674.40281    -7423.886   -7348.6554   -321.58552    27249.403    18.222524 
   23680    668.41965   -7423.0046   -7348.4414   -337.33094    27256.072    18.235054 
   23690    679.45031   -7423.9971   -7348.2034    -276.8461    27261.855    18.243328 
   23700    687.04021   -7424.5903     -7347.95   -62.531243    27266.933    18.248632 
   23710    691.17075   -7424.7972   -7347.6961    72.130883    27271.822    18.253144 
   23720    691.05753   -7424.5329   -7347.4444    42.773054    27276.893    18.269383 
   23730    690.16509   -7424.1829    -7347.194   -217.40255    27282.047    18.305976 
   23740    688.35789   -7423.7285   -7346.9411   -488.20808    27286.599    18.351365 
   23750    688.83446   -7423.5241   -7346.6836    -664.5068    27289.822    18.387255 
   23760    689.37625   -7423.3196   -7346.4187   -727.26773    27291.257    18.404662 
   23770    691.80887   -7423.3163    -7346.144   -665.65189    27290.719    18.406361 
   23780    693.13971   -7423.1757   -7345.8549   -411.77332    27288.399    18.400802 
   23790    703.05554   -7423.9862   -7345.5592   -291.94761    27284.891    18.400128 
   23800    702.31937   -7423.6152   -7345.2705   -121.55079      27280.6    18.412295 
   23810    707.50867   -7423.9288   -7345.0052   -46.743935    27275.931    18.431852 
   23820    712.23805   -7424.2211   -7344.7699   -48.285304    27271.108    18.456695 
   23830    712.27013   -7424.0482   -7344.5934   -43.366911    27266.139      18.4863 
   23840    704.43293   -7423.0714   -7344.4908    72.077609    27261.068    18.520174 
   23850    685.16856   -7420.8798   -7344.4482    339.11055    27256.214    18.557355 
   23860    681.10504   -7420.4125   -7344.4342    637.41077     27252.29    18.592694 
   23870    696.39089   -7422.1226   -7344.4392    783.26411    27250.094    18.622225 
   23880    701.41604   -7422.7342   -7344.4902    676.11474    27249.988    18.641741 
   23890    702.08258   -7422.9288   -7344.6104    532.47024    27251.742    18.643995 
   23900      717.742   -7424.8846   -7344.8194    209.85169    27254.935    18.629367 
   23910     721.6088   -7425.6555   -7345.1589   -246.88112    27258.682     18.61043 
   23920    702.28327   -7423.9734   -7345.6326    -431.3931    27261.855    18.599258 
   23930    690.77478   -7423.2568   -7346.1998   -500.65657    27263.885    18.601028 
   23940    687.53389     -7423.52   -7346.8245   -553.91533    27264.542    18.615734 
   23950    679.26067    -7423.247   -7347.4744   -491.45433    27263.713    18.640967 
   23960    673.64057    -7423.253   -7348.1074   -464.53415    27261.517    18.672515 
   23970    675.28818   -7424.0355   -7348.7061    -435.1661    27258.017    18.706106 
   23980    665.76428   -7423.5095   -7349.2425   -405.65439    27253.305    18.737791 
   23990    671.95855   -7424.6736   -7349.7157      -665.44    27247.361    18.761974 
   24000    671.02265   -7424.9902   -7350.1366   -849.81338    27239.553    18.774588 
   24010    654.59127   -7423.5187    -7350.498   -627.18735     27229.44    18.779781 
   24020    651.64668   -7423.4717   -7350.7795     -367.447    27217.535    18.784941 
   24030    669.26694   -7425.6516   -7350.9939   -412.97973    27204.453    18.791498 
   24040    681.85516   -7427.2398   -7351.1779   -468.58597    27190.131    18.799166 
   24050    677.82126   -7426.9716   -7351.3596   -381.28128    27174.436    18.808636 
   24060    662.78419   -7425.4584   -7351.5238   -226.41523    27157.581    18.817321 
   24070    663.97149    -7425.727     -7351.66   -214.74861    27139.931     18.82266 
   24080    666.31453   -7426.0956   -7351.7672   -154.39125    27121.579    18.828369 
   24090     672.5386   -7426.8773   -7351.8546   -8.7039936    27102.678    18.834935 
   24100    677.73639   -7427.5392   -7351.9366    103.95455    27083.584    18.842763 
   24110    674.97429   -7427.3112   -7352.0168     194.7393     27064.63    18.854654 
   24120    681.03473   -7428.0745   -7352.1041    227.88901    27046.046    18.873162 
   24130    679.75445    -7428.028   -7352.2004    488.06139    27027.987    18.895331 
   24140    676.98852   -7427.8305   -7352.3114    708.98621    27011.079    18.915265 
   24150    680.38819   -7428.3284   -7352.4301    657.29971    26995.891    18.927969 
   24160      687.492   -7429.2644   -7352.5736    505.07188    26982.321    18.930977 
   24170    672.95585   -7427.8067   -7352.7374    812.46208    26970.128    18.927897 
   24180    673.29243   -7428.0158   -7352.9091    1009.7042    26959.995    18.921554 
   24190    678.69088   -7428.7979   -7353.0889    935.88686    26952.451    18.917606 
   24200    668.06394   -7427.8087   -7353.2852    754.62931    26947.358    18.920836 
   24210    655.63807   -7426.6191   -7353.4817    694.07724    26944.291    18.927759 
   24220    661.15321   -7427.4136    -7353.661    807.32882    26943.121    18.934142 
   24230    668.17158   -7428.3655   -7353.8299    890.69209    26944.122     18.94577 
   24240    663.56796   -7428.0228   -7354.0008    928.57848    26947.567    18.969376 
   24250    657.67988   -7427.5304   -7354.1652    764.06508    26953.544    18.998523 
   24260      665.004   -7428.5034   -7354.3212    577.77908    26961.684    19.024927 
   24270    667.77291   -7428.9656   -7354.4746    489.96317    26971.524    19.049196 
   24280    668.62533   -7429.2269   -7354.6408    340.42252    26982.823    19.070587 
   24290     664.9649   -7428.9961   -7354.8183    64.039201    26995.189    19.089076 
   24300    668.86585   -7429.6221   -7355.0091   -23.409036     27007.96    19.109701 
   24310    672.90133   -7430.2899   -7355.2267    52.215174    27020.891     19.13146 
   24320    659.19796   -7429.0037   -7355.4692    280.32771    27034.221     19.14399 
   24330    650.97455   -7428.3384   -7355.7212     439.9716    27048.515    19.142697 
   24340    640.55505   -7427.4058   -7355.9509    571.71147    27064.261    19.135746 
   24350    634.11291    -7426.874   -7356.1378    429.81464    27081.771    19.129908 
   24360    630.96477   -7426.6392   -7356.2542    196.94367    27100.739    19.128987 
   24370    647.77551   -7428.5545   -7356.2942    88.412046    27120.602     19.13672 
   24380    670.60328   -7431.0858    -7356.279   -3.3931768    27141.043    19.155058 
   24390    678.46039   -7431.9278   -7356.2446   -51.955609    27161.836    19.181924 
   24400    674.80276   -7431.4833    -7356.208   -212.72143    27182.802     19.21125 
   24410    672.83968   -7431.2276   -7356.1713   -361.90059    27203.537     19.23644 
   24420    659.73095   -7429.7165   -7356.1225   -192.59537    27223.724    19.252824 
   24430    648.05431   -7428.3306   -7356.0392   -50.904523    27243.707    19.257096 
   24440     651.9226   -7428.6173   -7355.8944   -186.93158    27263.807    19.252529 
   24450    658.26715    -7429.109   -7355.6783   -421.59117    27283.701     19.24898 
   24460    655.53991   -7428.5246   -7355.3981   -522.61695    27302.783    19.253777 
   24470    644.59714   -7426.9589   -7355.0531   -611.58144    27320.705    19.265918 
   24480    637.69001   -7425.7566   -7354.6213   -696.07973    27337.205    19.282719 
   24490    654.16596   -7427.0632     -7354.09   -821.75744     27351.99    19.302068 
   24500     675.2314   -7428.8066   -7353.4835   -704.44139    27364.746    19.318859 
   24510    685.44343    -7429.332   -7352.8698   -404.21496    27375.739    19.327822 
   24520    688.95811   -7429.1516   -7352.2972   -216.57222    27385.724    19.326341 
   24530    698.12833   -7429.6664   -7351.7891   -101.33521    27395.222    19.316764 
   24540    710.60522   -7430.6323   -7351.3632    87.927172    27404.588    19.304019 
   24550    716.31734   -7430.9542   -7351.0479    279.62592    27414.331    19.291609 
   24560    695.88132   -7428.4697   -7350.8431     400.9485    27424.957    19.286053 
   24570    664.46168   -7424.8223   -7350.7006    447.24233     27436.82    19.296173 
   24580    656.88659   -7423.8308   -7350.5541    221.42068    27450.024    19.326048 
   24590    676.17137   -7425.8047   -7350.3768   -238.12908    27463.949    19.368516 
   24600    682.04498   -7426.2733   -7350.1901   -546.92306    27477.399    19.407207 
   24610    672.95944   -7425.0883   -7350.0187   -567.03432    27489.538    19.425686 
   24620    675.87259   -7425.2512   -7349.8566   -691.62332    27500.193    19.417743 
   24630    678.18038   -7425.3499   -7349.6978   -988.98091    27508.961    19.392034 
   24640    671.00677   -7424.3949   -7349.5431   -987.76297    27515.104    19.367509 
   24650    671.79416   -7424.3243   -7349.3847   -757.85437    27518.565    19.361634 
   24660    679.41046   -7425.0075   -7349.2182   -616.79435    27519.879    19.376794 
   24670    686.41136   -7425.6312    -7349.061   -696.62982    27519.413    19.402523 
   24680    687.09434   -7425.5722   -7348.9258   -813.85281    27516.992    19.424879 
   24690    690.80648   -7425.8814   -7348.8209   -1043.4744    27512.205    19.435753 
   24700    679.79114   -7424.5735   -7348.7418   -1110.3084    27504.467    19.432834 
   24710    680.24506   -7424.5616   -7348.6793   -1226.1997    27493.492    19.418202 
   24720    697.57318   -7426.4488   -7348.6335   -1418.0784    27478.911    19.404044 
   24730    705.67053   -7427.3549   -7348.6363   -1297.1432     27460.24    19.401647 
   24740    700.13668   -7426.8107   -7348.7094    -833.5561    27437.789    19.413648 
   24750    695.95721   -7426.4859   -7348.8508   -320.29133    27412.755    19.434683 
   24760    693.73279   -7426.4418   -7349.0549    133.16511    27386.534    19.452772 
   24770    700.42551   -7427.4754   -7349.3419    388.66977    27360.356     19.45762 
   24780    685.02202   -7426.1449   -7349.7297    492.66422    27334.955    19.447936 
   24790    655.02721   -7423.2578   -7350.1885    543.78511     27310.65    19.428845 
   24800    643.99943   -7422.5008   -7350.6617    530.76985    27287.577    19.407793 
   24810    668.80832   -7425.7581   -7351.1515    506.69691    27265.725    19.391778 
   24820    686.37911   -7428.2651   -7351.6985    477.94307    27245.014    19.387452 
   24830    685.76495   -7428.8203   -7352.3222    682.62401    27225.458    19.396124 
   24840    672.49231   -7428.0057   -7352.9882    872.41742    27207.566    19.412653 
   24850    668.31273   -7428.2032   -7353.6519    1036.1037    27191.867    19.431891 
   24860    659.23766   -7427.8064   -7354.2674    1250.0111    27178.872    19.453819 
   24870    667.86696   -7429.3235   -7354.8219    1049.4819    27169.061    19.480369 
   24880    670.56012   -7430.1199   -7355.3179    682.14555    27161.989    19.511626 
   24890    654.54344   -7428.7537   -7355.7384    470.87877    27156.756    19.544709 
   24900    643.88189   -7427.8849   -7356.0589    343.21254    27152.779    19.573935 
   24910    644.19936   -7428.1405   -7356.2791     391.9483    27149.749    19.598346 
   24920     651.7149   -7429.1161   -7356.4163    403.76849    27147.756    19.624059 
   24930    660.84523   -7430.2172   -7356.4989    480.10563    27146.877    19.656414 
   24940    651.33539   -7429.1951   -7356.5376    736.59307    27147.372    19.696441 
   24950    651.01661   -7429.1469   -7356.5251    767.53085    27149.852    19.740378 
   24960    678.22651   -7432.1291   -7356.4719     535.9186    27154.416    19.782119 
   24970    682.46572   -7432.5465   -7356.4164    511.76161    27160.589     19.81966 
   24980    666.69229    -7430.745   -7356.3745    454.51757    27168.248    19.851481 
   24990    668.47622   -7430.8981   -7356.3286    40.792724    27177.186    19.876477 
   25000    677.16211   -7431.8148   -7356.2764   -625.32572    27186.291    19.899072 
Loop time of 10042 on 16 procs for 20000 steps with 864 atoms

Performance: 0.172 ns/day, 139.472 hours/ns, 1.992 timesteps/s
96.9% CPU use with 16 MPI tasks x 1 OpenMP threads

MPI task timing breakdown:
Section |  min time  |  avg time  |  max time  |%varavg| %total
---------------------------------------------------------------
Pair    | 6031.1     | 7962.8     | 9960.6     |1540.9 | 79.29
Bond    | 0.0014923  | 0.0040327  | 0.0072763  |   3.3 |  0.00
Neigh   | 0.21251    | 0.23943    | 0.2715     |   3.0 |  0.00
Comm    | 46.157     | 1797.1     | 3760       |3246.6 | 17.90
Output  | 2.8598     | 2.8849     | 3.249      |   5.5 |  0.03
Modify  | 19.809     | 278.89     | 523.81     |1139.3 |  2.78
Other   |            | 0.08894    |            |       |  0.00

Nlocal:        54.0000 ave          60 max          49 min
Histogram: 4 1 2 0 2 0 0 5 1 1
Nghost:        426.312 ave         440 max         406 min
Histogram: 1 1 1 1 2 1 1 4 1 3
Neighs:         0.00000 ave           0 max           0 min
Histogram: 16 0 0 0 0 0 0 0 0 0
FullNghs:      1677.25 ave        1991 max        1430 min
Histogram: 3 1 2 0 4 1 2 0 1 2

Total # of neighbors = 26836
Ave neighs/atom = 31.060185
Ave special neighs/atom = 0.0000000
Neighbor list builds = 2000
Dangerous builds = 2000
unfix   3
                
Total wall time: 3:28:26
