LAMMPS (29 Sep 2021 - Update 3)
OMP_NUM_THREADS environment is not set. Defaulting to 1 thread. (src/comm.cpp:98)
  using 1 OpenMP thread(s) per MPI task
Reading data file ...
  orthogonal box = (0.0000000 0.0000000 0.0000000) to (18.492711 18.368364 83.044081)
  2 by 1 by 8 MPI processor grid
  reading atoms ...
  864 atoms
Finding 1-2 1-3 1-4 neighbors ...
  special bond factors lj:    0        0        0       
  special bond factors coul:  0        0        0       
     0 = max # of 1-2 neighbors
     0 = max # of 1-3 neighbors
     0 = max # of 1-4 neighbors
     1 = max # of special neighbors
  special bonds CPU = 0.003 seconds
  read_data CPU = 0.050 seconds
Neighbor list info ...
  update every 1 steps, delay 10 steps, check yes
  max neighbors/atom: 2000, page size: 100000
  master list distance cutoff = 6.22
  ghost atom cutoff = 6.22
  binsize = 3.11, bins = 6 6 27
  1 neighbor lists, perpetual/occasional/extra = 1 0 0
  (1) pair quip, perpetual
      attributes: full, newton on
      pair build: full/bin
      stencil: full/bin/3d
      bin: standard
Setting up Verlet run ...
  Unit style    : metal
  Current step  : 0
  Time step     : 0.001
Per MPI rank memory allocation (min/avg/max) = 8.888 | 8.895 | 8.900 Mbytes
Step Temp PotEng TotEng Press Volume c_msd[4] 
       0            0   -7973.6696   -7973.6696   -2874.2394    28208.484            0 
      10    41.278351   -7978.2784   -7973.6737   -2959.4518    28208.484 0.00023887099 
      20    117.01377   -7986.7312   -7973.6782   -2971.9336    28208.484 0.0029537371 
      30    174.81925   -7993.1785   -7973.6771   -2824.2466    28208.484  0.010160551 
      40    218.44962    -7998.045   -7973.6766   -2720.6333    28208.484  0.020641735 
      50    256.00476   -8002.2349   -7973.6771   -2700.3711    28208.484  0.032489043 
      60    281.23595   -8005.0509   -7973.6786   -2720.3164    28208.484  0.045481137 
      70    279.84796   -8004.8936   -7973.6762   -2497.2427    28208.484  0.060875411 
      80    275.57271   -8004.4166   -7973.6761   -2346.6282    28208.484  0.078472831 
      90    275.14134   -8004.3684    -7973.676   -2375.5075    28208.484  0.097756432 
     100    277.97329   -8004.6843   -7973.6759   -2450.2098    28208.484   0.11838341 
     110    284.32121   -8005.3929   -7973.6764   -2585.3887    28208.484    0.1397563 
     120    288.42818   -8005.8514   -7973.6768   -2555.7238    28208.484   0.16133553 
     130    287.27066   -8005.7216   -7973.6761   -2379.8786    28208.484   0.18293983 
     140    286.58177   -8005.6454   -7973.6767   -2199.4073    28208.484   0.20440576 
     150    283.09159    -8005.256   -7973.6767   -2058.8623    28208.484   0.22545748 
     160    281.87093     -8005.12   -7973.6769   -2002.9487    28208.484   0.24504756 
     170    281.00839    -8005.024   -7973.6771   -2057.3307    28208.484   0.26222423 
     180    282.68046     -8005.21   -7973.6765   -2118.7926    28208.484   0.27648184 
     190    291.53832   -8006.1995   -7973.6779   -2237.0667    28208.484   0.28923786 
     200    293.64302   -8006.4325   -7973.6762   -2373.3356    28208.484   0.30372277 
     210    298.64228   -8006.9936   -7973.6796   -2435.1957    28208.484   0.32052492 
     220    292.65421   -8006.3221   -7973.6761   -2273.8456    28208.484   0.33666335 
     230    296.18967   -8006.7198   -7973.6794   -2277.4624    28208.484   0.34931106 
     240    282.07352   -8005.1401   -7973.6743   -2198.7147    28208.484   0.36070053 
     250    293.47873    -8006.417    -7973.679   -2346.9356    28208.484   0.37209929 
     260    294.86866   -8006.5718   -7973.6788   -2406.0825    28208.484   0.38456478 
     270    292.66954   -8006.3399   -7973.6921   -2371.6679    28208.484   0.39632792 
     280    288.22645   -8005.8424   -7973.6903   -2343.9303    28208.484   0.40740341 
     290    280.03766   -8004.9272   -7973.6886   -2399.6918    28208.484   0.41930862 
     300    280.42672   -8004.9707   -7973.6886   -2493.7264    28208.484   0.43203295 
     310    287.66524   -8005.7795     -7973.69   -2540.7382    28208.484   0.44617059 
     320    287.59248   -8005.7709   -7973.6895   -2479.6365    28208.484   0.46153129 
     330    287.30367   -8005.7384   -7973.6892   -2430.7941    28208.484   0.47558463 
     340      291.107   -8006.1632   -7973.6897   -2433.3574    28208.484   0.48761679 
     350    290.07985   -8006.0486   -7973.6898   -2407.8749    28208.484   0.49931209 
     360    283.46216   -8005.3096    -7973.689    -2324.857    28208.484   0.51138392 
     370    283.31611   -8005.2933    -7973.689   -2223.9029    28208.484   0.52363749 
     380    293.81781   -8006.4657   -7973.6899   -2201.7975    28208.484   0.53571675 
     390    300.79692   -8007.2454   -7973.6911   -2203.1603    28208.484   0.54763687 
     400    296.63974     -8006.78   -7973.6894   -2207.2978    28208.484   0.55946952 
     410     295.9675   -8006.7055   -7973.6899    -2389.454    28208.484   0.57119336 
     420    296.34311   -8006.7466   -7973.6891   -2528.2941    28208.484   0.58115249 
     430    302.08464   -8007.3879   -7973.6899   -2546.6384    28208.484   0.58802692 
     440    300.89773   -8007.2566    -7973.691   -2408.1467    28208.484   0.59313659 
     450    295.75798   -8006.6815   -7973.6893   -2201.4544    28208.484   0.59704421 
     460    298.71554   -8007.0127   -7973.6905   -2097.6901    28208.484   0.60034051 
     470    293.57038   -8006.4367   -7973.6885   -1853.8963    28208.484   0.60455383 
     480    299.68957   -8007.1205   -7973.6897   -1687.1392    28208.484   0.60898733 
     490    304.28303    -8007.634   -7973.6908   -1569.5251    28208.484   0.61372446 
     500    297.76534   -8006.9049   -7973.6887   -1520.9163    28208.484   0.61909997 
     510     298.0343    -8006.936   -7973.6898   -1578.3555    28208.484     0.624484 
     520    298.51386   -8006.9892   -7973.6895   -1617.2528    28208.484   0.63055005 
     530    299.67651    -8007.119   -7973.6896   -1583.6011    28208.484   0.63765456 
     540    301.93935   -8007.3714   -7973.6896    -1486.536    28208.484   0.64551302 
     550    304.04909   -8007.6074   -7973.6903   -1392.2763    28208.484    0.6536082 
     560    304.32541   -8007.6381   -7973.6901   -1287.1967    28208.484   0.66116979 
     570    303.65289   -8007.5627   -7973.6898   -1155.3607    28208.484   0.66831766 
     580    306.61685   -8007.8931   -7973.6895   -1197.3354    28208.484   0.67540713 
     590    314.13334   -8008.7329   -7973.6909   -1349.2051    28208.484   0.68183493 
     600    314.58012   -8008.7816   -7973.6897   -1383.1623    28208.484   0.68848067 
     610    313.36382   -8008.6461   -7973.6899   -1339.6031    28208.484   0.69624527 
     620     312.9428   -8008.5985   -7973.6893   -1300.0364    28208.484   0.70606469 
     630    317.72028    -8009.132   -7973.6899   -1341.7477    28208.484   0.71807814 
     640    322.57063   -8009.6733   -7973.6901   -1410.5145    28208.484   0.73069429 
     650    323.60168   -8009.7886   -7973.6903   -1540.2113    28208.484   0.74223138 
     660    318.39172   -8009.2068   -7973.6897   -1568.6259    28208.484   0.75263353 
     670    316.27474   -8008.9702   -7973.6892   -1586.0839    28208.484    0.7619451 
     680    320.95534   -8009.4935   -7973.6904   -1558.4885    28208.484   0.77150239 
     690    319.85933   -8009.3708     -7973.69    -1459.468    28208.484   0.78296875 
     700    315.81982   -8008.9199   -7973.6897   -1330.2989    28208.484   0.79605918 
     710    316.18394   -8008.9601   -7973.6893   -1285.6029    28208.484   0.80930055 
     720    321.99795   -8009.6098   -7973.6904   -1374.2337    28208.484   0.82124899 
     730    320.60154   -8009.4538   -7973.6902   -1440.5044    28208.484   0.83277534 
     740    316.58517   -8009.0043   -7973.6888   -1452.0725    28208.484    0.8439361 
     750    321.27163   -8009.5293    -7973.691   -1655.1798    28208.484     0.854338 
     760    314.38368   -8008.7598   -7973.6899   -1838.5562    28208.484   0.86584884 
     770     305.9368   -8007.8166   -7973.6889   -1999.9526    28208.484   0.87941766 
     780    305.71483   -8007.7927   -7973.6897   -2140.7584    28208.484   0.89394007 
     790    305.84031   -8007.8065   -7973.6896   -2209.2571    28208.484   0.90782838 
     800    306.48205   -8007.8784   -7973.6899   -2275.1918    28208.484   0.92026204 
     810    304.33355   -8007.6388   -7973.6899   -2343.4421    28208.484   0.93178116 
     820    297.82924   -8006.9125   -7973.6892   -2314.2529    28208.484    0.9431626 
     830    296.11711   -8006.7216   -7973.6893   -2340.1192    28208.484   0.95457823 
     840    299.50491   -8007.0998   -7973.6896   -2406.4366    28208.484   0.96506277 
     850    304.52466   -8007.6597   -7973.6895   -2460.7845    28208.484   0.97329313 
     860     310.8399   -8008.3649   -7973.6902   -2449.0401    28208.484   0.97916609 
     870    310.67413   -8008.3459   -7973.6897   -2327.6881    28208.484   0.98350092 
     880    309.42712   -8008.2065   -7973.6894   -2225.4629    28208.484   0.98651824 
     890    311.26126   -8008.4116   -7973.6899    -2248.854    28208.484   0.98981853 
     900    313.26109   -8008.6341   -7973.6893   -2271.1415    28208.484     0.995508 
     910    320.18937   -8009.4082   -7973.6906   -2399.0494    28208.484    1.0049166 
     920    319.06768   -8009.2826   -7973.6901    -2517.896    28208.484    1.0179539 
     930    311.48412   -8008.4358   -7973.6893   -2630.8665    28208.484    1.0322955 
     940    307.33364   -8007.9728   -7973.6893   -2692.4224    28208.484    1.0452919 
     950    306.79072   -8007.9125   -7973.6895   -2690.0291    28208.484    1.0559933 
     960    307.40028   -8007.9805   -7973.6895    -2685.778    28208.484    1.0648912 
     970    308.12458   -8008.0613   -7973.6895   -2650.3957    28208.484    1.0729687 
     980    308.40186   -8008.0924   -7973.6897   -2580.8757    28208.484    1.0808973 
     990    307.35297   -8007.9752   -7973.6895    -2481.356    28208.484    1.0887898 
    1000    307.21435     -8007.96   -7973.6898   -2353.6684    28208.484    1.0961224 
    1010    306.76152   -8007.9091   -7973.6894   -2248.7956    28208.484    1.1027335 
    1020    309.26646    -8008.189   -7973.6898   -2286.0041    28208.484    1.1099454 
    1030    310.25342   -8008.2989   -7973.6897   -2305.1256    28208.484    1.1183111 
    1040    307.62812   -8008.0062   -7973.6898    -2294.831    28208.484    1.1271276 
    1050    300.85261   -8007.2498   -7973.6892   -2274.7356    28208.484    1.1353455 
    1060    298.03491   -8006.9356   -7973.6894   -2274.0022    28208.484    1.1412949 
    1070     298.1827   -8006.9525   -7973.6898   -2240.2755    28208.484    1.1449307 
    1080    298.32389   -8006.9674   -7973.6889   -2186.0158    28208.484    1.1478628 
    1090    304.12167   -8007.6156   -7973.6903   -2224.5843    28208.484    1.1507358 
    1100    303.21342   -8007.5135   -7973.6896   -2273.1413    28208.484    1.1542182 
    1110    302.55349   -8007.4391   -7973.6888   -2350.8777    28208.484    1.1583885 
    1120    311.89752   -8008.4827   -7973.6901   -2437.4889    28208.484     1.162828 
    1130    317.78566     -8009.14   -7973.6905   -2446.8483    28208.484     1.167408 
    1140    311.56568   -8008.4454   -7973.6898   -2410.0182    28208.484    1.1717043 
    1150    303.07264   -8007.4971   -7973.6889   -2380.3816    28208.484    1.1751291 
    1160    303.70308   -8007.5677   -7973.6892    -2470.872    28208.484    1.1775178 
    1170    310.51899   -8008.3284   -7973.6895   -2617.7569    28208.484    1.1788381 
    1180    316.91994   -8009.0426   -7973.6898   -2682.3818    28208.484    1.1790698 
    1190    320.34041   -8009.4241   -7973.6896   -2666.8258    28208.484    1.1789053 
    1200    321.06279   -8009.5055   -7973.6905   -2603.0061    28208.484    1.1796194 
    1210    314.26027   -8008.7456   -7973.6894   -2485.4053    28208.484    1.1821764 
    1220    309.32884    -8008.196   -7973.6899    -2464.998    28208.484    1.1865082 
    1230    306.19371   -8007.8458   -7973.6895   -2530.8384    28208.484    1.1911967 
    1240    306.63151   -8007.8948   -7973.6896   -2616.4378    28208.484    1.1944331 
    1250    309.06475   -8008.1663   -7973.6897   -2607.8093    28208.484    1.1957913 
    1260    312.48643   -8008.5482   -7973.6898    -2462.899    28208.484    1.1957707 
    1270    312.94072   -8008.5995   -7973.6905   -2234.5909    28208.484    1.1949586 
    1280    309.44145   -8008.2076   -7973.6889   -2027.1289    28208.484    1.1941489 
    1290    314.87458   -8008.8149   -7973.6902   -1974.2087    28208.484    1.1943163 
    1300    319.36818   -8009.3159   -7973.6899   -1982.4404    28208.484     1.195877 
    1310    321.84143   -8009.5922   -7973.6903   -1943.5386    28208.484    1.1987306 
    1320    321.73486     -8009.58     -7973.69    -1845.706    28208.484    1.2036004 
    1330    320.53672   -8009.4466   -7973.6902   -1700.8294    28208.484    1.2106875 
    1340    314.45984   -8008.7682   -7973.6898   -1509.1942    28208.484    1.2186301 
    1350    308.88407   -8008.1459   -7973.6894   -1443.5528    28208.484    1.2257175 
    1360    308.85021   -8008.1421   -7973.6894   -1546.3935    28208.484    1.2310073 
    1370    314.64585   -8008.7893   -7973.6901   -1721.3694    28208.484     1.234708 
    1380    316.29012   -8008.9734   -7973.6908   -1817.9195    28208.484    1.2377498 
    1390    307.32275   -8007.9718   -7973.6895   -1803.5548    28208.484    1.2409119 
    1400    301.76471   -8007.3515   -7973.6892   -1859.1426    28208.484    1.2443267 
    1410    303.86241   -8007.5861   -7973.6897   -1936.9087    28208.484    1.2481193 
    1420    306.88628   -8007.9231   -7973.6894   -1917.1497    28208.484    1.2526965 
    1430    311.21927   -8008.4068   -7973.6898   -1887.7633    28208.484    1.2583105 
    1440    313.42496   -8008.6528   -7973.6898   -1851.4527    28208.484    1.2642026 
    1450     313.3569   -8008.6451   -7973.6897   -1798.7574    28208.484     1.269636 
    1460    313.21275   -8008.6295   -7973.6901   -1825.1156    28208.484    1.2754342 
    1470    309.64761   -8008.2313   -7973.6896   -1804.0626    28208.484    1.2823313 
    1480    309.40126   -8008.2029   -7973.6887   -1783.0935    28208.484    1.2890305 
    1490    320.42565   -8009.4341   -7973.6901   -1893.3186    28208.484    1.2938055 
    1500    328.10175   -8010.2905   -7973.6903   -1974.4184    28208.484    1.2976917 
    1510    327.81197   -8010.2577   -7973.6898    -1937.058    28208.484    1.3022885 
    1520     324.2243   -8009.8576   -7973.6899   -1828.5619    28208.484    1.3070588 
    1530    318.99753   -8009.2739   -7973.6893   -1744.3097    28208.484    1.3111416 
    1540    315.99968   -8008.9401   -7973.6899   -1679.5222    28208.484    1.3147163 
    1550    311.82694   -8008.4737   -7973.6889   -1676.3191    28208.484     1.318865 
    1560    315.99733   -8008.9396   -7973.6896   -1782.1266    28208.484    1.3245612 
    1570    321.70035   -8009.5765   -7973.6904   -1943.6277    28208.484    1.3315419 
    1580    318.91113   -8009.2648   -7973.6898   -1980.5418    28208.484     1.338424 
    1590    316.40503   -8008.9842   -7973.6888   -1871.1257    28208.484    1.3448929 
    1600    323.69059   -8009.7984   -7973.6903   -1863.2593    28208.484    1.3517889 
    1610    324.55521    -8009.895   -7973.6903   -1926.3043    28208.484    1.3589892 
    1620    317.22283   -8009.0757    -7973.689    -2033.451    28208.484    1.3640281 
    1630    315.56944   -8008.8917   -7973.6895   -2189.5743    28208.484    1.3650114 
    1640          316   -8008.9396   -7973.6894   -2246.5115    28208.484     1.363698 
    1650     317.3618   -8009.0917   -7973.6895   -2167.3771    28208.484    1.3628757 
    1660    317.92845   -8009.1553   -7973.6899   -2101.0814    28208.484    1.3639966 
    1670    314.61233   -8008.7852   -7973.6897   -2010.9785    28208.484    1.3669961 
    1680    312.18324   -8008.5133   -7973.6888   -2055.2147    28208.484     1.371293 
    1690    317.45918   -8009.1028   -7973.6897    -2191.224    28208.484    1.3761955 
    1700    321.08797   -8009.5076   -7973.6898   -2266.1824    28208.484    1.3813209 
    1710    322.36089   -8009.6492   -7973.6893   -2262.0514    28208.484    1.3861808 
    1720    325.18317   -8009.9643   -7973.6896   -2258.3202    28208.484    1.3904451 
    1730    326.15411   -8010.0728   -7973.6898    -2317.316    28208.484     1.394947 
    1740     323.8725   -8009.8181   -7973.6896   -2287.8062    28208.484    1.4007384 
    1750    320.41839   -8009.4325   -7973.6894   -2200.4994    28208.484    1.4075406 
    1760     319.2517   -8009.3028   -7973.6898   -2148.7833    28208.484     1.414045 
    1770    317.70647   -8009.1306     -7973.69    -2060.265    28208.484    1.4199919 
    1780    313.91842   -8008.7076   -7973.6895   -1900.1987    28208.484    1.4259827 
    1790    313.00692   -8008.6058   -7973.6894   -1752.6987    28208.484    1.4322179 
    1800     316.3606   -8008.9805     -7973.69   -1656.4741    28208.484    1.4376798 
    1810    317.06323    -8009.059   -7973.6901   -1611.9912    28208.484    1.4414287 
    1820    314.75826    -8008.801   -7973.6892    -1594.078    28208.484    1.4434919 
    1830    319.39788   -8009.3191   -7973.6898   -1580.2478    28208.484    1.4448335 
    1840    326.94741   -8010.1618   -7973.6903   -1586.0007    28208.484    1.4478206 
    1850     328.2751   -8010.3099   -7973.6903   -1510.9657    28208.484    1.4534245 
    1860    325.54844   -8010.0044    -7973.689   -1434.8489    28208.484    1.4597334 
    1870    330.22766   -8010.5276   -7973.6902   -1485.8246    28208.484    1.4649668 
    1880    331.47708   -8010.6665   -7973.6897   -1548.2944    28208.484    1.4702024 
    1890    330.21474   -8010.5256   -7973.6896   -1516.0861    28208.484    1.4764703 
    1900    331.58833   -8010.6782    -7973.689   -1442.8287    28208.484    1.4834549 
    1910    337.92691   -8011.3872    -7973.691   -1475.0881    28208.484    1.4904186 
    1920     332.3277   -8010.7614   -7973.6897   -1417.3686    28208.484    1.4973123 
    1930    326.40875   -8010.1005   -7973.6891    -1294.946    28208.484    1.5028962 
    1940    327.61985   -8010.2367   -7973.6902   -1344.4187    28208.484    1.5071937 
    1950    326.33555   -8010.0933   -7973.6901   -1454.2005    28208.484    1.5117741 
    1960    320.98412   -8009.4961   -7973.6898    -1539.947    28208.484    1.5179832 
    1970    316.38994    -8008.983   -7973.6892   -1494.5471    28208.484    1.5266599 
    1980    318.66568   -8009.2379   -7973.6903    -1430.619    28208.484     1.537506 
    1990    319.09324   -8009.2848   -7973.6895   -1383.3475    28208.484     1.548395 
    2000    324.20331   -8009.8559   -7973.6905   -1553.3118    28208.484     1.556546 
Loop time of 1684.11 on 16 procs for 2000 steps with 864 atoms

Performance: 0.103 ns/day, 233.904 hours/ns, 1.188 timesteps/s
98.1% CPU use with 16 MPI tasks x 1 OpenMP threads

MPI task timing breakdown:
Section |  min time  |  avg time  |  max time  |%varavg| %total
---------------------------------------------------------------
Pair    | 1047.2     | 1391.1     | 1615.6     | 448.4 | 82.60
Bond    | 0.00020671 | 0.00074348 | 0.0016651  |   0.0 |  0.00
Neigh   | 0.021321   | 0.025574   | 0.029979   |   1.8 |  0.00
Comm    | 62.965     | 287.05     | 627.91     | 973.8 | 17.04
Output  | 0.92742    | 5.7913     | 18.764     | 227.1 |  0.34
Modify  | 0.011989   | 0.014081   | 0.01837    |   1.5 |  0.00
Other   |            | 0.1507     |            |       |  0.01

Nlocal:        54.0000 ave          63 max          48 min
Histogram: 5 0 1 2 2 1 1 2 0 2
Nghost:        409.688 ave         449 max         386 min
Histogram: 3 3 1 3 2 1 1 0 0 2
Neighs:         0.00000 ave           0 max           0 min
Histogram: 16 0 0 0 0 0 0 0 0 0
FullNghs:      1604.62 ave        2106 max        1301 min
Histogram: 5 0 2 2 2 0 2 1 1 1

Total # of neighbors = 25674
Ave neighs/atom = 29.715278
Ave special neighs/atom = 0.0000000
Neighbor list builds = 199
Dangerous builds = 198
Setting up Verlet run ...
  Unit style    : metal
  Current step  : 2000
  Time step     : 0.001
Per MPI rank memory allocation (min/avg/max) = 8.893 | 8.897 | 8.900 Mbytes
Step Temp PotEng TotEng Press Volume c_msd[4] 
    2000        712.5   -8009.8559   -7930.3754    86.818888    28208.484     1.556546 
    2010    672.03823   -8005.3293   -7930.3625    282.64818    28208.669    1.5587045 
    2020    608.50045   -7998.1479   -7930.2688    584.39231    28209.674    1.5634534 
    2030    565.59121   -7993.0902   -7929.9977    915.55068    28212.333    1.5687584 
    2040    538.68325   -7989.5803   -7929.4893     1226.415    28217.574    1.5759932 
    2050     523.9846   -7987.1873    -7928.736    1337.9694    28226.231    1.5873618 
    2060    520.90525   -7985.9133   -7927.8055    1271.2349    28238.636    1.6033217 
    2070     520.3903   -7984.8968   -7926.8465     1009.348    28254.605    1.6220716 
    2080    528.20022    -7984.892   -7925.9705    493.96728    28273.393    1.6410065 
    2090    527.44914   -7984.0051   -7925.1674    60.545562    28293.654    1.6596712 
    2100     517.0722   -7982.0581   -7924.3779   -158.89075     28314.19    1.6787996 
    2110    510.74964   -7980.5104   -7923.5355   -159.22551    28334.385    1.6974802 
    2120    512.25671   -7979.7467   -7922.6036   -21.964099    28354.223    1.7145603 
    2130    514.33352   -7978.9623   -7921.5876    52.463869    28374.046    1.7298251 
    2140    522.71734   -7978.8197   -7920.5098   -72.219069    28394.035    1.7422144 
    2150    542.75185   -7979.9218    -7919.377   -300.75345    28413.861    1.7509852 
    2160    560.03401   -7980.6782   -7918.2055   -402.17595    28432.929    1.7577624 
    2170     570.4149   -7980.6575   -7917.0269   -519.52304    28450.894    1.7646226 
    2180    578.83719   -7980.4144   -7915.8443   -673.52019    28467.427    1.7731053 
    2190    581.43482   -7979.5165   -7914.6566   -671.65688    28482.138    1.7843001 
    2200    581.55206   -7978.3367   -7913.4636   -685.02422    28494.964    1.7978253 
    2210    578.16236   -7976.7566   -7912.2617   -685.47856    28505.871    1.8112974 
    2220    569.04709   -7974.5303   -7911.0523   -608.45833    28514.868    1.8212159 
    2230    574.79699   -7973.9439   -7909.8244   -635.33744    28522.115    1.8254203 
    2240    587.66067   -7974.1186   -7908.5642   -588.04622     28527.59    1.8263684 
    2250       592.78   -7973.4201   -7907.2946   -342.40974    28531.447    1.8288704 
    2260    599.52928     -7972.91   -7906.0316   -72.029538    28534.342    1.8353863 
    2270    608.31548   -7972.6256   -7904.7671    75.682875    28537.023    1.8458206 
    2280    611.68981   -7971.7411   -7903.5061    115.83196    28539.902    1.8600944 
    2290    615.88293   -7970.9564   -7902.2538    222.99209    28543.147    1.8779931 
    2300    626.10647    -7970.844   -7901.0009    423.04894    28547.079    1.8970829 
    2310    632.17333   -7970.2728   -7899.7529    560.89189    28552.239    1.9144604 
    2320    631.65625   -7968.9836   -7898.5214    699.97342    28559.057    1.9282637 
    2330    640.33275   -7968.7309   -7897.3008    593.45871     28567.86    1.9373383 
    2340    660.64237   -7969.7682   -7896.0725    235.58789    28578.367    1.9433419 
    2350    678.86627   -7970.5816   -7894.8531   -85.693884    28589.621    1.9495824 
    2360    679.95648   -7969.5304   -7893.6802   -273.80203    28600.713    1.9583195 
    2370    679.46013   -7968.3581   -7892.5633   -296.17435     28611.12    1.9707114 
    2380    672.15565   -7966.4653   -7891.4854   -161.53264    28620.762    1.9861906 
    2390    659.43441   -7963.9961   -7890.4352     87.20747    28630.021    2.0035442 
    2400    658.03246   -7962.7889   -7889.3844    293.40229     28639.59    2.0226402 
    2410    669.86886   -7963.0367   -7888.3118    339.99809    28650.044    2.0424939 
    2420     687.8027    -7963.949   -7887.2236    215.38232    28661.518    2.0601591 
    2430    704.11502   -7964.6954   -7886.1503    150.11198     28673.72     2.072943 
    2440    713.43769   -7964.7111   -7885.1261    224.72176    28686.481    2.0827982 
    2450    715.25097   -7963.9554   -7884.1681    307.90434    28699.994    2.0949459 
    2460    714.17985   -7962.9468    -7883.279    348.12505    28714.508    2.1143718 
    2470    700.50498   -7960.5884    -7882.446    324.93515     28730.14    2.1417441 
    2480    702.29891   -7959.9898   -7881.6473    166.02844    28746.813    2.1713171 
    2490    707.02836    -7959.726   -7880.8559    114.38718    28764.143    2.1986583 
    2500    714.51996   -7959.7849   -7880.0791    5.6199449     28781.96    2.2219302 
    2510    732.57053    -7961.043   -7879.3236   -517.51792    28799.828    2.2415307 
    2520    731.10754   -7960.1707   -7878.6145   -754.54313    28816.421    2.2598302 
    2530    727.78778   -7959.1595   -7877.9736   -805.59678    28830.983     2.279602 
    2540    732.18044   -7959.0608    -7877.385   -815.80435     28843.33    2.3027905 
    2550    742.49611   -7959.6799   -7876.8533   -758.39517    28853.412    2.3280497 
    2560     730.8165   -7957.9126   -7876.3889    -444.5283    28861.442    2.3521066 
    2570    717.02488   -7955.9654   -7875.9802   -189.15924    28868.239    2.3716983 
    2580     724.3916   -7956.4018   -7875.5948   -258.99005    28874.452    2.3872132 
    2590    718.21202    -7955.342   -7875.2243   -281.79809    28879.981    2.4023722 
    2600    712.63389   -7954.3652   -7874.8698   -230.83661     28884.76    2.4187384 
    2610    728.43842   -7955.7803   -7874.5219   -317.74407    28888.871    2.4366888 
    2620    738.75723   -7956.6086   -7874.1991     -496.882    28892.064    2.4565919 
    2630     738.6539   -7956.3323   -7873.9344   -569.28116    28893.869    2.4781712 
    2640    726.40033   -7954.7593   -7873.7283   -579.91322    28894.026    2.4994703 
    2650     718.7723    -7953.741   -7873.5609    -538.6006    28892.494    2.5166509 
    2660    709.22341    -7952.525   -7873.4101   -295.38527    28889.414    2.5294744 
    2670    696.27033    -7950.921    -7873.251     130.4675    28885.487    2.5416067 
    2680    711.34211     -7952.42   -7873.0687    217.32704    28881.805    2.5549538 
    2690    726.44548   -7953.9165   -7872.8804    73.705404    28878.664    2.5702441 
    2700     724.9249   -7953.5799   -7872.7135   -121.61198    28875.706    2.5857322 
    2710    741.16212   -7955.2641   -7872.5864   -495.53039    28872.298    2.5984975 
    2720     747.0996   -7955.8541    -7872.514   -677.33452    28867.442    2.6102875 
    2730    751.99341   -7956.4096   -7872.5236   -699.74434    28860.562    2.6228109 
    2740    752.06701   -7956.5207   -7872.6265   -544.67223    28851.578    2.6367969 
    2750    737.77356   -7955.1142   -7872.8144   -195.95719    28840.916    2.6528796 
    2760    723.04609   -7953.7111   -7873.0542    211.81754     28829.56    2.6697233 
    2770    721.98525   -7953.8553   -7873.3167    439.34448    28818.626    2.6859863 
    2780    725.50144   -7954.5337   -7873.6029    575.92759    28808.825    2.7045873 
    2790    711.54377   -7953.2848    -7873.911    523.66081    28800.526    2.7274466 
    2800    705.29344   -7952.8944   -7874.2179    260.00396      28793.6    2.7512402 
    2810    709.32205   -7953.6419    -7874.516   -100.64189    28787.312     2.773534 
    2820    700.16246   -7952.9042   -7874.8001   -269.28362    28780.702    2.7936429 
    2830    688.38316   -7951.8439   -7875.0537   -316.89802    28773.236     2.809536 
    2840    686.73962   -7951.8605   -7875.2536   -351.70896    28764.736    2.8193469 
    2850    706.61264   -7954.2318   -7875.4081   -505.47149    28755.051    2.8252708 
    2860    721.94731   -7956.0895   -7875.5551   -505.63312    28743.792    2.8324099 
    2870    714.83873   -7955.4599   -7875.7186   -346.62427    28730.926    2.8431955 
    2880    707.10469   -7954.7635   -7875.8849   -274.97469    28716.813    2.8570499 
    2890    709.85317   -7955.2303   -7876.0451   -375.96997      28701.6    2.8720889 
    2900     698.3265   -7954.0886   -7876.1892   -380.48917    28685.064    2.8875378 
    2910    686.13627   -7952.8413   -7876.3017   -278.55178    28667.178    2.9010751 
    2920    684.38059   -7952.7045   -7876.3608   -143.14261    28648.198    2.9103521 
    2930    687.84027   -7953.0912   -7876.3616    117.78633    28628.518    2.9171813 
    2940    685.58352   -7952.7824   -7876.3046    450.66908    28608.867    2.9254101 
    2950    683.64697   -7952.4499   -7876.1881    690.27942    28590.163    2.9390966 
    2960    686.13643   -7952.5455   -7876.0059    761.76808    28573.107    2.9597265 
    2970    694.32855   -7953.2186   -7875.7652    882.01731     28558.01    2.9827009 
    2980    702.73004   -7953.8698   -7875.4792    909.13866    28545.199    3.0012332 
    2990    719.33173   -7955.4132   -7875.1706    767.50139    28534.781    3.0137696 
    3000    736.02609   -7956.9777   -7874.8729    528.95303    28526.379    3.0243531 
    3010    738.44768   -7957.0004   -7874.6255    527.53841    28519.421    3.0355343 
    3020    718.35757   -7954.5658   -7874.4319    860.11729    28513.964    3.0485254 
    3030    708.59316   -7953.3064   -7874.2617    1027.6831    28510.851    3.0631487 
    3040    704.52584   -7952.6738   -7874.0829    1034.6886    28510.616    3.0786528 
    3050    699.51324   -7951.9174   -7873.8856    1013.4383    28513.378    3.0930285 
    3060    700.28968   -7951.7761   -7873.6577    879.28331    28519.115    3.1042143 
    3070     707.9366   -7952.3752   -7873.4038    598.88418    28527.473    3.1131665 
    3080    706.61448   -7951.9568   -7873.1329    350.15454    28537.764    3.1231223 
    3090    715.36715   -7952.6535   -7872.8533    25.512016     28549.26    3.1363283 
    3100    721.21255   -7953.0266   -7872.5743    115.83453    28561.177    3.1549384 
    3110    722.05729   -7952.8583   -7872.3118    548.94558    28573.775    3.1784726 
    3120    742.83219   -7954.9456   -7872.0815    799.02242    28588.188    3.2052908 
    3130    750.90838   -7955.6764   -7871.9114    980.32324    28605.242    3.2351412 
    3140    744.39872   -7954.8679   -7871.8292    970.51831    28625.474    3.2679446 
    3150    738.62157   -7954.2163   -7871.8219    733.96386    28648.924     3.302845 
    3160    738.47283   -7954.2546   -7871.8768    347.65782    28674.999    3.3380256 
    3170    729.44408   -7953.3547   -7871.9842    27.775517    28702.676    3.3728628 
    3180    711.95733   -7951.5418   -7872.1219   -243.02079     28731.04      3.40707 
    3190    703.77038   -7950.7599   -7872.2533   -494.26182    28759.313    3.4406716 
    3200    710.41475   -7951.6152   -7872.3673   -676.64353    28786.743    3.4730566 
    3210    718.22285   -7952.5925   -7872.4736   -608.67882    28812.832    3.5037225 
    3220     726.5101   -7953.6408   -7872.5975   -499.98415    28837.672    3.5362834 
    3230    720.58524   -7953.1289   -7872.7465   -526.38968    28861.513    3.5747998 
    3240     708.0301   -7951.8937   -7872.9119   -746.36812    28884.221    3.6165282 
    3250    686.82618   -7949.6729   -7873.0564    -920.5304    28905.192    3.6555507 
    3260    682.33869   -7949.2683   -7873.1524   -1177.3098    28923.809    3.6890903 
    3270    679.41897   -7948.9758   -7873.1856   -1310.9136    28939.323    3.7174813 
    3280    678.64519   -7948.8562   -7873.1523   -1233.8942    28951.306    3.7408953 
    3290    694.01736   -7950.4781   -7873.0594   -1156.6421    28959.843    3.7606699 
    3300    698.60156    -7950.849   -7872.9189   -920.03812    28965.157    3.7792797 
    3310    707.94838   -7951.7248   -7872.7521   -793.75623    28967.807    3.7957964 
    3320    709.88498    -7951.758   -7872.5693   -702.79372    28968.142    3.8082026 
    3330    707.99883    -7951.358   -7872.3797   -558.70521    28966.414     3.817873 
    3340    716.65831   -7952.1271   -7872.1828   -501.14732    28962.973    3.8279379 
    3350    725.01258   -7952.8681   -7871.9919   -435.40345    28957.976    3.8397813 
    3360    718.57378   -7951.9768   -7871.8188   -305.46948    28951.608     3.853972 
    3370     715.8703   -7951.5168   -7871.6604   -229.51648    28944.195    3.8698952 
    3380    720.68057   -7951.9029   -7871.5099   -319.71107    28935.904    3.8849152 
    3390    714.43009   -7951.0617    -7871.366   -234.77549    28926.573    3.8982019 
    3400    718.52909   -7951.3842   -7871.2312   -127.32605    28916.381    3.9094093 
    3410    727.18341   -7952.2258   -7871.1074   -44.335307    28905.622    3.9165999 
    3420    730.67315   -7952.5198   -7871.0121    104.19411    28894.565    3.9191182 
    3430    731.86372   -7952.5978   -7870.9573    229.76643     28883.61    3.9198447 
    3440    730.28093   -7952.4056   -7870.9416    352.32852    28873.142    3.9224392 
    3450    737.00836   -7953.1883   -7870.9739    331.58089    28863.494    3.9294084 
    3460    731.68617   -7952.6823   -7871.0616    358.73822    28854.669    3.9425722 
    3470    715.61614   -7951.0147   -7871.1867    448.96376    28846.775    3.9587509 
    3480    710.97252   -7950.6356   -7871.3255    324.62799    28840.011    3.9712895 
    3490    703.64099   -7949.9515   -7871.4593    290.98852    28834.126    3.9779926 
    3500    700.38237   -7949.7047    -7871.576    230.12703    28829.005    3.9808322 
    3510    712.29138    -7951.136   -7871.6788    12.445433    28824.428    3.9829766 
    3520    714.40662   -7951.4752   -7871.7821   -46.757851    28819.838    3.9861493 
    3530    711.75104   -7951.2861   -7871.8892    155.29343    28815.117    3.9907156 
    3540    720.88883   -7952.4155   -7871.9993    286.13235    28810.751    3.9969524 
    3550    733.25859   -7953.9265   -7872.1304    372.45351    28807.141    4.0054922 
    3560    741.72788   -7955.0585   -7872.3177    410.79091    28804.566    4.0171455 
    3570    735.48813   -7954.6192   -7872.5744    474.26049    28803.173    4.0319608 
    3580    726.73035   -7953.9605   -7872.8926    648.61469    28803.175    4.0478708 
    3590    712.19443   -7952.6862   -7873.2398    881.67937    28805.127    4.0641021 
    3600    709.80312   -7952.7695   -7873.5899    915.43916     28809.67    4.0810033 
    3610    709.81586   -7953.1141   -7873.9331    836.23103    28816.957     4.098971 
    3620    700.81764    -7952.441   -7874.2638    649.29867    28826.805    4.1176305 
    3630    701.68801   -7952.8444     -7874.57    378.14005    28838.713     4.135348 
    3640    710.18162   -7954.0791   -7874.8573    4.6775482    28851.887    4.1516362 
    3650    706.73603   -7953.9713   -7875.1339   -189.32764    28865.331    4.1665784 
    3660    698.23272   -7953.2837   -7875.3948   -160.43081    28878.472    4.1792239 
    3670    697.00079   -7953.3757   -7875.6243   -49.527051    28891.364    4.1912755 
    3680    699.29337   -7953.8299   -7875.8227    90.954856    28904.322    4.2052877 
    3690    690.23491   -7952.9835   -7875.9867    226.93968     28917.74    4.2210995 
    3700    687.55192   -7952.8047   -7876.1073    154.30461    28931.967    4.2369405 
    3710    690.20593   -7953.1718   -7876.1783   -19.764663    28946.821    4.2518501 
    3720     696.3754   -7953.8864   -7876.2046   -205.06375    28961.811    4.2647543 
    3730    708.71914    -7955.264   -7876.2053   -323.24923    28976.413    4.2737708 
    3740    709.70877   -7955.3647   -7876.1956   -281.24084    28990.292    4.2768663 
    3750    713.69538   -7955.7987   -7876.1849   -103.76979    29003.553    4.2735732 
    3760    721.66545   -7956.6825   -7876.1797     163.3486    29016.696    4.2675592 
    3770    719.52448   -7956.4585   -7876.1944    624.34857    29030.554    4.2640896 
    3780    708.88733   -7955.3044   -7876.2269    1002.9895    29046.437    4.2667085 
    3790    708.64869   -7955.3135   -7876.2627    1063.0396    29065.441    4.2746677 
    3800    705.52116   -7954.9899    -7876.288    982.26103    29087.839     4.284561 
    3810    705.78575   -7955.0314   -7876.2999    743.07664    29113.412     4.292365 
    3820      710.806   -7955.5817   -7876.2902    381.25407    29141.508    4.2962388 
    3830    719.68868   -7956.5518   -7876.2695   -11.110006    29171.088     4.297574 
    3840     722.6726   -7956.8715   -7876.2562   -304.02807    29200.982    4.2990066 
    3850    726.01434   -7957.2541   -7876.2661   -464.00336    29230.303      4.30144 
    3860    728.34532   -7957.5593   -7876.3113   -632.21533    29258.502     4.303556 
    3870    718.43328   -7956.5354   -7876.3931   -752.69425    29285.057    4.3033448 
    3880    711.39693   -7955.8567   -7876.4993   -823.76193    29309.575    4.2995808 
    3890    714.00022   -7956.2665   -7876.6187   -855.52507    29331.797    4.2947455 
    3900    705.89518   -7955.4916   -7876.7479   -605.10243    29351.672    4.2923396 
    3910    699.88413   -7954.9521    -7876.879   -380.21187    29369.835    4.2915158 
    3920    698.66303   -7954.9338   -7876.9969   -350.83452    29386.912    4.2906075 
    3930    687.92704    -7953.829   -7877.0897    -427.0894    29402.992    4.2868072 
    3940    684.28557   -7953.4731     -7877.14    -570.6888    29417.836    4.2765199 
    3950    693.39814   -7954.4877   -7877.1381   -791.66364    29430.988    4.2589786 
    3960    695.79916   -7954.6994    -7877.082   -936.26845    29441.789    4.2374594 
    3970    698.05849   -7954.8401   -7876.9707   -977.91754    29449.779    4.2175161 
    3980    693.37952   -7954.1463   -7876.7988   -936.88992    29454.824    4.2026868 
    3990    684.44907   -7952.9099   -7876.5586    -952.2601    29457.001    4.1912394 
    4000    703.35177   -7954.7046   -7876.2447   -1127.9579    29456.242    4.1787034 
    4010    725.52058   -7956.8088   -7875.8759   -1274.1519    29452.058    4.1645935 
    4020    725.62114   -7956.4399   -7875.4958   -1358.1223    29444.014    4.1489284 
    4030    728.32096   -7956.3721   -7875.1268   -1636.3549    29431.766    4.1321022 
    4040    731.37045   -7956.3609   -7874.7754   -1863.8379    29414.561    4.1172485 
    4050    735.97873    -7956.557   -7874.4575   -1910.6092    29391.752    4.1065006 
    4060    721.46709   -7954.6563   -7874.1756   -1543.9734     29363.32    4.1003664 
    4070    706.13271    -7952.675   -7873.9048   -1112.2298    29330.318    4.0966988 
    4080     700.9303   -7951.7971   -7873.6073   -908.40194    29294.023    4.0912162 
    4090    701.64724   -7951.5389   -7873.2691   -921.49677    29255.108    4.0812132 
    4100    699.63636   -7950.9389   -7872.8934   -1100.0071    29213.586    4.0670085 
    4110    701.63737   -7950.7523   -7872.4836   -1235.3164    29169.041    4.0489847 
    4120    703.21796    -7950.479    -7872.034   -1079.0719    29121.221    4.0300696 
    4130    710.43193    -7950.805   -7871.5552   -678.01652    29070.654    4.0136389 
    4140    724.67538   -7951.8936    -7871.055   -242.36506     29018.54    4.0000278 
    4150    739.54834   -7953.0715   -7870.5738    47.232877    28966.183    3.9887101 
    4160    747.65183   -7953.5573   -7870.1556    307.08017    28914.528    3.9800831 
    4170    741.78848   -7952.5681   -7869.8205    769.71655    28864.456    3.9746325 
    4180    725.63232   -7950.4975   -7869.5521    1205.9137    28817.224    3.9720732 
    4190    721.93894   -7949.8551   -7869.3218    1497.1809    28774.058    3.9710177 
    4200    723.98814   -7949.8781   -7869.1162     1761.005    28735.803    3.9725302 
    4210    727.37637   -7950.0833   -7868.9434    1967.0885    28703.129    3.9780297 
    4220    725.67891   -7949.7612   -7868.8106    2001.4147    28676.513    3.9883939 
    4230    728.58233   -7949.9946   -7868.7201    1757.4684    28655.931     4.002931 
    4240    741.74968   -7951.4259   -7868.6826    1164.1885    28640.546    4.0192226 
    4250    736.13193   -7950.8281   -7868.7115    895.51388    28628.777    4.0359732 
    4260    723.50221   -7949.5073   -7868.7995    952.57863    28619.793    4.0520651 
    4270    722.47237   -7949.5109    -7868.918    892.85066    28613.616    4.0674053 
    4280    733.78978   -7950.9342   -7869.0789    784.93826    28610.059    4.0837911 
    4290    715.24381   -7949.0655    -7869.279     927.6735    28608.867    4.1038055 
    4300    719.20097     -7949.74   -7869.5121    733.61147    28610.246    4.1267879 
    4310    732.39016   -7951.4888   -7869.7895    332.75496    28613.666     4.151474 
    4320    721.99004   -7950.6706   -7870.1315    310.12523    28618.143    4.1742945 
    4330    713.91591   -7950.1715   -7870.5331    434.00158    28623.529    4.1900823 
    4340    706.32917   -7949.7755   -7870.9834     506.2258    28630.118    4.2003688 
    4350    695.57556   -7949.0596   -7871.4671    353.85378    28638.055    4.2095343 
    4360    698.02497   -7949.8433   -7871.9776    39.336219    28646.932    4.2190303 
    4370    700.38866   -7950.6551   -7872.5256    -189.0013    28655.904    4.2309761 
    4380    697.69233   -7950.9418   -7873.1131   -218.64792    28664.337    4.2464744 
    4390    709.39792   -7952.8792   -7873.7448   -302.99235    28672.067    4.2625128 
    4400    718.07621   -7954.5423   -7874.4398   -297.04178    28678.908    4.2760381 
    4410    708.08818   -7954.1686   -7875.1803   -80.730002    28684.917    4.2860484 
    4420    695.60984   -7953.5106   -7875.9142    22.548681    28690.622    4.2929392 
    4430     685.6299   -7953.0615   -7876.5785    84.505601    28696.377    4.2973006 
    4440    685.87043   -7953.6472   -7877.1373    82.796195    28702.337    4.2996126 
    4450    688.87457   -7954.4301   -7877.5852     131.8007    28708.531    4.3017156 
    4460    686.09243   -7954.4602   -7877.9255    266.29115    28715.121    4.3046222 
    4470     681.7348   -7954.2095   -7878.1609    235.84209    28722.412    4.3095544 
    4480    686.07385   -7954.8344   -7878.3018    69.445156     28730.33    4.3177338 
    4490    691.47622   -7955.5014   -7878.3662   -116.77504    28738.418    4.3301912 
    4500    695.68895   -7955.9799   -7878.3748   -239.01133    28746.166    4.3465643 
    4510    698.70653   -7956.2878    -7878.346   -281.52475    28753.221    4.3639101 
    4520    686.80442   -7954.8996   -7878.2855   -155.48124     28759.49    4.3785532 
    4530    670.42784   -7952.9683    -7878.181    62.588209    28765.315    4.3874365 
    4540    667.57193   -7952.4805   -7878.0119    220.66003    28771.306    4.3906416 
    4550    677.57582   -7953.3625   -7877.7779    292.38997    28777.908    4.3914079 
    4560     688.7355   -7954.3304   -7877.5009    426.88366    28785.368    4.3923848 
    4570    694.83179   -7954.7146   -7877.2051    412.50295    28794.015    4.3940931 
    4580    697.45591   -7954.7063   -7876.9041     234.0148    28803.823    4.3976098 
    4590    697.55494   -7954.4129   -7876.5996   -30.327804    28814.284    4.4045985 
    4600    708.71647   -7955.3511   -7876.2927   -378.61127    28824.626    4.4140144 
    4610    727.36393   -7957.1392   -7876.0007    -634.5062    28833.877     4.424788 
    4620    724.83731   -7956.6101   -7875.7534   -512.64689    28841.386    4.4363969 
    4630    710.23923   -7954.7771   -7875.5488   -468.99126    28847.369    4.4467137 
    4640    706.96758   -7954.2204   -7875.3571   -547.43435    28851.961    4.4542314 
    4650    707.47364   -7954.0817   -7875.1619   -682.28568    28854.942    4.4596456 
    4660    704.57311   -7953.5619   -7874.9657   -811.80119    28855.926    4.4634147 
    4670    696.86297   -7952.4971    -7874.761   -889.42877    28854.546    4.4661166 
    4680    697.74487    -7952.371   -7874.5365   -894.65015     28850.58    4.4699943 
    4690    705.11911   -7952.9458   -7874.2887   -980.63168    28843.969    4.4754589 
    4700     706.0482   -7952.7905   -7874.0298   -1098.8296    28834.474    4.4802458 
    4710    698.04725   -7951.6327   -7873.7644   -1023.5572    28821.794    4.4829736 
    4720    684.03448   -7949.7767   -7873.4716   -724.81519    28806.162     4.485151 
    4730    684.69859   -7949.5062    -7873.127   -410.50712     28788.41    4.4883873 
    4740    701.46098   -7950.9734   -7872.7243   -310.96678    28769.385    4.4930451 
    4750    721.34616   -7952.7663   -7872.2991   -400.77571    28749.403    4.5001547 
    4760    728.50607   -7953.1653   -7871.8994    -499.8773     28728.25    4.5102484 
    4770    731.66286   -7953.1704   -7871.5524   -404.27773    28705.683    4.5230425 
    4780     735.4526   -7953.3058    -7871.265   -65.719695    28681.993    4.5386717 
    4790    734.49795   -7952.9729   -7871.0385    302.21729    28658.101    4.5547902 
    4800    727.79658   -7952.0563   -7870.8695    426.15777    28635.011    4.5694768 
    4810    717.74267   -7950.8049   -7870.7397    401.96638    28613.128    4.5831956 
    4820     723.3833   -7951.3289   -7870.6344    406.51438    28592.414    4.5955682 
    4830    733.80659   -7952.4125   -7870.5552    454.00026    28572.886    4.6091634 
    4840    742.69866   -7953.3774   -7870.5282    421.90551    28554.648    4.6264904 
    4850    737.87748   -7952.8758   -7870.5644    441.17382    28537.645    4.6476766 
    4860    725.90255   -7951.6296   -7870.6541    549.35658    28521.926    4.6707922 
    4870    709.68383   -7949.9319   -7870.7656    787.28355    28507.821    4.6936259 
    4880     694.0012   -7948.2825   -7870.8657    936.53466    28495.952     4.715129 
    4890    688.29235   -7947.7073   -7870.9273    984.17926    28486.746    4.7353204 
    4900    696.20452   -7948.6069   -7870.9442    811.40787    28480.279    4.7540606 
    4910    705.70754   -7949.6488   -7870.9261     692.3431    28476.143    4.7723568 
    4920    710.61602   -7950.1589   -7870.8886    799.01209    28474.043    4.7915866 
    4930    711.33523   -7950.1928   -7870.8423    1117.7231    28474.296    4.8110753 
    4940    723.12302   -7951.4598   -7870.7943     1359.177    28477.751    4.8292472 
    4950    738.03141   -7953.1036   -7870.7751    1445.2068    28485.064    4.8457325 
    4960    727.62544   -7951.9795   -7870.8118    1646.5988    28496.579    4.8621811 
    4970    718.55947   -7951.0626   -7870.9062    1757.1467    28512.819    4.8804539 
    4980    715.55592   -7950.8666   -7871.0453    1772.4146    28534.129     4.901793 
    4990    726.36007   -7952.2657   -7871.2391     1595.425    28560.561     4.926723 
    5000    747.21863   -7954.8811   -7871.5277    1384.9897    28591.699    4.9551761 
Loop time of 2541.07 on 16 procs for 3000 steps with 864 atoms

Performance: 0.102 ns/day, 235.284 hours/ns, 1.181 timesteps/s
98.1% CPU use with 16 MPI tasks x 1 OpenMP threads

MPI task timing breakdown:
Section |  min time  |  avg time  |  max time  |%varavg| %total
---------------------------------------------------------------
Pair    | 1801.2     | 2202.3     | 2426.1     | 358.1 | 86.67
Bond    | 0.00037575 | 0.0011088  | 0.0024974  |   1.6 |  0.00
Neigh   | 0.033243   | 0.036549   | 0.040236   |   1.2 |  0.00
Comm    | 51.085     | 280.27     | 702        | 957.6 | 11.03
Output  | 0.29206    | 0.30827    | 0.54723    |  11.1 |  0.01
Modify  | 21.608     | 58.142     | 109.5      | 380.1 |  2.29
Other   |            | 0.0209     |            |       |  0.00

Nlocal:        54.0000 ave          60 max          44 min
Histogram: 1 0 0 1 3 2 3 1 3 2
Nghost:        407.312 ave         418 max         397 min
Histogram: 3 0 2 3 0 1 3 1 0 3
Neighs:         0.00000 ave           0 max           0 min
Histogram: 16 0 0 0 0 0 0 0 0 0
FullNghs:      1584.50 ave        1847 max        1240 min
Histogram: 1 0 2 2 1 2 2 4 0 2

Total # of neighbors = 25352
Ave neighs/atom = 29.342593
Ave special neighs/atom = 0.0000000
Neighbor list builds = 300
Dangerous builds = 300
Setting up Verlet run ...
  Unit style    : metal
  Current step  : 5000
  Time step     : 0.001
Per MPI rank memory allocation (min/avg/max) = 8.897 | 8.899 | 8.901 Mbytes
Step Temp PotEng TotEng Press Volume c_msd[4] 
    5000    747.21863   -7954.8811   -7871.5277    1384.9897    28591.699    4.9551761 
    5010    771.71954   -7957.6729   -7871.5864    1247.1337    28593.636    4.9757211 
    5020    759.53711   -7956.5065    -7871.779    1356.6708    28599.254    4.9968842 
    5030    736.77833   -7954.2704   -7872.0817    1292.2432    28608.748    5.0172674 
    5040    735.12109   -7954.4578    -7872.454    846.61843    28621.892    5.0359616 
    5050    733.65566   -7954.7185   -7872.8781    529.45864    28637.546    5.0516051 
    5060    736.74828   -7955.5435   -7873.3581    362.74177      28654.8    5.0657734 
    5070    732.48995   -7955.6013   -7873.8909     222.8919    28673.145    5.0835728 
    5080    713.87217   -7954.0763   -7874.4428    140.56576    28692.201    5.1059636 
    5090    704.11275   -7953.5104   -7874.9656     19.60908    28711.707    5.1287556 
    5100    699.91884   -7953.5106   -7875.4336   -122.75742    28731.306    5.1489919 
    5110    686.54802   -7952.4128   -7875.8273   -159.22864    28750.632    5.1671554 
    5120    678.54756   -7951.8189   -7876.1259   -228.76012    28769.543    5.1827277 
    5130    685.38301   -7952.7856   -7876.3301   -388.08101    28787.828      5.19627 
    5140    691.06981   -7953.5439   -7876.4541   -588.63475    28805.032     5.209537 
    5150    700.69208   -7954.6882   -7876.5249   -650.79363    28820.603    5.2220267 
    5160    700.30379   -7954.6818   -7876.5619   -423.23469    28834.412    5.2335567 
    5170    694.87735    -7954.085   -7876.5704   -232.27624    28847.022    5.2436151 
    5180    696.39772   -7954.2318   -7876.5476   -140.91719    28858.972    5.2516211 
    5190    691.07326   -7953.5828   -7876.4926    68.628653    28870.585    5.2598376 
    5200    682.68278   -7952.5568   -7876.4025    419.75671    28882.488    5.2691846 
    5210    683.87696   -7952.5571   -7876.2696    726.55336    28895.688     5.278502 
    5220     697.6423   -7953.9207   -7876.0977    740.69612    28911.029    5.2878603 
    5230    707.01985   -7954.7776   -7875.9085    537.67149    28928.568    5.3010123 
    5240     702.0239   -7954.0322   -7875.7204    350.22907    28947.795    5.3206093 
    5250    700.63543   -7953.6873   -7875.5303    84.295011    28968.131     5.340958 
    5260    701.41465   -7953.5762   -7875.3324   -47.716963    28988.862    5.3544356 
    5270     700.3988   -7953.2637   -7875.1331    28.046236    29009.622     5.358983 
    5280    699.83583   -7953.0028   -7874.9351    231.52171    29030.614    5.3574845 
    5290     699.9995   -7952.8213   -7874.7353    377.44771    29052.395    5.3553816 
    5300    699.16552   -7952.5246   -7874.5316    416.77269    29075.399    5.3587165 
    5310    708.90794   -7953.4058    -7874.326    338.56419    29099.763    5.3678596 
    5320    722.52979   -7954.7328   -7874.1335    42.955147    29125.241    5.3793222 
    5330    712.72095   -7953.4737   -7873.9686   -193.54045    29151.039    5.3899457 
    5340    708.28503   -7952.8344   -7873.8242   -563.58578    29176.373     5.396749 
    5350    712.04352   -7953.1129   -7873.6834   -1019.7528    29200.137     5.400206 
    5360    704.13164   -7952.0926   -7873.5457   -1207.5538    29221.055    5.4033561 
    5370    702.39831   -7951.7576    -7873.404   -1378.5751    29238.457     5.407789 
    5380    710.67779   -7952.5349   -7873.2577   -1481.8424    29251.809    5.4133978 
    5390    711.90706   -7952.5322   -7873.1179    -1412.295    29260.804     5.420011 
    5400    703.35771   -7951.4503   -7872.9897   -1319.6252    29265.581    5.4274034 
    5410    698.81429    -7950.811   -7872.8572   -1348.8307    29266.345    5.4329957 
    5420    703.66851   -7951.2094   -7872.7142   -1266.9141    29263.058    5.4353944 
    5430    709.21632   -7951.6751    -7872.561    -1075.661    29255.955    5.4353844 
    5440     725.4809   -7953.3432   -7872.4147   -922.48093    29245.553    5.4348143 
    5450    730.63781    -7953.804   -7872.3002    -578.5302    29232.364    5.4366633 
    5460    712.88506   -7951.7467   -7872.2233    -125.3431    29217.384    5.4419897 
    5470    703.46632   -7950.6244   -7872.1517    160.43508    29201.903     5.448842 
    5480    712.19634   -7951.5149   -7872.0684     162.1729     29186.74    5.4544664 
    5490    713.84044   -7951.6101   -7871.9801    209.42329     29172.02    5.4581206 
    5500    717.76291    -7951.967   -7871.8994    165.87199    29157.819    5.4603472 
    5510    718.35841   -7951.9612   -7871.8272    308.25767    29144.112    5.4613724 
    5520    722.13174   -7952.3244   -7871.7695     398.9643    29131.251    5.4603511 
    5530    727.89059   -7952.9353    -7871.738    440.98935    29119.522     5.458155 
    5540    725.86408    -7952.712   -7871.7408    438.22431    29109.051     5.456393 
    5550    726.35951   -7952.8058   -7871.7793    295.74905    29099.819    5.4570402 
    5560    730.17891   -7953.3036   -7871.8511    28.739146    29091.405    5.4630992 
    5570    726.49521   -7953.0053   -7871.9637   -83.483081    29083.084    5.4769384 
    5580     711.7559    -7951.501   -7872.1036    14.873886    29074.532    5.4999447 
    5590    718.68082   -7952.4346   -7872.2647   -61.106286    29065.933    5.5289331 
    5600    720.37821   -7952.8139   -7872.4546   -218.20166     29057.09    5.5570367 
    5610    714.38253   -7952.3762   -7872.6857   -228.97174    29047.594     5.579834 
    5620    711.31422   -7952.3018   -7872.9536   -186.33175    29037.404    5.5966502 
    5630    718.61998   -7953.4374   -7873.2743   -274.34423    29026.584    5.6077435 
    5640    726.24673    -7954.699   -7873.6851   -280.69554    29014.945    5.6173231 
    5650    731.56962   -7955.8433   -7874.2356   -240.48766     29002.44    5.6293186 
    5660    728.63533   -7956.2421   -7874.9617   -149.99834    28989.193    5.6437006 
    5670     723.5879   -7956.5841   -7875.8667   -77.065337    28975.444    5.6586444 
    5680    712.25066   -7956.3483   -7876.8956    22.417312    28961.423    5.6747681 
    5690    689.71004   -7954.8517   -7877.9135    105.36658    28947.409    5.6947263 
    5700    676.92509   -7954.3026   -7878.7906    148.11081    28933.641    5.7180233 
    5710    666.60499    -7953.819   -7879.4582     174.2589    28920.268     5.741112 
    5720    671.51466   -7954.8309   -7879.9224    39.888556    28907.323    5.7611133 
    5730    685.10595   -7956.6516    -7880.227   -170.54774    28894.439    5.7777239 
    5740    702.23805   -7958.7701   -7880.4344   -323.24743    28881.025    5.7915696 
    5750    698.90991   -7958.5477   -7880.5833   -285.24797     28866.66     5.806114 
    5760    687.71302   -7957.3962   -7880.6808   -168.59471    28851.432    5.8244141 
    5770    682.82534   -7956.8895   -7880.7193   -219.17326    28835.586    5.8446449 
    5780    670.04788   -7955.4324   -7880.6875     -100.143    28819.079     5.863713 
    5790    658.10523   -7953.9788   -7880.5662    81.089812    28802.232    5.8823934 
    5800    665.08256   -7954.5353   -7880.3443     84.63811    28785.526    5.9027186 
    5810    668.53952   -7954.6042   -7880.0276    146.38302    28769.043    5.9251885 
    5820    671.07041   -7954.4907   -7879.6318     188.0031    28752.929    5.9488688 
    5830    685.51775   -7955.6392   -7879.1687   -124.95459    28737.205    5.9719246 
    5840    695.36412   -7956.2369    -7878.668   -390.51338    28721.088    5.9924328 
    5850    698.36036   -7956.0652   -7878.1621   -364.62165     28703.87    6.0091694 
    5860    692.40286   -7954.9009   -7877.6624   -192.85819    28685.577    6.0222014 
    5870    695.87641   -7954.7897   -7877.1636   -23.108454    28666.675    6.0317948 
    5880    712.82103    -7956.186   -7876.6697    102.52221    28647.629    6.0407754 
    5890    718.60805   -7956.3702   -7876.2083    440.63281     28628.86    6.0534644 
    5900    709.78179   -7954.9689   -7875.7917    1043.4308    28611.391    6.0701584 
    5910    715.44058   -7955.2196   -7875.4111    1286.2862    28596.784     6.084586 
    5920    729.23754   -7956.4236    -7875.076    1273.6267    28585.778    6.0945962 
    5930    716.60733   -7954.7364   -7874.7978    1507.4207    28578.492     6.104342 
    5940    713.29615    -7954.135   -7874.5657    1681.0971    28575.515    6.1155935 
    5950    714.58257   -7954.0657   -7874.3529    1682.2875    28577.343    6.1299042 
    5960    720.59743   -7954.5496   -7874.1659    1456.2975    28583.976    6.1483607 
    5970    716.80961   -7953.9675   -7874.0063    1199.2795    28594.855    6.1687322 
    5980    708.95248   -7952.9546   -7873.8699    953.84989    28609.286    6.1885117 
    5990     707.9865   -7952.7147   -7873.7378    731.27909    28626.588    6.2060179 
    6000    718.94893   -7953.8037   -7873.6039    395.19309    28646.094    6.2195045 
    6010    728.17398   -7954.7107   -7873.4818    139.36947    28666.916    6.2305408 
    6020    709.50614   -7952.5288   -7873.3824    241.44882    28688.396     6.241019 
    6030    706.26054   -7952.0708   -7873.2864    352.02498    28710.734    6.2502898 
    6040    720.47253   -7953.5444   -7873.1746    284.89273    28734.212    6.2594062 
    6050    724.51117   -7953.8922   -7873.0719     159.9003    28758.675    6.2717441 
    6060    712.78753   -7952.4986   -7872.9861    130.57873     28783.81    6.2886551 
    6070    709.25827   -7952.0135   -7872.8947   -54.685458    28809.442    6.3077878 
    6080    719.26928   -7953.0177   -7872.7821   -469.99835    28834.988    6.3268813 
    6090    721.79077   -7953.1796   -7872.6627   -714.50144    28859.352    6.3468755 
    6100    718.03441    -7952.655   -7872.5572   -762.88007    28881.795    6.3658793 
    6110    710.33078    -7951.699   -7872.4605   -770.17359     28902.11    6.3787051 
    6120    698.54408   -7950.2746    -7872.351   -753.87382    28920.259     6.383175 
    6130    696.66971   -7949.9186    -7872.204   -705.27723    28936.269    6.3796541 
    6140    696.44134   -7949.6897   -7872.0006   -528.75139    28950.296    6.3701082 
    6150    697.66087   -7949.5585   -7871.7334   -306.67723    28962.821    6.3575034 
    6160    695.93921   -7949.0201    -7871.387    -168.1539    28974.465    6.3450631 
    6170    706.65341    -7949.779   -7870.9508   -359.34253    28985.556    6.3356055 
    6180    719.33636     -7950.67   -7870.4269   -607.67566    28995.591    6.3292853 
    6190    711.22691   -7949.1783   -7869.8399   -475.67897    29003.978    6.3264812 
    6200    719.75143   -7949.4904    -7869.201   -433.89011     29010.94     6.327135 
    6210    736.87791   -7950.7258    -7868.526   -375.52144    29016.643    6.3297037 
    6220    741.22261   -7950.5561   -7867.8716   -187.69795    29021.289    6.3334186 
    6230    746.36888   -7950.5454   -7867.2869   -59.802024    29025.366    6.3357446 
    6240    752.31858    -7950.712   -7866.7897   -111.28702    29029.226    6.3331428 
    6250    745.47636   -7949.5552   -7866.3962    -208.2332    29032.749      6.32589 
    6260     743.6893   -7949.0606   -7866.1009   -205.58738    29035.696    6.3152139 
    6270    755.01696   -7950.1187   -7865.8955   -176.98511    29038.036    6.3041925 
    6280    756.38749   -7950.1718   -7865.7957     5.353032    29039.896    6.3001997 
    6290    747.01208   -7949.1306   -7865.8003    197.11788    29041.793     6.307547 
    6300     741.4361   -7948.5929   -7865.8846    285.89901    29044.259    6.3245556 
    6310    741.85242   -7948.7941   -7866.0393    303.56331    29047.571    6.3449487 
    6320    729.03201   -7947.5771   -7866.2524    330.90289    29051.795    6.3634581 
    6330    712.14135   -7945.9274   -7866.4869    357.74169    29056.998     6.380222 
    6340    702.59234   -7945.0814   -7866.7061    205.44333    29063.204    6.3966207 
    6350     704.6421   -7945.5013   -7866.8974   -217.42152    29069.921    6.4115537 
    6360    723.65215   -7947.8081   -7867.0836   -636.26056    29075.964    6.4259185 
    6370    736.47025   -7949.4531   -7867.2987   -691.66585    29080.193    6.4434979 
    6380    734.15931   -7949.4649   -7867.5684   -598.71066    29082.381    6.4661021 
    6390    729.46161    -7949.272   -7867.8994   -520.83867    29082.783    6.4906109 
    6400    719.80397   -7948.5695   -7868.2743   -598.69161    29081.598    6.5124173 
    6410    708.81777   -7947.7459   -7868.6762   -609.41223    29078.676    6.5310381 
    6420    696.83134   -7946.8145   -7869.0819   -464.28231    29074.015    6.5487501 
    6430    698.65889   -7947.4013   -7869.4648   -478.02602    29067.984    6.5684536 
    6440    711.89958   -7949.2527   -7869.8392   -562.82166    29060.593    6.5911327 
    6450    715.75762    -7950.073   -7870.2292   -483.72585    29051.668    6.6146248 
    6460    710.78143   -7949.9277   -7870.6389   -200.86771    29041.489    6.6366944 
    6470     702.6933    -7949.443   -7871.0565    149.58143    29030.873    6.6547856 
    6480     698.1366   -7949.3484   -7871.4702    222.15984    29020.764    6.6660517 
    6490    695.19066    -7949.417   -7871.8674     48.93938    29011.406    6.6742439 
    6500    693.91888   -7949.6544   -7872.2467    -305.5479    29002.273    6.6846183 
    6510     683.9768   -7948.9006    -7872.602   -366.53904    28992.463    6.6970222 
    6520    668.54675   -7947.4829   -7872.9055   -197.79671    28981.789    6.7107193 
    6530    676.43315    -7948.605   -7873.1478   -171.36624    28970.644    6.7258454 
    6540    685.14752   -7949.7688   -7873.3396   -181.16192    28959.174    6.7446579 
    6550    687.16462     -7950.16   -7873.5058   -188.06495    28947.344    6.7664795 
    6560    680.53809   -7949.5641    -7873.649   -21.687403    28935.222    6.7872931 
    6570    684.20949     -7950.09   -7873.7654   -111.84239    28923.175    6.8049262 
    6580    695.42474   -7951.4389   -7873.8632   -424.46106    28910.945    6.8217755 
    6590    704.99289   -7952.6022   -7873.9591   -674.03144     28897.69    6.8400554 
    6600    711.64756   -7953.4602   -7874.0748   -680.33418     28882.77    6.8584332 
    6610    715.62495   -7954.0512   -7874.2222   -377.27981     28866.23    6.8755606 
    6620    725.33137   -7955.3344   -7874.4226    36.605984    28848.905    6.8911943 
    6630     715.4818   -7954.4947   -7874.6816    367.59576    28831.971      6.90724 
    6640    707.87394   -7953.9543   -7874.9899    513.91401    28816.341    6.9237452 
    6650    693.60733   -7952.6818   -7875.3089    796.88784    28802.534    6.9412891 
    6660    688.98168   -7952.4695   -7875.6125    813.52597    28791.205    6.9607891 
    6670    690.13249   -7952.8691   -7875.8838    660.76971      28782.4    6.9796768 
    6680     692.3679   -7953.3552   -7876.1205    465.06842    28775.645    6.9938186 
    6690    695.51085   -7953.9118   -7876.3265    338.05067    28770.372    7.0050464 
    6700    688.41283   -7953.2947   -7876.5012    401.25387    28766.229    7.0176372 
    6710    678.27593   -7952.2884   -7876.6257    467.46758    28763.336    7.0326015 
    6720    688.32322   -7953.4755    -7876.692    376.21413    28761.818    7.0492474 
    6730    696.63233   -7954.4158   -7876.7054    227.25171    28761.398    7.0660119 
    6740    706.16937   -7955.4616   -7876.6874    245.71163    28761.684    7.0794636 
    6750    700.04239    -7954.735   -7876.6442    535.03288     28762.76    7.0883746 
    6760    680.94323   -7952.5274   -7876.5671    901.43585    28765.399    7.0948611 
    6770     681.1284   -7952.4085   -7876.4276    1027.2663    28770.543     7.100276 
    6780    696.25571   -7953.8824    -7876.214    838.58867    28778.484    7.1043594 
    6790    703.88709   -7954.4674   -7875.9478    657.75347    28788.718    7.1081488 
    6800    712.38164   -7955.1206   -7875.6533    786.01743    28800.766    7.1124252 
    6810    720.29876   -7955.6982   -7875.3477    910.73653    28814.861    7.1203625 
    6820    731.59364   -7956.6611   -7875.0507    874.73432    28831.294    7.1359053 
    6830    735.54122   -7956.8357    -7874.785    845.64622    28849.969    7.1587865 
    6840    726.55602   -7955.6102   -7874.5618     822.8487    28870.742    7.1826336 
    6850    712.94736   -7953.8982   -7874.3678    827.63969    28893.526    7.1995624 
    6860    705.24909   -7952.8484   -7874.1768    654.23581    28918.218    7.2081555 
    6870    689.76916   -7950.9064   -7873.9617    565.66736    28944.356    7.2147079 
    6880    689.36112   -7950.6019   -7873.7026    318.94416    28971.559    7.2242148 
    6890    697.58924   -7951.2002    -7873.383   -69.389006    28999.085    7.2366841 
    6900    690.07631   -7949.9918   -7873.0128   -333.33368    29025.875    7.2490897 
    6910    681.87879    -7948.656   -7872.5914   -635.77735    29051.103    7.2606545 
    6920    691.29628   -7949.2214   -7872.1063   -1056.0329    29073.866    7.2747842 
    6930    708.33854   -7950.5875   -7871.5713   -1302.6937    29093.054    7.2941308 
    6940    705.55938   -7949.7363   -7871.0301   -1105.1202    29108.095    7.3186312 
    6950     700.4627   -7948.6441   -7870.5064   -864.89087    29119.549     7.344166 
    6960    704.10083   -7948.5353   -7869.9917   -804.74072    29128.137    7.3655887 
    6970    709.33528   -7948.6218   -7869.4944   -713.17512    29134.171     7.384054 
    6980    718.27513   -7949.1602   -7869.0355   -629.33507    29137.943    7.3987155 
    6990    719.42111   -7948.8813   -7868.6288   -390.93468    29139.816    7.4061788 
    7000      728.886   -7949.5899   -7868.2815   -249.85565    29140.468    7.4091196 
    7010    725.04887   -7948.8756   -7867.9954   -104.10497    29140.382    7.4136215 
    7020    714.71908   -7947.4889   -7867.7609   -34.790526    29139.986    7.4193333 
    7030    714.30115   -7947.2314     -7867.55   -137.96175    29139.464    7.4240383 
    7040    709.82564   -7946.5326   -7867.3505   -218.08273    29138.572    7.4278984 
    7050    711.32649    -7946.507   -7867.1574   -302.07827    29137.055    7.4298408 
    7060    729.31866   -7948.3318   -7866.9752   -347.67713    29134.696    7.4274825 
    7070    746.58711   -7950.1173   -7866.8344   -247.03796    29131.419    7.4203289 
    7080    754.41057   -7950.9301   -7866.7745   -192.51361    29127.486    7.4106457 
    7090     765.7306   -7952.2396   -7866.8212   -318.25938    29123.024    7.4011428 
    7100    771.73856   -7953.0818   -7866.9932   -308.46706    29117.777    7.3952259 
    7110    769.50969   -7953.1468   -7867.3068     -345.708    29111.719    7.3963055 
    7120    746.61141   -7951.0234   -7867.7378   -225.20776    29104.844    7.4024102 
    7130    723.48107   -7948.9292   -7868.2238   -274.02975    29097.408    7.4062237 
    7140    709.24032   -7947.8221   -7868.7053     -426.662    29089.296    7.4052766 
    7150    705.82621   -7947.8936   -7869.1576   -385.50472    29080.172    7.4023776 
    7160    698.61074   -7947.4938   -7869.5627   -450.00189    29070.096    7.3990464 
    7170    700.47594    -7948.053   -7869.9139   -609.33901    29058.908    7.3947429 
    7180    710.15319   -7949.4383   -7870.2196   -718.98864    29046.181    7.3916358 
    7190    716.74211   -7950.4469   -7870.4932    -639.4912    29031.668    7.3930247 
    7200    725.46628   -7951.6795   -7870.7527   -447.14605    29015.613    7.3983006 
    7210    729.65403   -7952.4061   -7871.0121   -65.212285    28998.645    7.4042782 
    7220    723.80634   -7952.0151   -7871.2734    531.93671    28981.923     7.407283 
    7230    714.31809   -7951.2028   -7871.5196    957.50411    28967.095    7.4059939 
    7240    718.18497   -7951.8611   -7871.7464    823.23467    28955.245    7.4035788 
    7250    722.59515   -7952.5703   -7871.9638    421.55689    28945.978    7.4070495 
    7260    720.41196   -7952.5412   -7872.1782    182.56343    28938.185    7.4201414 
    7270    724.97741   -7953.2658   -7872.3934     22.25489    28931.105    7.4396384 
    7280    728.08443   -7953.8355   -7872.6165   -24.025442    28924.268    7.4604742 
    7290    727.00413   -7953.9465   -7872.8481    87.950671    28917.554    7.4772893 
    7300    735.60763   -7955.1558   -7873.0977    41.844665    28911.175    7.4867068 
    7310    727.53382   -7954.5222   -7873.3647    6.3758259    28905.044    7.4880042 
    7320     708.3381   -7952.6436   -7873.6274    61.009098    28899.073    7.4820542 
    7330     693.1132   -7951.1628    -7873.845    43.571184    28893.368    7.4746055 
    7340    690.39303   -7951.0123   -7873.9979   -29.814102    28887.881     7.472463 
    7350    693.80436   -7951.4884   -7874.0935    62.945122    28882.459    7.4790981 
    7360    692.84778   -7951.4228   -7874.1346    352.22102    28877.402    7.4949238 
    7370    703.66393   -7952.6331   -7874.1384    300.57957    28873.352    7.5178509 
    7380    694.16799   -7951.5461   -7874.1106     381.7841    28870.298    7.5426525 
    7390    683.33129    -7950.274   -7874.0474    567.49356    28868.429    7.5624559 
    7400     677.0905   -7949.4551   -7873.9246    902.39408    28868.307    7.5769387 
    7410    669.46522   -7948.4145   -7873.7347    1054.0723    28870.769    7.5882013 
    7420    664.80761   -7947.6343    -7873.474    1075.3018    28876.246    7.5970951 
    7430     667.9781   -7947.6556   -7873.1416    998.68168    28884.769    7.6058428 
    7440    681.93657   -7948.8187   -7872.7476    775.91616    28896.049    7.6172281 
    7450    693.09414   -7949.6308   -7872.3151    710.55108    28909.491     7.631964 
    7460    712.64503   -7951.3763   -7871.8796      760.648    28924.871    7.6488819 
    7470    726.87853   -7952.5614    -7871.477    658.27018    28942.228    7.6652612 
    7480    726.75377   -7952.2125    -7871.142    484.61396    28961.271    7.6797843 
    7490     734.1666   -7952.7811   -7870.8837    276.22041    28981.487     7.693185 
    7500    732.76333    -7952.439   -7870.6981    214.89784    29002.308    7.7081079 
    7510    729.49834   -7951.9562   -7870.5796    166.18489    29023.508    7.7258171 
    7520    739.12663    -7952.967   -7870.5163   -43.048244    29044.888    7.7435622 
    7530    741.78016   -7953.2602   -7870.5135   -45.993378    29065.963    7.7583325 
    7540    725.43598   -7951.4916   -7870.5682     43.55395    29086.689    7.7702128 
    7550    709.38745   -7949.7765   -7870.6432   -32.022684    29107.257    7.7826301 
    7560    706.74964   -7949.5479   -7870.7089   -232.37121     29127.47    7.7978413 
    7570    702.90981   -7949.1645   -7870.7539   -340.61427    29146.814    7.8151214 
    7580    698.72693   -7948.7192   -7870.7752   -493.29236    29164.919    7.8333689 
    7590    699.13816   -7948.7544   -7870.7645    -728.8442    29181.356    7.8484522 
    7600    711.65402    -7950.114   -7870.7279   -1135.1082    29195.401    7.8569553 
    7610    718.73267   -7950.8646   -7870.6889   -1414.9391    29205.932    7.8620237 
    7620    700.78512   -7948.8293   -7870.6556   -1283.8531     29212.24    7.8686221 
    7630    692.90694   -7947.9023   -7870.6074   -1078.7625    29214.666    7.8778242 
    7640    696.80571   -7948.2514   -7870.5217   -777.57948    29213.883    7.8890798 
    7650    697.53308   -7948.2142   -7870.4033   -381.85767    29210.802    7.9035374 
    7660    688.50562   -7947.0525   -7870.2487    110.12837    29206.649     7.922164 
    7670    686.06383   -7946.5776   -7870.0461    318.76095    29202.796    7.9450342 
    7680    694.03402   -7947.2071   -7869.7866    288.78851    29199.878    7.9703046 
    7690    710.14106   -7948.7002   -7869.4829    281.78618    29197.869    7.9951137 
    7700    719.97396    -7949.476   -7869.1618    261.11576    29196.709    8.0168291 
    7710    721.42622   -7949.3227   -7868.8465    207.35246     29196.34    8.0345185 
    7720    725.99011   -7949.5295   -7868.5442   -88.331861    29196.522    8.0479946 
    7730    727.44809   -7949.4101   -7868.2622   -316.57947    29196.471    8.0593552 
    7740    734.51246   -7949.9444   -7868.0084   -407.14469    29195.511    8.0704484 
    7750    747.64561   -7951.1977   -7867.7967   -382.75246    29193.369    8.0821966 
    7760    751.04908   -7951.4321   -7867.6514   -208.52456    29190.154    8.0960338 
    7770     753.7072   -7951.6677   -7867.5905   -140.60838    29186.302    8.1141235 
    7780    752.31266   -7951.5452   -7867.6236   -165.56103    29182.034    8.1356485 
    7790    742.93394   -7950.6342   -7867.7588    -266.4326    29177.289    8.1589955 
    7800    721.31354   -7948.4457   -7867.9821   -310.92345    29171.789    8.1818342 
    7810    708.01621   -7947.2498   -7868.2696   -204.83274    29165.436      8.20255 
    7820    708.43083   -7947.6427   -7868.6162   -191.70203    29158.474    8.2216903 
    7830    708.58729   -7948.0896   -7869.0456   -236.93106    29150.953    8.2415545 
    7840    709.82351   -7948.7655   -7869.5836   -295.97832    29142.779    8.2654854 
    7850    705.35501   -7948.9209   -7870.2375   -312.12343    29133.785    8.2935554 
    7860      712.034   -7950.4351   -7871.0067   -238.04335    29123.943    8.3223821 
    7870    719.12267    -7952.098   -7871.8788   -220.84886    29113.436    8.3496926 
    7880    721.80547    -7953.328   -7872.8095   -141.08453    29102.368    8.3734393 
    7890    724.47857   -7954.5531   -7873.7364   -84.187111    29090.944    8.3908776 
    7900    718.41689   -7954.7398   -7874.5993   -22.979674    29079.326    8.4036143 
    7910    700.85183   -7953.5099   -7875.3288    146.01976    29067.745    8.4164075 
    7920    695.64075   -7953.5108   -7875.9111    184.58948    29056.615     8.434315 
    7930    679.80394   -7952.1753   -7876.3422    311.66515    29046.122    8.4607092 
    7940     668.1725   -7951.1627    -7876.627    419.57459    29036.602    8.4934603 
    7950    665.42163   -7951.0057   -7876.7769    502.67547    29028.372    8.5271437 
    7960    682.26026   -7952.9297   -7876.8225    446.05032    29021.647    8.5570065 
    7970    697.77943   -7954.6441   -7876.8058    343.97162    29016.279      8.58287 
    7980     688.3731   -7953.5404   -7876.7514    471.41885    29012.044     8.608361 
    7990     689.3726   -7953.5598   -7876.6593    417.98051    29009.182    8.6361761 
    8000    698.69965   -7954.4625   -7876.5215    206.71498    29007.533    8.6644026 
    8010    702.86205   -7954.7623    -7876.357    66.908771    29006.535    8.6885855 
    8020    699.71154   -7954.2236   -7876.1697   -191.30009    29005.701    8.7056154 
    8030    708.39612   -7954.9898   -7875.9671   -564.54904    29004.261     8.716584 
    8040    702.58881   -7954.1242   -7875.7494   -809.52364    29001.203    8.7270648 
    8050    696.87959   -7953.2573   -7875.5194   -1087.7064    28995.747    8.7424564 
    8060     682.8434   -7951.4278   -7875.2556   -1204.1481    28987.163    8.7677972 
    8070    675.00019   -7950.2319   -7874.9346   -1209.0145    28975.099    8.8016185 
    8080    679.29035   -7950.3131   -7874.5372   -1120.3188    28959.554    8.8373602 
    8090    685.50597   -7950.5351   -7874.0659   -876.01227    28940.849    8.8703253 
    8100    700.32176   -7951.6625   -7873.5406   -684.55109     28919.66    8.8986139 
    8110    709.91195   -7952.1852   -7872.9934   -372.35866    28896.637    8.9233355 
    8120    707.16207   -7951.3438   -7872.4588    104.05492    28872.752    8.9481983 
    8130    705.95505   -7950.7007   -7871.9503    356.90837    28849.296    8.9745793 
    8140    706.34874   -7950.2676   -7871.4734    375.01513    28827.004    8.9998342 
    8150     700.9979   -7949.2228   -7871.0255    432.14807    28806.006    9.0242014 
    8160    693.76395   -7947.9892   -7870.5987    552.24006     28786.46    9.0523412 
    8170    690.83324   -7947.2454   -7870.1819    595.89001    28768.658    9.0868234 
    8180      698.119   -7947.6417   -7869.7655    489.67531    28752.694    9.1245699 
    8190    713.92839   -7949.0017   -7869.3619    451.95829    28738.308    9.1612662 
    8200    719.15888   -7949.2172   -7868.9939    634.56497     28725.41    9.1965371 
    8210    721.19725   -7949.1279   -7868.6772    852.76233    28714.472     9.228602 
    8220    724.49756   -7949.2293   -7868.4105    891.98336    28706.056    9.2535317 
    8230    731.18121   -7949.7604   -7868.1961    812.76468    28700.265    9.2708167 
    8240    739.85493   -7950.5742   -7868.0423    640.27199    28696.849    9.2844167 
    8250     735.5274   -7950.0056   -7867.9564    610.78757    28695.355    9.2988678 
    8260    723.60975    -7948.646   -7867.9263    759.68833    28695.685    9.3170845 
    8270    722.97961   -7948.5756   -7867.9262    856.48024    28698.211    9.3375614 
    8280    734.22481     -7949.86   -7867.9561    690.19791    28703.134    9.3599945 
    8290    727.61474   -7949.1961   -7868.0296    476.80519    28710.025    9.3847397 
    8300    715.32412   -7947.9317   -7868.1362    173.97807    28718.234    9.4081425 
    8310     717.2095   -7948.2614   -7868.2556   -98.576419     28726.92    9.4288679 
    8320    713.52167   -7947.9758   -7868.3814   -220.12404    28735.312     9.448525 
    8330    712.81705    -7948.029   -7868.5132   -308.94372    28743.027    9.4671172 
    8340    719.66647   -7948.9311   -7868.6512   -506.84552    28749.768    9.4859215 
    8350     724.5882   -7949.6405   -7868.8116   -565.53883    28755.053    9.5069522 
    8360    717.54711   -7949.0397   -7868.9963   -538.12075     28758.71    9.5302324 
    8370     714.3852   -7948.8989   -7869.2082    -662.0223    28760.735    9.5557069 
    8380    705.81472   -7948.1669   -7869.4322   -589.58252    28760.896    9.5843715 
    8390    704.19167   -7948.2073   -7869.6536    -470.0024     28759.35    9.6136618 
    8400    708.44353   -7948.8959   -7869.8679    -308.1893     28756.47    9.6396798 
    8410    717.30951   -7950.1075   -7870.0905   -281.57764    28752.668    9.6623649 
    8420    727.13334   -7951.4627   -7870.3498   -292.62424     28748.05    9.6860142 
    8430    731.73601   -7952.2957   -7870.6694   -190.57349    28742.648    9.7120128 
    8440    725.03603   -7951.9474   -7871.0685   -108.06598    28736.736    9.7360749 
    8450    696.62675   -7949.2315   -7871.5217     -28.5274    28730.557    9.7550321 
    8460    685.14504   -7948.4143   -7871.9853   -15.691086    28724.314    9.7692206 
    8470     693.2736   -7949.7814   -7872.4457   -35.675941    28718.043    9.7819976 
    8480    696.10291   -7950.5643   -7872.9129    -53.12161    28711.696    9.7963812 
    8490    693.62391   -7950.7585   -7873.3837   -41.523927    28705.235    9.8139594 
    8500    697.68599    -7951.685   -7873.8571    47.842699     28698.71    9.8358248 
    8510    698.03416    -7952.199   -7874.3323    77.309468    28692.339    9.8611113 
    8520    698.47276   -7952.7247    -7874.809    27.511541    28686.211    9.8853801 
    8530    696.69271   -7952.9992   -7875.2821   -46.415504    28680.191    9.9070194 
    8540    691.70003   -7952.9002     -7875.74   -99.858171    28674.067     9.927155 
    8550    680.49193   -7952.0717   -7876.1618   -35.303543    28667.723    9.9461319 
    8560    672.00274   -7951.4845   -7876.5215    -22.79838    28661.291    9.9613856 
    8570    672.60544   -7951.8363   -7876.8062   -61.713408      28654.8    9.9703696 
[...]
   22890    688.12609   -7947.5965    -7870.835   -494.45652    29252.445    21.901366 
   22900    713.25109   -7950.1085   -7870.5443   -500.72604     29248.26    21.908605 
   22910    736.32495   -7952.3351    -7870.197   -571.25973    29242.478    21.909737 
   22920     752.0773   -7953.7418   -7869.8464   -630.90565     29234.89    21.903451 
   22930    765.27667   -7954.9099   -7869.5421   -724.14103    29225.269    21.893801 
   22940    758.77472   -7953.9615    -7869.319   -456.82281    29213.428    21.891346 
   22950    753.67271   -7953.2563    -7869.183    100.83942    29200.129    21.897782 
   22960     753.6411   -7953.1979   -7869.1281    515.99167    29186.908    21.905475 
   22970    744.40706   -7952.2042   -7869.1644    908.49747    29175.076    21.912198 
   22980    725.29612   -7950.1855   -7869.2777    1276.9641    29165.828    21.925542 
   22990     725.0568   -7950.3291    -7869.448    1333.9888    29160.225    21.948785 
   23000    731.96719   -7951.3364   -7869.6843    1330.6986    29158.562    21.980189 
   23010    731.07676   -7951.5547    -7870.002    1368.0613    29160.927    22.016531 
   23020    735.58003   -7952.4735   -7870.4184     977.0876     29167.33    22.054145 
   23030    725.09115   -7951.8137   -7870.9287    721.91742    29176.829    22.086698 
   23040    710.95493   -7950.8148   -7871.5067    783.00396    29188.736    22.111877 
   23050    698.65772   -7950.0402   -7872.1039    805.29865     29203.16    22.131462 
   23060    698.12401   -7950.5595   -7872.6827    597.43828    29220.178    22.146238 
   23070    709.63816   -7952.3973   -7873.2361    218.88499    29239.215    22.155963 
   23080    718.59597    -7953.939   -7873.7786   -77.845824    29259.225    22.161241 
   23090    710.75638   -7953.5898   -7874.3038    -279.9508    29279.309     22.17033 
   23100    705.96906   -7953.5468   -7874.7949   -503.32968    29298.825    22.185708 
   23110    703.97588   -7953.7675   -7875.2379   -820.68002    29317.055    22.198768 
   23120    694.59105   -7953.1078   -7875.6252   -963.34891    29333.074    22.205756 
   23130    676.74713   -7951.4248   -7875.9326   -923.38119    29346.421    22.207738 
   23140    671.26196   -7951.0208   -7876.1406   -960.58051    29357.105    22.208722 
   23150    670.24978   -7951.0144    -7876.247   -1022.3645    29364.976     22.21185 
   23160    670.91776   -7951.1058   -7876.2639   -1014.9533    29369.843    22.215359 
   23170    670.17896   -7950.9541   -7876.1946   -1039.6905    29371.663    22.219612 
   23180    682.88348   -7952.2252   -7876.0486   -1082.9978     29370.32    22.224574 
   23190    696.75897   -7953.5659   -7875.8414   -882.79433    29365.727    22.226393 
   23200    697.85574   -7953.4483   -7875.6014   -525.98615     29358.44    22.224163 
   23210    689.52144    -7952.252   -7875.3348   -262.29326    29349.434     22.22057 
   23220    687.81204   -7951.7564   -7875.0299   -153.56178    29339.474    22.214304 
   23230     696.9993   -7952.4317   -7874.6804    11.841541    29328.951    22.202224 
   23240    707.72764   -7953.2482   -7874.3002    273.65787    29318.364    22.186303 
   23250    716.54074   -7953.8483   -7873.9171    380.02272    29308.458    22.175235 
   23260    701.67766   -7951.8205   -7873.5473    429.90506    29299.603    22.173921 
   23270    695.62346   -7950.7789    -7873.181    391.97028     29291.94    22.175977 
   23280    721.39474   -7953.2782   -7872.8055    90.541503    29285.313    22.176388 
   23290    736.59658   -7954.6258   -7872.4574   -30.225304    29278.947    22.173389 
   23300    737.69332   -7954.4752   -7872.1844   -29.497976    29272.446    22.164064 
   23310    726.78632    -7953.058   -7871.9839   -74.586442     29265.76    22.147791 
   23320     719.3378   -7952.0781   -7871.8349    2.1740943    29258.808    22.128969 
   23330    713.43638   -7951.2927   -7871.7078    165.31488    29251.815    22.117467 
   23340    719.86835   -7951.8993   -7871.5969    190.61847      29245.2    22.115397 
   23350     723.5091   -7952.2146   -7871.5061    269.71447    29239.111    22.117555 
   23360    730.05255   -7952.8897   -7871.4512    477.31493    29233.819    22.122087 
   23370    736.71956   -7953.6266   -7871.4445    563.05072     29229.86    22.131186 
   23380     724.1227   -7952.2635   -7871.4866    667.73551     29227.57    22.142322 
   23390    721.18641   -7952.0055   -7871.5561    604.05126    29227.233    22.150297 
   23400    731.99025   -7953.3059   -7871.6513    495.70061    29228.706    22.153133 
   23410    711.05929   -7951.0881   -7871.7684      671.337    29231.809    22.154973 
   23420    694.57238   -7949.3562   -7871.8756    686.17311    29236.956    22.160496 
   23430    688.73549   -7948.7647   -7871.9352    576.74598    29244.224    22.167058 
   23440     699.4575   -7949.9733   -7871.9478    372.41162    29253.318    22.167468 
   23450    713.49781   -7951.5265   -7871.9348    180.65826     29263.68    22.164064 
   23460    719.91012   -7952.2302   -7871.9231   -44.447506    29274.708    22.163643 
   23470    724.22756   -7952.7177    -7871.929   -241.13339    29285.759    22.165861 
   23480    717.37385   -7951.9731    -7871.949   -303.91415    29296.267    22.168528 
   23490    723.08851    -7952.641   -7871.9794   -289.31657    29305.986    22.172676 
   23500    727.24292    -7953.149   -7872.0239   -77.703455    29315.002    22.184419 
   23510    714.65988    -7951.808   -7872.0866    107.37117    29323.874    22.207469 
   23520    699.32381   -7950.1535   -7872.1429    142.69461    29333.136    22.236806 
   23530     708.4122   -7951.2039   -7872.1795   -74.911491    29342.851    22.267632 
   23540    705.28109   -7950.8706   -7872.1954   -164.89405    29352.484    22.299977 
   23550    697.48231   -7950.0007   -7872.1955   -198.68253    29361.727    22.329217 
   23560     698.1494   -7950.0509   -7872.1713   -369.30742    29370.426    22.351721 
   23570     703.0954   -7950.5561   -7872.1248   -698.12703    29378.049    22.368684 
   23580    711.80317   -7951.4693   -7872.0666   -1002.4761     29383.63      22.3842 
   23590     721.4112   -7952.4846   -7872.0101   -1173.6233     29386.23    22.403081 
   23600    726.40223   -7953.0041   -7871.9728   -1077.7733    29385.347    22.422472 
   23610    723.16563     -7952.63   -7871.9598     -934.329    29381.173    22.436098 
   23620    720.71959   -7952.3662   -7871.9689   -1006.9387    29374.059    22.447679 
   23630    705.49156    -7950.684   -7871.9854   -1085.8946    29363.831    22.466522 
   23640    704.30711   -7950.5598   -7871.9933   -1079.0846    29350.247    22.491538 
   23650     713.0425    -7951.528    -7871.987   -1103.0941    29333.275    22.516415 
   23660    717.90807   -7952.0722   -7871.9884   -1021.8443    29312.894    22.541248 
   23670     711.2877   -7951.3427   -7871.9975   -917.60561     29289.32    22.563295 
   23680    714.59295   -7951.7211   -7872.0072   -944.76725    29262.791    22.575467 
   23690    726.06679    -7953.022   -7872.0282   -815.27728    29233.322    22.578685 
   23700    721.25175   -7952.5269   -7872.0702   -470.79459     29201.32    22.581022 
   23710    711.78979   -7951.5289   -7872.1276   -65.199832    29167.777    22.584655 
   23720    699.34606   -7950.1835   -7872.1704    295.89474    29133.899    22.585606 
   23730    705.19333   -7950.8554     -7872.19    383.92237    29100.689    22.586173 
   23740    705.27745   -7950.8617   -7872.1869    413.83092    29068.512    22.588868 
   23750     709.4371   -7951.3147   -7872.1759    268.36345     29037.41    22.588196 
   23760    709.79543   -7951.3387     -7872.16    263.00249     29007.05    22.578676 
   23770    705.73652   -7950.8612   -7872.1352    518.24522    28977.433     22.55955 
   23780    704.58519   -7950.6874   -7872.0899    814.11091    28949.263    22.539513 
   23790    712.41168   -7951.4947   -7872.0241    1109.9659    28923.421    22.527423 
   23800    724.02328   -7952.7186   -7871.9527     1358.007    28900.786    22.521785 
   23810    729.80512   -7953.3123   -7871.9015    1259.4131    28881.999    22.518686 
   23820    726.91634   -7952.9742   -7871.8856    932.80164    28866.809    22.516534 
   23830    723.06791   -7952.5692   -7871.9099    569.29697    28854.297    22.516774 
   23840    707.69543   -7950.9075    -7871.963    459.81432    28843.482    22.522649 
   23850     688.6914   -7948.8394   -7872.0149    396.94627    28833.998    22.537156 
   23860    687.14204   -7948.6846   -7872.0329    14.946894    28825.559    22.559977 
   23870    691.21557   -7949.1047   -7871.9986   -336.86509     28817.16    22.586954 
   23880    687.79552   -7948.6267   -7871.9021   -504.80254    28807.783    22.612832 
   23890    681.09816   -7947.6916    -7871.714   -381.60674    28796.961    22.633462 
   23900    692.75559   -7948.6828   -7871.4049    -224.8578    28784.981    22.648752 
   23910    700.87077   -7949.1385   -7870.9553   -66.877922    28772.303    22.664919 
   23920    715.12448   -7950.1539   -7870.3807    25.502605    28759.346    22.688685 
   23930    729.41727   -7951.0792   -7869.7116    19.875235    28746.379    22.720365 
   23940    736.09193   -7951.1233   -7869.0111    -57.76882    28733.382    22.755237 
   23950    744.48523   -7951.3795    -7868.331   -158.67998    28720.149    22.790188 
   23960    762.43446   -7952.7706   -7867.7199   -257.97757    28706.375    22.826333 
   23970    746.96508   -7950.5432   -7867.2182   -48.105198    28691.862    22.867643 
   23980    730.80064   -7948.3433   -7866.8214    72.069626    28677.092     22.91442 
   23990    734.41413   -7948.4131   -7866.4881    187.66378    28662.468    22.960253 
   24000    736.92372   -7948.4156   -7866.2107    402.72654    28648.339    22.994368 
   24010    742.87145   -7948.8604    -7865.992    510.31153    28635.281    23.010612 
   24020    756.02495   -7950.1847   -7865.8489     402.4817    28623.558     23.01293 
   24030    757.26369   -7950.2803   -7865.8064    458.85113    28612.964     23.01203 
   24040     751.3796   -7949.6843   -7865.8668     692.7813    28603.667    23.010523 
   24050    746.38813   -7949.2826   -7866.0219    942.19546    28596.303    23.004053 
   24060    746.46556   -7949.5302   -7866.2608    1175.0796    28591.621    22.992423 
   24070     757.0642   -7951.0474   -7866.5958    1238.4887    28590.273    22.982916 
   24080    757.71559   -7951.5697   -7867.0454    1215.5842    28592.498    22.981828 
   24090    747.75281   -7951.0142   -7867.6012    909.06512    28598.186    22.985874 
   24100    735.95694   -7950.3193   -7868.2222    661.88915    28606.595     22.99174 
   24110    728.68514   -7950.1557   -7868.8698    658.03806    28617.061    23.000048 
   24120    719.66073   -7949.7804   -7869.5012    842.00245    28629.598    23.004554 
   24130    726.37986   -7951.1332   -7870.1044    726.01556    28644.596    22.996061 
   24140    720.76503   -7951.0678   -7870.6654    654.84803    28661.876    22.984062 
   24150    709.85609   -7950.3514   -7871.1659    670.08411    28681.254    22.979992 
   24160    700.04651   -7949.6765   -7871.5853    632.09959    28702.764    22.986624 
   24170     692.1402   -7949.1237   -7871.9145    652.02309    28726.387    23.004349 
   24180    696.26274   -7949.8277   -7872.1585    519.97227    28752.136    23.029896 
   24190    704.31558   -7950.9077   -7872.3403    387.37442    28779.689    23.055904 
   24200    707.55913   -7951.4071   -7872.4779    392.57539    28808.732    23.079377 
   24210    722.05564   -7953.1439   -7872.5975     135.3463    28839.171    23.100413 
   24220    718.25266   -7952.8391    -7872.717   -39.270952    28870.377    23.121154 
   24230    700.28875    -7950.949   -7872.8307     21.16247    28901.897    23.141747 
   24240    696.58396   -7950.6205   -7872.9155   -122.43257    28933.778    23.164941 
   24250    700.44244   -7951.0957   -7872.9603   -422.79594    28965.606     23.19439 
   24260    693.55527   -7950.3341    -7872.967   -758.73119    28996.513    23.228998 
   24270    678.19296    -7948.581   -7872.9275   -1046.1288    29025.497    23.263401 
   24280    660.84189   -7946.5299    -7872.812    -1138.243     29051.73    23.289594 
   24290    672.20715   -7947.5924   -7872.6066   -1283.0626    29074.804    23.303446 
   24300    682.49158   -7948.4425   -7872.3096   -1322.7977    29094.304    23.311735 
   24310    690.20439   -7948.9458   -7871.9525   -1288.5168    29110.051     23.31989 
   24320    691.80441   -7948.7216   -7871.5498   -1055.9756    29122.155    23.330693 
   24330    698.61489   -7949.0484   -7871.1169   -735.31758    29131.232    23.344676 
   24340    707.78566   -7949.6178   -7870.6632   -565.79248    29138.144    23.356617 
   24350    727.05831   -7951.3193   -7870.2149   -573.73727    29143.388    23.362712 
   24360    729.82568   -7951.2213   -7869.8082   -527.44343    29146.978    23.365544 
   24370    716.78169   -7949.4214   -7869.4633   -315.39681    29149.061    23.367724 
   24380    709.31032   -7948.2853   -7869.1607   -235.97941    29150.178    23.368883 
   24390    702.13384   -7947.1994   -7868.8753   -249.36621    29150.592     23.37244 
   24400    693.67043   -7945.9691   -7868.5891   -304.09872    29150.254    23.381226 
   24410    696.18205   -7945.9507   -7868.2905    -208.5057    29149.041    23.392157 
   24420    709.44764   -7947.1196   -7867.9796   -157.42012    29147.185    23.407569 
   24430    718.13947   -7947.7922   -7867.6827   -357.47531    29144.756    23.427161 
   24440    708.43335   -7946.4426   -7867.4158   -377.57619      29141.3    23.441149 
   24450    719.68964   -7947.4602   -7867.1777   -467.34271    29136.653    23.440086 
   24460     739.9374   -7949.5165   -7866.9754   -528.54108    29130.578    23.420337 
   24470    749.54482   -7950.4634   -7866.8506   -546.24409    29122.875     23.38631 
   24480    740.23058   -7949.3896   -7866.8158   -525.32537    29113.489      23.3492 
   24490    725.55563   -7947.7836   -7866.8468   -430.87851    29102.459    23.315515 
   24500    718.67853   -7947.0681   -7866.8984     -265.901    29090.071    23.283001 
   24510    730.80147   -7948.4853   -7866.9633   -386.74449    29076.682    23.252628 
   24520    729.44557    -7948.428   -7867.0572    -549.7131    29061.993    23.231097 
   24530    717.66051   -7947.2296   -7867.1735   -438.81789    29045.616    23.221983 
   24540    723.85548   -7948.0433   -7867.2962   -299.82326    29027.786    23.221001 
   24550    732.47061   -7949.1424   -7867.4342   -111.90935    29008.925     23.22277 
   24560    728.46491   -7948.8622   -7867.6009    140.47027     28989.59    23.224195 
   24570    721.74596   -7948.2956   -7867.7838    344.90933    28970.516    23.225158 
   24580    726.15334   -7948.9795    -7867.976    202.95296    28952.223    23.226088 
   24590    726.36263   -7949.2095   -7868.1826    1.3877711    28934.406    23.227059 
   24600    722.04492   -7948.9445   -7868.3993   -51.165625    28916.496    23.228624 
   24610     727.2048   -7949.7452   -7868.6244     15.56185    28898.325    23.228066 
   24620    723.88167   -7949.6083   -7868.8582    44.311651    28880.064    23.222402 
   24630    718.70418   -7949.2687   -7869.0962   -129.01207    28861.728    23.210759 
   24640    718.75443   -7949.5023   -7869.3242    -201.7045    28842.893    23.196267 
   24650    728.79018   -7950.8477   -7869.5501   -119.64311    28823.356    23.184369 
   24660    729.17882   -7951.1245   -7869.7835    178.13563     28803.39    23.180785 
   24670    723.63007   -7950.7432   -7870.0212    340.38419    28783.788    23.189029 
   24680    724.93445   -7951.1273   -7870.2598    247.72723    28764.992    23.206356 
   24690    719.74306   -7950.7791   -7870.4906    260.82371    28746.817    23.222424 
   24700    710.55482   -7949.9622   -7870.6987    405.07635    28729.313    23.224559 
   24710    705.38297   -7949.5559   -7870.8693    449.80024    28712.847    23.212497 
   24720    703.52701   -7949.4778   -7870.9983     381.3534    28697.549    23.198038 
   24730     702.7175   -7949.4775   -7871.0883    419.04291    28683.294    23.190399 
   24740    692.93161   -7948.4363   -7871.1387    543.59077    28670.191    23.185766 
   24750    691.03592   -7948.2291    -7871.143    491.62216    28658.533    23.176884 
   24760    703.31694   -7949.5679   -7871.1118    416.85146    28648.229    23.168145 
   24770     703.8321   -7949.5719   -7871.0584    477.76126      28639.1    23.164325 
   24780    709.53165   -7950.1465   -7870.9972    511.01726    28631.284    23.160442 
   24790    716.79764   -7950.8957   -7870.9358    605.84189    28624.942     23.15144 
   24800    718.31486   -7951.0165   -7870.8874    539.21918    28620.251    23.134403 
   24810    718.77644   -7951.0388   -7870.8582    498.02776    28617.096     23.10665 
   24820    722.38941    -7951.433   -7870.8494    478.16748    28615.362    23.068655 
   24830    719.80017   -7951.1575   -7870.8627    451.03359        28615    23.028382 
   24840    708.86256    -7949.967   -7870.8923    431.97524    28615.941    22.997034 
   24850    690.32568    -7947.918   -7870.9112    652.93043    28618.227    22.975359 
   24860    692.54714   -7948.1497    -7870.895    734.27868    28622.395    22.958486 
   24870    707.30189   -7949.7423   -7870.8417    621.12223    28628.693    22.944647 
   24880    708.24249   -7949.7767   -7870.7711    630.94539     28636.91    22.931478 
   24890    706.67695   -7949.5207   -7870.6899    568.07777     28647.03    22.916834 
   24900    714.86432   -7950.3444   -7870.6002    328.61285    28658.871    22.901096 
   24910    717.37762   -7950.5347   -7870.5101    194.76175     28671.84     22.88518 
   24920    716.72957   -7950.3824   -7870.4302    237.44102    28685.568    22.868923 
   24930    711.06177   -7949.6743   -7870.3543    400.02411    28700.187    22.852771 
   24940    709.92733   -7949.4657   -7870.2722    437.52776    28716.117    22.835498 
   24950    717.04463   -7950.1667   -7870.1793    384.44479    28733.478    22.820405 
   24960    715.89479   -7949.9408   -7870.0817    379.76196    28752.169    22.808198 
   24970     715.7066   -7949.8292    -7869.991    282.66012    28772.155    22.795526 
   24980    703.95909    -7948.417   -7869.8894     9.332954    28793.141    22.786662 
   24990    701.59241   -7948.0214   -7869.7577   -514.47974     28814.31    22.787931 
   25000    714.38124   -7949.2672   -7869.5769   -879.31135    28834.244    22.803823 
Loop time of 16712.1 on 16 procs for 20000 steps with 864 atoms

Performance: 0.103 ns/day, 232.112 hours/ns, 1.197 timesteps/s
98.1% CPU use with 16 MPI tasks x 1 OpenMP threads

MPI task timing breakdown:
Section |  min time  |  avg time  |  max time  |%varavg| %total
---------------------------------------------------------------
Pair    | 11667      | 14528      | 15869      | 964.8 | 86.93
Bond    | 0.0019422  | 0.007981   | 0.014834   |   3.7 |  0.00
Neigh   | 0.224      | 0.23827    | 0.25472    |   1.7 |  0.00
Comm    | 500.92     | 1858       | 4593.1     |2618.0 | 11.12
Output  | 2.351      | 2.4283     | 3.3158     |  14.7 |  0.01
Modify  | 173.02     | 323.28     | 455.66     | 610.9 |  1.93
Other   |            | 0.1403     |            |       |  0.00

Nlocal:        54.0000 ave          59 max          46 min
Histogram: 2 0 0 1 1 3 2 3 2 2
Nghost:        414.812 ave         440 max         392 min
Histogram: 2 1 1 0 4 5 0 1 0 2
Neighs:         0.00000 ave           0 max           0 min
Histogram: 16 0 0 0 0 0 0 0 0 0
FullNghs:      1574.75 ave        1788 max        1279 min
Histogram: 2 0 0 2 1 2 2 3 2 2

Total # of neighbors = 25196
Ave neighs/atom = 29.162037
Ave special neighs/atom = 0.0000000
Neighbor list builds = 2000
Dangerous builds = 2000
Total wall time: 5:49:07
