LAMMPS (29 Sep 2021 - Update 3)
OMP_NUM_THREADS environment is not set. Defaulting to 1 thread. (src/comm.cpp:98)
  using 1 OpenMP thread(s) per MPI task
Reading data file ...
  orthogonal box = (0.0000000 0.0000000 0.0000000) to (15.969932 15.719106 81.083077)
  2 by 1 by 8 MPI processor grid
  reading atoms ...
  864 atoms
Finding 1-2 1-3 1-4 neighbors ...
  special bond factors lj:    0        0        0       
  special bond factors coul:  0        0        0       
     0 = max # of 1-2 neighbors
     0 = max # of 1-3 neighbors
     0 = max # of 1-4 neighbors
     1 = max # of special neighbors
  special bonds CPU = 0.001 seconds
  read_data CPU = 0.026 seconds
Neighbor list info ...
  update every 1 steps, delay 10 steps, check yes
  max neighbors/atom: 2000, page size: 100000
  master list distance cutoff = 6.22
  ghost atom cutoff = 6.22
  binsize = 3.11, bins = 6 6 27
  1 neighbor lists, perpetual/occasional/extra = 1 0 0
  (1) pair quip, perpetual
      attributes: full, newton on
      pair build: full/bin
      stencil: full/bin/3d
      bin: standard
Setting up Verlet run ...
  Unit style    : metal
  Current step  : 0
  Time step     : 0.001
Per MPI rank memory allocation (min/avg/max) = 8.888 | 8.903 | 8.913 Mbytes
Step Temp PotEng TotEng Press Volume c_msd[4] 
       0            0   -6930.8241   -6930.8241   -4495.9065    20354.533            0 
      10    65.904237   -6938.1841   -6930.8324   -5379.5912    20354.533 0.0005000384 
      20    168.73131   -6949.6632    -6930.841   -6364.5261    20354.533 0.0061479459 
      30    200.57733   -6953.2127    -6930.838   -5696.6671    20354.533  0.020662009 
      40    199.55606   -6953.0935   -6930.8327   -4580.1506    20354.533   0.03833664 
      50    226.88579   -6956.1474   -6930.8379   -4419.7801    20354.533  0.051806208 
      60    238.47957   -6957.4392   -6930.8365   -4645.7272    20354.533  0.061424452 
      70    236.06355   -6957.1692   -6930.8359    -4807.043    20354.533  0.069853138 
      80    232.99362   -6956.8259   -6930.8351    -5036.908    20354.533  0.079308594 
      90    234.23747   -6956.9654   -6930.8358   -5260.6038    20354.533  0.090830495 
     100    232.00556   -6956.7159   -6930.8353   -5208.0306    20354.533   0.10432197 
     110    232.79067   -6956.8033   -6930.8352   -5031.3164    20354.533   0.11840709 
     120    238.30149    -6957.419   -6930.8361   -4942.2097    20354.533   0.13201584 
     130    238.74514   -6957.4687   -6930.8363   -4988.8033    20354.533   0.14538478 
     140    232.54984   -6956.7771   -6930.8358   -4942.4536    20354.533   0.15867927 
     150    225.40044   -6955.9792   -6930.8355   -4787.8719    20354.533   0.17110203 
     160    224.38726   -6955.8659   -6930.8352   -4620.0724    20354.533    0.1817825 
     170    231.86358   -6956.7009   -6930.8362   -4442.3359    20354.533   0.19072597 
     180    237.58036   -6957.3391   -6930.8366   -4192.2572    20354.533   0.19889867 
     190    235.69365   -6957.1279    -6930.836   -3927.7806    20354.533   0.20710191 
     200    234.44619   -6956.9885   -6930.8356   -3773.8119    20354.533   0.21513007 
     210    236.73114   -6957.2437    -6930.836   -3777.5502    20354.533   0.22305549 
     220    238.14425   -6957.4012   -6930.8359   -3899.9101    20354.533    0.2315521 
     230     238.4388   -6957.4341   -6930.8359   -4006.5782    20354.533   0.24098695 
     240    239.23886    -6957.523   -6930.8356   -3984.7528    20354.533   0.25141959 
     250     242.0724   -6957.8401   -6930.8366   -3793.3442    20354.533   0.26265129 
     260       239.05   -6957.5024    -6930.836   -3540.3897    20354.533   0.27417391 
     270    235.84511    -6957.145   -6930.8361   -3272.6541    20354.533   0.28493922 
     280    231.62838   -6956.6748   -6930.8363   -2948.2435    20354.533   0.29437431 
     290    226.51317   -6956.1028    -6930.835   -2633.8875    20354.533   0.30220439 
     300    232.88912   -6956.8151    -6930.836   -2478.1682    20354.533   0.30835486 
     310    239.65399   -6957.5709   -6930.8371   -2317.7128    20354.533   0.31386348 
     320    236.98534   -6957.2718   -6930.8357   -2020.1819    20354.533   0.31985126 
     330    235.73864   -6957.1329   -6930.8359   -1957.4113    20354.533   0.32664959 
     340    236.09186   -6957.1723   -6930.8359   -2003.6376    20354.533   0.33435107 
     350    237.19352   -6957.2955   -6930.8363   -2145.8328    20354.533   0.34289663 
     360     235.6501   -6957.1226   -6930.8355   -2186.0282    20354.533   0.35153924 
     370      237.245   -6957.3009   -6930.8359   -2246.4379    20354.533   0.35886165 
     380     239.0727   -6957.5047   -6930.8358   -2396.5837    20354.533   0.36451066 
     390    241.64207   -6957.7913   -6930.8358   -2701.0958    20354.533   0.36907283 
     400    244.68963   -6958.1321   -6930.8366    -3058.184    20354.533   0.37340775 
     410    240.84575   -6957.7024   -6930.8357   -3233.9135    20354.533   0.37836011 
     420    237.91038    -6957.375   -6930.8357   -3296.1667    20354.533    0.3837999 
     430    237.53548   -6957.3335    -6930.836     -3297.92    20354.533   0.38923076 
     440    236.65311   -6957.2351   -6930.8361   -3132.9159    20354.533   0.39408345 
     450    236.54722   -6957.2227   -6930.8355   -2838.3736    20354.533   0.39819744 
     460    240.22636   -6957.6339   -6930.8363   -2750.9298    20354.533   0.40204023 
     470    240.52465   -6957.6669    -6930.836   -2995.4918    20354.533   0.40599969 
     480    237.66852   -6957.3482   -6930.8359   -3342.9489    20354.533   0.40967234 
     490     233.8587   -6956.9231   -6930.8358   -3484.3142    20354.533   0.41268728 
     500    232.08796   -6956.7258   -6930.8361   -3205.4816    20354.533   0.41521326 
     510    230.70203   -6956.5715   -6930.8364   -2716.5526    20354.533   0.41731564 
     520    228.05602   -6956.2759   -6930.8359   -2363.5724    20354.533   0.41870774 
     530    227.97164    -6956.267   -6930.8365   -2215.6832    20354.533   0.41939371 
     540    224.82248   -6955.9152   -6930.8359   -2142.5726    20354.533   0.41965215 
     550    224.12424   -6955.8368   -6930.8354   -2230.4398    20354.533   0.41896539 
     560    230.14975   -6956.5094   -6930.8358   -2549.6413    20354.533   0.41694428 
     570    236.18881   -6957.1833   -6930.8361   -2919.3179    20354.533   0.41431605 
     580    239.11248   -6957.5092   -6930.8358   -3311.7801    20354.533   0.41218239 
     590    240.41038    -6957.654   -6930.8359   -3417.9605    20354.533   0.41128732 
     600     241.9108   -6957.8213   -6930.8358   -3319.9933    20354.533   0.41181297 
     610    244.71998   -6958.1355   -6930.8366   -3218.6172    20354.533   0.41378595 
     620     241.0794   -6957.7291   -6930.8363   -3147.9995    20354.533   0.41727735 
     630    235.50013   -6957.1059   -6930.8355   -3135.0665    20354.533   0.42154918 
     640    235.11112   -6957.0634   -6930.8364   -3257.6948    20354.533   0.42544554 
     650    231.17765   -6956.6238   -6930.8356   -3363.2824    20354.533   0.42831027 
     660    230.96587      -6956.6   -6930.8354    -3278.616    20354.533   0.42962018 
     670    236.71051   -6957.2418   -6930.8364   -3057.6575    20354.533   0.43008462 
     680    237.89077   -6957.3735   -6930.8365   -2729.6334    20354.533   0.43147958 
     690    233.77068   -6956.9134    -6930.836   -2455.8007    20354.533   0.43467882 
     700    232.73214   -6956.7972   -6930.8356   -2458.1317    20354.533   0.43896836 
     710     238.6713   -6957.4612    -6930.837     -2772.14    20354.533   0.44306523 
     720    238.40713   -6957.4307    -6930.836    -2807.083    20354.533   0.44626276 
     730     240.4682   -6957.6606    -6930.836   -2649.5036    20354.533   0.44805059 
     740    245.36669   -6958.2082   -6930.8372   -2598.8991    20354.533   0.44927166 
     750    241.62154   -6957.7892    -6930.836   -2531.0184    20354.533   0.45180545 
     760    240.83361   -6957.7015   -6930.8361   -2663.8574    20354.533   0.45609454 
     770    242.81641   -6957.9232   -6930.8366   -2904.7405    20354.533   0.46149917 
     780    240.55873   -6957.6716   -6930.8369   -3011.4883    20354.533   0.46731331 
     790    234.48344    -6956.992    -6930.835   -2984.9723    20354.533   0.47270083 
     800    241.36903   -6957.7616   -6930.8365   -3043.6074    20354.533   0.47702973 
     810    248.02611   -6958.5044   -6930.8367   -3212.7271    20354.533   0.48113406 
     820    247.07524   -6958.3983   -6930.8367   -3298.0857    20354.533   0.48604281 
     830    241.62282   -6957.7892   -6930.8358   -3451.0521    20354.533   0.49200069 
     840    241.09937   -6957.7309   -6930.8359   -3767.5583    20354.533    0.4980224 
     850    243.86884   -6958.0407   -6930.8367   -3969.0277    20354.533   0.50315689 
     860    240.67295   -6957.6839   -6930.8364   -3878.9651    20354.533   0.50749313 
     870    234.88256   -6957.0377   -6930.8362   -3705.4216    20354.533   0.51123394 
     880     230.9712   -6956.6008   -6930.8356   -3732.8653    20354.533   0.51418617 
     890    234.71187   -6957.0191   -6930.8366   -3903.3458    20354.533   0.51649556 
     900    236.69755   -6957.2408   -6930.8368   -4096.5729    20354.533   0.51925856 
     910    234.14135   -6956.9543   -6930.8355   -4214.9524    20354.533   0.52270274 
     920     239.2214   -6957.5215    -6930.836    -4371.806    20354.533    0.5260843 
     930    246.23434   -6958.3046   -6930.8368   -4388.3174    20354.533   0.52947161 
     940    244.93011   -6958.1585   -6930.8361    -4140.633    20354.533    0.5331014 
     950    244.54566   -6958.1146   -6930.8351   -3874.4856    20354.533   0.53608506 
     960     253.5944   -6959.1267   -6930.8378   -3771.8165    20354.533   0.53803089 
     970     248.3829   -6958.5442   -6930.8367   -3524.3442    20354.533   0.53986141 
     980    238.35135   -6957.4243   -6930.8358   -3260.4338    20354.533   0.54101785 
     990    236.50322   -6957.2181   -6930.8358   -3175.8957    20354.533   0.54134372 
    1000    241.19481   -6957.7423   -6930.8367   -3304.4267    20354.533   0.54225539 
    1010    241.95562   -6957.8272   -6930.8367   -3391.2596    20354.533   0.54502288 
    1020    240.16869   -6957.6269   -6930.8357   -3447.0496    20354.533   0.54930268 
    1030    245.53617   -6958.2267   -6930.8368   -3456.4918    20354.533   0.55419445 
    1040    247.77076    -6958.476   -6930.8368   -3298.5887    20354.533   0.55950896 
    1050     244.2442   -6958.0816   -6930.8358   -3136.4369    20354.533   0.56417367 
    1060    244.98518   -6958.1647   -6930.8363    -3248.508    20354.533   0.56688242 
    1070    245.91228   -6958.2687   -6930.8368   -3519.1406    20354.533   0.56812185 
    1080    243.86214    -6958.039   -6930.8358   -3692.2455    20354.533   0.56934968 
    1090    246.84293   -6958.3726   -6930.8369   -3906.5524    20354.533   0.57178329 
    1100      244.881   -6958.1533   -6930.8365   -4089.2355    20354.533   0.57651628 
    1110    240.43499   -6957.6569    -6930.836   -4077.0823    20354.533    0.5832495 
    1120    237.92872   -6957.3775   -6930.8362   -4003.4461    20354.533   0.59023617 
    1130    236.51172   -6957.2189   -6930.8357   -4042.4172    20354.533   0.59550452 
    1140    238.96444   -6957.4936   -6930.8368   -4040.0227    20354.533   0.59831056 
    1150    235.78148   -6957.1379   -6930.8361   -3879.2914    20354.533   0.59921996 
    1160    234.20341   -6956.9615   -6930.8358   -3837.8249    20354.533    0.5985221 
    1170    240.41902   -6957.6544   -6930.8353    -3935.141    20354.533   0.59722217 
    1180    255.54411   -6959.3435   -6930.8372     -4092.55    20354.533   0.59743217 
    1190    258.99242   -6959.7285   -6930.8375   -4046.2257    20354.533    0.6011544 
    1200    248.88394   -6958.5986   -6930.8352   -3714.2841    20354.533   0.60762836 
    1210    248.47025   -6958.5542    -6930.837   -3470.6197    20354.533   0.61448368 
    1220    244.95446   -6958.1613   -6930.8363   -3177.7538    20354.533   0.62050251 
    1230     241.8534   -6957.8153   -6930.8362   -3046.6572    20354.533   0.62473384 
    1240    239.93171   -6957.6017    -6930.837   -2953.8402    20354.533   0.62763822 
    1250    233.26136   -6956.8559   -6930.8352   -2777.3686    20354.533   0.63038166 
    1260    237.93988   -6957.3787   -6930.8361   -2775.1391    20354.533    0.6330371 
    1270    246.35675   -6958.3182   -6930.8368   -2888.4422    20354.533   0.63643977 
    1280    248.45813   -6958.5525   -6930.8366   -2920.0425    20354.533   0.64183599 
    1290    245.47675   -6958.2198   -6930.8365   -2685.1116    20354.533   0.64908358 
    1300    241.63357   -6957.7906    -6930.836   -2354.7632    20354.533   0.65669456 
    1310    242.43427   -6957.8804   -6930.8365   -2080.8148    20354.533   0.66291632 
    1320    245.28186   -6958.1979   -6930.8364   -1915.3295    20354.533    0.6669735 
    1330    248.60459   -6958.5691   -6930.8369   -2012.6907    20354.533   0.66938419 
    1340    247.35187   -6958.4291   -6930.8367   -2148.5782    20354.533   0.67162517 
    1350    244.12194   -6958.0683   -6930.8361   -1975.6824    20354.533   0.67460298 
    1360    246.17117   -6958.2975   -6930.8367   -1695.7314    20354.533   0.67795806 
    1370    247.81913   -6958.4815   -6930.8369   -1406.6961    20354.533   0.68155459 
    1380    246.54204   -6958.3387   -6930.8366   -1365.9532    20354.533   0.68550067 
    1390    245.37096   -6958.2083   -6930.8368   -1609.7263    20354.533   0.68946972 
    1400    243.36629   -6957.9841   -6930.8362   -2040.6718    20354.533   0.69316197 
    1410    243.94371   -6958.0489   -6930.8367    -2492.182    20354.533   0.69632692 
    1420    241.91407   -6957.8222   -6930.8364   -2641.5513    20354.533   0.69908731 
    1430    240.29252    -6957.641   -6930.8361   -2738.6597    20354.533   0.70169952 
    1440    243.00906   -6957.9446   -6930.8366   -2920.7186    20354.533   0.70454594 
    1450    244.25454   -6958.0838   -6930.8369   -3048.4377    20354.533   0.70795341 
    1460    242.09952    -6957.843   -6930.8364   -2976.5792    20354.533   0.71130224 
    1470    243.45842   -6957.9943   -6930.8362   -3081.8274    20354.533    0.7132231 
    1480    250.70065   -6958.8033   -6930.8373   -3338.8349    20354.533   0.71370178 
    1490    252.18388   -6958.9685    -6930.837   -3376.1382    20354.533    0.7144344 
    1500    251.43885   -6958.8853   -6930.8369   -3315.8008    20354.533   0.71637247 
    1510    251.24938    -6958.864   -6930.8368   -3301.7557    20354.533   0.71942223 
    1520    249.70733   -6958.6922    -6930.837   -3282.0336    20354.533   0.72323431 
    1530    244.44696   -6958.1054    -6930.837   -3302.2244    20354.533   0.72763008 
    1540    236.75683   -6957.2464   -6930.8358   -3274.9713    20354.533    0.7323608 
    1550    237.57971   -6957.3389   -6930.8365   -3428.4116    20354.533   0.73683196 
    1560    241.15015   -6957.7371   -6930.8364   -3593.4236    20354.533   0.74115804 
    1570    245.97302   -6958.2754   -6930.8368   -3733.6516    20354.533   0.74547586 
    1580    248.38573   -6958.5448    -6930.837   -3697.1233    20354.533   0.74963233 
    1590    246.86432   -6958.3746   -6930.8366   -3466.8015    20354.533   0.75351214 
    1600     247.7118   -6958.4687    -6930.836   -3388.9239    20354.533   0.75677589 
    1610    253.82537   -6959.1519   -6930.8373    -3531.034    20354.533   0.75955216 
    1620    251.92871   -6958.9401   -6930.8371   -3648.0728    20354.533   0.76294914 
    1630    244.66821   -6958.1291    -6930.836   -3657.5504    20354.533   0.76703359 
    1640    244.28177   -6958.0866   -6930.8366   -3671.0399    20354.533   0.77099433 
    1650    244.83575   -6958.1483   -6930.8365   -3788.3144    20354.533   0.77508445 
    1660    246.40424   -6958.3232   -6930.8364    -3813.853    20354.533   0.77989624 
    1670     250.2724    -6958.755   -6930.8367   -3565.9239    20354.533   0.78529205 
    1680    252.16532   -6958.9666   -6930.8372   -3320.4462    20354.533   0.79034429 
    1690    248.06278   -6958.5083   -6930.8366    -3241.467    20354.533   0.79410211 
    1700    246.18953   -6958.2989   -6930.8361   -3435.3007    20354.533   0.79613512 
    1710    251.37963   -6958.8788   -6930.8371   -3765.1983    20354.533   0.79697816 
    1720    252.49637   -6959.0036   -6930.8373   -4015.6546    20354.533   0.79809077 
    1730    246.19105   -6958.2991   -6930.8361   -4012.8085    20354.533   0.80001418 
    1740    244.72061   -6958.1349   -6930.8359   -3836.2711    20354.533   0.80174398 
    1750    250.77886   -6958.8116   -6930.8368   -3664.5304    20354.533   0.80300604 
    1760    253.23106   -6959.0851   -6930.8368   -3574.9487    20354.533   0.80474848 
    1770     250.9182   -6958.8268   -6930.8365   -3643.0638    20354.533   0.80759401 
    1780    248.19059    -6958.522   -6930.8359    -3925.933    20354.533   0.81194222 
    1790    251.50586   -6958.8923   -6930.8365   -4358.7518    20354.533   0.81788965 
    1800    254.74644   -6959.2547   -6930.8373   -4555.0094    20354.533   0.82537267 
    1810    250.83969   -6958.8178   -6930.8362   -4276.5786    20354.533   0.83331392 
    1820     251.8855   -6958.9345   -6930.8362   -4012.9598    20354.533   0.83972246 
    1830      255.594   -6959.3496   -6930.8377   -3901.3718    20354.533   0.84445553 
    1840    246.70995   -6958.3569   -6930.8361   -3626.6691    20354.533   0.84851616 
    1850    241.86654   -6957.8157   -6930.8351   -3456.7016    20354.533   0.85180041 
    1860    250.43531   -6958.7737   -6930.8372    -3514.864    20354.533    0.8548436 
    1870    251.67809   -6958.9117   -6930.8366    -3317.435    20354.533   0.85904271 
    1880    249.74232   -6958.6953   -6930.8361   -2814.4162    20354.533   0.86408884 
    1890    251.03758   -6958.8407    -6930.837   -2598.2462    20354.533   0.86903478 
    1900    247.47063   -6958.4421   -6930.8364   -2762.2368    20354.533   0.87371783 
    1910    246.41436   -6958.3238   -6930.8359   -3170.3298    20354.533   0.87809892 
    1920    252.32808   -6958.9847   -6930.8371   -3481.0709    20354.533    0.8826292 
    1930    251.70282   -6958.9148    -6930.837   -3522.0143    20354.533   0.88826081 
    1940    246.41342   -6958.3234   -6930.8356   -3409.4835    20354.533   0.89502972 
    1950     251.5574   -6958.8983   -6930.8367   -3383.3627    20354.533   0.90192896 
    1960    256.70331    -6959.473   -6930.8374   -3284.7665    20354.533   0.90797257 
    1970    251.99325   -6958.9465   -6930.8363   -3170.8424    20354.533   0.91214044 
    1980    249.36931   -6958.6536    -6930.836    -3268.664    20354.533   0.91382089 
    1990    253.19383   -6959.0808   -6930.8367   -3484.4565    20354.533   0.91429439 
    2000    255.75062   -6959.3664    -6930.837   -3645.8324    20354.533   0.91593526 
Loop time of 1486.66 on 16 procs for 2000 steps with 864 atoms

Performance: 0.116 ns/day, 206.481 hours/ns, 1.345 timesteps/s
97.5% CPU use with 16 MPI tasks x 1 OpenMP threads

MPI task timing breakdown:
Section |  min time  |  avg time  |  max time  |%varavg| %total
---------------------------------------------------------------
Pair    | 660.39     | 1196.5     | 1479.2     | 606.9 | 80.48
Bond    | 0.00018024 | 0.00055443 | 0.0010514  |   0.0 |  0.00
Neigh   | 0.017958   | 0.027876   | 0.036345   |   3.5 |  0.00
Comm    | 7.236      | 271.53     | 780.83     |1225.9 | 18.26
Output  | 0.12146    | 9.3801     | 22.883     | 288.1 |  0.63
Modify  | 0.008991   | 0.010807   | 0.013146   |   1.2 |  0.00
Other   |            | 9.247      |            |       |  0.62

Nlocal:        54.0000 ave          71 max          39 min
Histogram: 3 2 1 1 0 4 1 0 3 1
Nghost:        497.125 ave         591 max         387 min
Histogram: 1 2 1 1 1 3 2 1 2 2
Neighs:         0.00000 ave           0 max           0 min
Histogram: 16 0 0 0 0 0 0 0 0 0
FullNghs:      2382.00 ave        3956 max        1259 min
Histogram: 3 2 2 0 2 3 1 1 1 1

Total # of neighbors = 38112
Ave neighs/atom = 44.111111
Ave special neighs/atom = 0.0000000
Neighbor list builds = 199
Dangerous builds = 198
Setting up Verlet run ...
  Unit style    : metal
  Current step  : 2000
  Time step     : 0.001
Per MPI rank memory allocation (min/avg/max) = 8.897 | 8.905 | 8.914 Mbytes
Step Temp PotEng TotEng Press Volume c_msd[4] 
    2000       1087.5   -6959.3664   -6838.0541    1223.0118    20354.533   0.91593526 
    2010     946.8387   -6943.6322    -6838.011    4034.5466    20355.373   0.93274467 
    2020    739.27844   -6920.2184   -6837.7508    7795.8726    20360.156   0.96340441 
    2030    672.32688   -6912.1212   -6837.1221    8534.1777    20372.154   0.98974425 
    2040    645.73494   -6908.0836   -6836.0509     7881.944    20392.258    1.0107812 
    2050     621.3269   -6904.0662   -6834.7563    7041.6656    20419.975    1.0309626 
    2060    613.97949   -6902.0284   -6833.5381    6095.2491    20454.529    1.0516013 
    2070    653.22926   -6905.3058   -6832.4371    5237.3704    20495.049    1.0731733 
    2080    668.00452   -6905.8287   -6831.3118    5061.2648    20540.776      1.09841 
    2090    650.48715   -6902.6805   -6830.1177    4907.7483    20591.455    1.1262347 
    2100    663.25131   -6902.7606   -6828.7739    3709.7936    20646.783    1.1523741 
    2110    683.51527    -6903.457   -6827.2098    2174.9015    20705.571    1.1763309 
    2120    675.79434   -6900.9056   -6825.5197    1040.8594    20766.262    1.1995932 
    2130    678.75475   -6899.4809   -6823.7648    11.447152     20827.56     1.222771 
    2140    684.05375   -6898.2369   -6821.9297   -572.83614    20888.329     1.247741 
    2150    673.20392   -6895.1578   -6820.0609   -735.46684    20947.839    1.2752152 
    2160    671.15642   -6893.0408   -6818.1723   -822.10908    21005.777    1.3033087 
    2170    687.54545   -6892.9188   -6816.2221    -905.4009    21061.959    1.3312222 
    2180    709.98217   -6893.3926    -6814.193    -854.1335    21116.223    1.3607708 
    2190    726.12938   -6893.1174   -6812.1166   -665.04374    21168.553    1.3933641 
    2200    738.63852   -6892.3981   -6810.0019   -624.59918    21219.048    1.4284389 
    2210    732.45205   -6889.5906   -6807.8845   -597.14103    21267.731    1.4639627 
    2220    736.27739   -6887.8868    -6805.754   -1114.1284    21314.538    1.4966158 
    2230    750.53866   -6887.2899   -6803.5661    -1791.182    21358.963    1.5257394 
    2240    772.82119    -6887.522   -6801.3126   -2504.3392    21400.304    1.5530151 
    2250    792.74495   -6887.4281   -6798.9963   -3038.4556    21437.866    1.5795264 
    2260    796.48204   -6885.5125   -6796.6637   -2920.4152      21471.2    1.6063916 
    2270    800.30689   -6883.6197   -6794.3442   -2026.8483     21500.55    1.6340467 
    2280    794.61988   -6880.6809   -6792.0398   -899.70002     21526.91    1.6633789 
    2290    789.16588    -6877.799   -6789.7664   -355.05221    21551.464    1.6928803 
    2300     795.2215   -6876.1879   -6787.4797   -674.46695    21574.815    1.7185408 
    2310    809.09976   -6875.4044   -6785.1481   -1487.8824    21596.691    1.7402289 
    2320    812.96783   -6873.4716   -6782.7838   -2130.3209    21616.338    1.7593756 
    2330    814.06344    -6871.239    -6780.429   -2439.4181    21633.146    1.7756422 
    2340    829.82922   -6870.6272   -6778.0585   -2479.3525    21646.881    1.7903791 
    2350    861.11652   -6871.7001   -6775.6413   -2717.7994    21657.532    1.8067367 
    2360    858.50208   -6868.9764   -6773.2092    -2686.686    21664.996    1.8257956 
    2370    867.74243   -6867.6049   -6770.8069   -2617.2144    21669.371    1.8431145 
    2380     885.7098   -6867.1893    -6768.387   -2518.6582    21670.822    1.8577675 
    2390    883.29074   -6864.5098   -6765.9774   -1772.6343    21669.617    1.8741039 
    2400     894.9844    -6863.432   -6763.5951   -1207.1637    21666.526    1.8944042 
    2410    911.83408    -6862.901   -6761.1845   -781.06116    21662.221    1.9195347 
    2420    909.24784   -6860.2151   -6758.7871   -161.35964    21657.232    1.9474666 
    2430    926.59008   -6859.7619   -6756.3994    169.92216    21652.183    1.9730377 
    2440    958.09436   -6860.8608    -6753.984    218.63548    21647.425     1.995584 
    2450    946.24085    -6857.148   -6751.5934    621.13455    21643.066    2.0197125 
    2460    947.39322   -6854.9614   -6749.2782    1121.0385    21639.494    2.0459279 
    2470    951.56551   -6853.1143   -6746.9658    1578.1485     21637.21    2.0721503 
    2480    965.70273     -6852.39   -6744.6644    1822.0179     21636.65    2.0990036 
    2490    976.29117   -6851.2718    -6742.365    1625.0693    21638.022    2.1297647 
    2500    997.71088   -6851.3828   -6740.0866    1160.5202    21641.088     2.165528 
    2510    1014.5197   -6850.9937   -6737.8225    1395.6443    21645.407    2.2048544 
    2520    1013.4265   -6848.6745   -6735.6252    2071.3476    21651.186    2.2450414 
    2530    1034.0553   -6848.8378   -6733.4874    2216.1647    21659.023    2.2834952 
    2540    1037.6782   -6847.1423   -6731.3877     2717.727     21669.16    2.3212784 
    2550    1058.6722   -6847.4584   -6729.3619    2834.9332        21682    2.3573158 
    2560    1083.8289   -6848.2923   -6727.3895    2720.4483    21697.678    2.3911315 
    2570    1084.4321   -6846.4894   -6725.5194    2433.5174    21716.034    2.4294096 
    2580    1071.5747   -6843.2989   -6723.7631    2094.2426    21736.742    2.4742786 
    2590    1095.2489   -6844.2536    -6722.077    1499.0901    21759.393    2.5214605 
    2600    1120.0996   -6845.3853   -6720.4365    902.68848    21783.353    2.5741029 
    2610    1104.6545   -6842.1394   -6718.9135    517.49521    21807.965    2.6335695 
    2620    1086.8841   -6838.7486    -6717.505    431.61605    21832.822    2.6933283 
    2630    1087.7195   -6837.4943   -6716.1576    360.74652    21857.799     2.748811 
    2640    1066.1034   -6833.7711   -6714.8457    702.85332    21882.882    2.8010847 
    2650    1058.6456   -6831.6521   -6713.5585    725.31887     21908.36    2.8536796 
    2660    1060.2261   -6830.5064   -6712.2366     452.5317    21934.276    2.9087537 
    2670    1097.1974   -6833.2862   -6710.8922    386.02706    21960.353    2.9652424 
    2680    1079.5859   -6830.0056   -6709.5762    1039.7657    21986.591    3.0235722 
    2690     1059.315   -6826.4952   -6708.3271    1546.2587    22013.647    3.0773731 
    2700    1066.2068   -6826.0101   -6707.0731    1604.4351    22042.036    3.1220983 
    2710     1071.405   -6825.3185   -6705.8016    1635.9097    22071.858    3.1633178 
    2720    1096.1292   -6826.8021   -6704.5272    1527.5045    22103.118    3.2095683 
    2730    1093.5158   -6825.2541   -6703.2707    1712.3582    22135.764    3.2642105 
    2740    1110.9745   -6826.0015   -6702.0706    1176.8876    22169.837    3.3250888 
    2750    1141.0795   -6828.2007   -6700.9116    726.38742    22204.849    3.3890796 
    2760     1154.232   -6828.6272   -6699.8709    64.312939    22240.217    3.4534136 
    2770    1168.2631   -6829.3049   -6698.9834   -266.45185    22275.257    3.5165553 
    2780    1165.8415   -6828.3365   -6698.2851   -189.66932    22309.611    3.5810838 
    2790    1145.3224   -6825.5332   -6697.7707   -368.65662    22343.275    3.6455398 
    2800    1150.0314   -6825.6933   -6697.4056   -521.66036     22376.08    3.7050663 
    2810    1151.7999   -6825.6633   -6697.1783   -501.58025    22407.879    3.7569497 
    2820    1151.4236   -6825.5484   -6697.1054     -136.265     22438.72    3.8046666 
    2830    1151.8088   -6825.6799   -6697.1939    13.816311    22468.958    3.8543307 
    2840    1143.2953    -6824.964   -6697.4277    158.23889    22498.815    3.9055894 
    2850    1121.9679   -6822.9461   -6697.7889    615.40736    22528.502    3.9569562 
    2860    1139.7752   -6825.3978   -6698.2542    395.54985     22558.45    4.0091609 
    2870    1147.7369   -6826.8633   -6698.8315    -355.3709    22588.417     4.069307 
    2880     1121.979   -6824.6789   -6699.5205   -556.08227    22617.642    4.1412136 
    2890    1104.5148   -6823.4867   -6700.2764   -587.17257    22645.852    4.2209582 
    2900      1087.34   -6822.3553   -6701.0608   -568.96683    22673.019    4.3061928 
    2910    1053.0076   -6819.2678   -6701.8032   -712.01311    22699.173    4.3851555 
    2920    1066.0765   -6821.3919   -6702.4695   -1819.6812    22724.044    4.4482837 
    2930    1074.0387   -6822.8849   -6703.0743   -2656.8794    22746.479    4.5065412 
    2940     1065.346   -6822.4845   -6703.6436   -2509.5775    22765.595    4.5669761 
    2950    1076.6955   -6824.2828   -6704.1758   -2164.0665    22781.526    4.6256737 
    2960    1088.7656   -6826.1493   -6704.6958    -2143.377    22794.659     4.682044 
    2970    1076.7716   -6825.3304   -6705.2149   -1814.1812    22805.129    4.7384757 
    2980    1070.9684   -6825.1832   -6705.7151   -1628.9453    22813.287    4.7943855 
    2990    1052.0663   -6823.5235    -6706.164   -1595.2804    22819.428    4.8467867 
    3000     1055.112   -6824.2474   -6706.5481   -2160.7911    22823.535    4.8897804 
    3010    1054.6352   -6824.5034   -6706.8572   -2745.2003    22825.004    4.9292571 
    3020    1056.3769   -6824.9505     -6707.11   -2967.5159    22823.205    4.9723307 
    3030    1042.8708   -6823.6294   -6707.2956    -2508.479    22817.952    5.0171771 
    3040    1043.3771   -6823.7818   -6707.3915    -1823.726    22809.777    5.0582681 
    3050    1061.8104   -6825.8475    -6707.401   -1447.9588    22799.472    5.0925661 
    3060    1065.6712   -6826.2206   -6707.3434   -1610.0575    22787.475    5.1212225 
    3070    1060.6029   -6825.5516   -6707.2398   -2176.4504    22773.635    5.1487567 
    3080    1040.2041   -6823.1192   -6707.0829   -2884.1183    22757.303    5.1817486 
    3090    1027.1613   -6821.4204    -6706.839   -2986.3451    22737.751    5.2203495 
    3100     1036.976   -6822.1535   -6706.4773   -3109.8345    22714.817    5.2565735 
    3110     1061.174   -6824.3907   -6706.0152   -3190.2227    22688.413    5.2888799 
    3120    1087.7344   -6826.8259   -6705.4875   -3043.2172    22658.503    5.3203069 
    3130    1096.9088    -6827.303   -6704.9412    -2478.414    22625.348    5.3490157 
    3140    1100.9212   -6827.2217   -6704.4123   -2130.3197    22589.574    5.3667756 
    3150    1098.4981   -6826.4478   -6703.9087   -1627.8909    22551.692    5.3785864 
    3160    1080.8063   -6823.9828   -6703.4172   -832.14784    22512.339    5.3920508 
    3170    1077.3879   -6823.0915   -6702.9072   -317.23863    22472.422    5.4085987 
    3180    1094.7019   -6824.4899   -6702.3743    140.02998    22432.593    5.4303928 
    3190    1080.5114   -6822.3493   -6701.8166    985.07896    22393.471    5.4578507 
    3200     1101.624   -6824.1343   -6701.2465    1630.4057    22355.973    5.4875039 
    3210    1135.4746   -6827.3495   -6700.6856      2034.42    22320.792    5.5197112 
    3220    1129.8074   -6826.2407    -6700.209    2626.9978    22288.429    5.5555538 
    3230    1117.2026   -6824.4547   -6699.8291    2533.9248    22259.421    5.5923974 
    3240    1112.3483   -6823.6142   -6699.5301    2363.7913    22233.679    5.6278795 
    3250    1115.4038   -6823.7263   -6699.3014    2557.9838    22210.997    5.6655267 
    3260    1093.0852   -6821.0578   -6699.1225    3004.1702    22191.531    5.7074383 
    3270    1094.0325   -6821.0133   -6698.9723    3214.2408    22175.683    5.7541818 
    3280    1100.9944   -6821.6656    -6698.848    2951.9078    22163.597    5.8101234 
    3290    1075.8102   -6818.7519   -6698.7436    3151.8568    22155.055    5.8734812 
    3300    1086.6499   -6819.8532   -6698.6358    3076.7556    22150.132    5.9374471 
    3310    1108.1753   -6822.1545   -6698.5359    3269.0171    22148.767    6.0032771 
    3320    1111.6213   -6822.4865   -6698.4835    3897.3606    22151.156    6.0743546 
    3330     1100.629   -6821.2619   -6698.4851    4175.3518    22157.881    6.1487929 
    3340     1112.003   -6822.5808   -6698.5352    4159.9016    22169.237    6.2205154 
    3350    1128.3834   -6824.5356   -6698.6627     4109.074     22185.19    6.2903549 
    3360    1114.7813   -6823.2343   -6698.8788    4187.9179    22205.702    6.3605613 
    3370    1111.4367   -6823.1598   -6699.1773    3458.7791    22230.714     6.432093 
    3380    1090.9887   -6821.2151   -6699.5137    2593.9478     22259.45    6.5104569 
    3390     1067.151   -6818.8918   -6699.8495    2409.2048    22290.987    6.6014552 
    3400    1058.2622   -6818.2024   -6700.1517     2634.881     22325.07    6.6966681 
    3410    1065.0891   -6819.2039   -6700.3916    2144.0716    22361.816    6.7884211 
    3420    1073.8382   -6820.3604   -6700.5722    1233.0249    22400.679    6.8757835 
    3430    1057.0192     -6818.61   -6700.6979    785.63447    22440.691    6.9606074 
    3440    1047.0441   -6817.5463    -6700.747    2.3940115    22481.188    7.0441085 
    3450    1067.3712   -6819.7687   -6700.7018   -928.28781    22521.265    7.1237934 
    3460    1080.3228   -6821.0942   -6700.5826   -1484.3313    22559.878    7.1985842 
    3470    1102.2586   -6823.3997   -6700.4411   -1564.6914    22596.374    7.2686997 
    3480    1113.1335   -6824.4989   -6700.3271   -1359.3784    22630.634    7.3397841 
    3490    1115.4664   -6824.7061   -6700.2742   -1258.8813    22662.863    7.4186673 
    3500    1111.2827   -6824.2564   -6700.2911   -1139.7773    22693.196     7.504264 
    3510     1092.988     -6822.28   -6700.3555   -1120.3113    22721.763    7.5916653 
    3520    1095.3012   -6822.6233   -6700.4408   -1492.6389    22748.577    7.6813091 
    3530    1101.5289   -6823.4203   -6700.5431   -1890.8698    22773.262    7.7720073 
    3540    1079.4628     -6821.08   -6700.6643   -1831.8389    22795.407    7.8635472 
    3550    1049.5027   -6817.8328   -6700.7592   -1631.3276    22815.088    7.9536607 
    3560    1072.8199   -6820.4714   -6700.7968   -2276.6301    22832.448    8.0398328 
    3570    1090.3502   -6822.4254   -6700.7952   -2678.0515    22846.888    8.1186235 
    3580     1079.305   -6821.2021    -6700.804   -2557.6227    22857.977    8.1929999 
    3590    1050.0135   -6817.9186    -6700.788   -2255.9005     22865.88    8.2626578 
    3600    1055.4577   -6818.4509    -6700.713   -2069.8517    22870.976    8.3238108 
    3610    1061.8622   -6819.0247   -6700.5723   -1911.5992    22873.531    8.3806447 
    3620    1069.1887   -6819.6484   -6700.3788   -1472.1443    22873.805    8.4349268 
    3630    1072.4244   -6819.7712   -6700.1407   -1066.8036    22872.323    8.4853341 
    3640    1063.4216   -6818.4807   -6699.8544   -887.30746    22869.574    8.5420556 
    3650    1064.0261   -6818.2228   -6699.5291   -776.47326    22865.783     8.609526 
    3660    1053.2086   -6816.6313   -6699.1442   -576.44797    22861.137    8.6755288 
    3670    1082.7048   -6819.4777   -6698.7004     -1118.17    22855.772    8.7241597 
    3680    1098.5532   -6820.7721   -6698.2269   -1271.9495    22849.182    8.7601784 
    3690    1060.4487   -6816.0512   -6697.7566   -706.27312     22841.24     8.797325 
    3700    1087.3369   -6818.5596   -6697.2655   -792.24087    22832.453    8.8370201 
    3710    1118.0654   -6821.4743   -6696.7525   -861.40607    22822.838    8.8747104 
    3720    1121.8589   -6821.4438   -6696.2988   -833.69395    22812.314    8.9067638 
    3730    1103.6654   -6819.0365    -6695.921   -813.11851    22800.905    8.9347848 
    3740    1108.4038   -6819.2376   -6695.5935   -1130.4555    22788.608    8.9609327 
    3750    1103.1205   -6818.3595   -6695.3048   -1114.3104    22775.125    8.9902112 
    3760    1086.5987   -6816.2633   -6695.0516   -551.82236    22760.509    9.0221205 
    3770    1087.9887   -6816.1704   -6694.8036   -398.28069    22745.343    9.0571552 
    3780     1097.033   -6816.9352   -6694.5595   -299.99346    22729.876    9.1005294 
    3790       1110.5   -6818.2146   -6694.3367    49.422088    22714.253    9.1545078 
    3800     1120.745   -6819.1758    -6694.155    205.67548    22698.824    9.2188744 
    3810    1127.9991   -6819.8747   -6694.0447    130.51204    22683.764    9.2919374 
    3820    1097.4302   -6816.4156   -6693.9956    257.56031    22669.045    9.3679646 
    3830     1087.613    -6815.303   -6693.9781    497.04812    22654.786    9.4329383 
    3840    1089.8166   -6815.5194   -6693.9487    988.42947    22641.284     9.479497 
    3850    1111.7019   -6817.9474   -6693.9354     1325.653    22629.053    9.5161937 
    3860    1112.1141   -6818.0187   -6693.9607    1672.0842    22618.524    9.5548522 
    3870    1117.4742    -6818.718   -6694.0621    1441.9374    22609.983    9.5958141 
    3880    1106.0511   -6817.6096   -6694.2279      1505.36    22603.265     9.639396 
    3890    1107.6658    -6818.006   -6694.4443    1161.4972    22598.327    9.6923412 
    3900    1104.9731   -6817.9736   -6694.7122    614.97078    22594.768    9.7544484 
    3910    1082.6245   -6815.7724    -6695.004    356.20576    22592.001    9.8161261 
    3920    1083.2584   -6816.1479   -6695.3088   -73.945713    22589.643    9.8681286 
    3930    1075.1741   -6815.5379   -6695.6006   -94.128025    22587.272    9.9083138 
    3940    1059.4696   -6814.0454     -6695.86    72.904225    22584.833    9.9428389 
    3950    1057.6034   -6814.0435   -6696.0662    159.07797    22582.481    9.9799258 
    3960    1052.4964   -6813.6062   -6696.1987    236.50142    22580.349    10.027484 
    3970    1052.6246   -6813.6857   -6696.2639   -204.17414    22578.448    10.089631 
    3980    1053.2741   -6813.7472   -6696.2529   -866.33734    22576.298    10.156559 
    3990    1057.6979   -6814.1645   -6696.1767   -1135.7896    22573.198    10.212382 
    4000    1055.2855    -6813.748   -6696.0293   -947.66419     22568.84    10.256598 
    4010    1071.9609   -6815.3964   -6695.8175    -772.1176    22563.393    10.295632 
    4020    1078.3297   -6815.8506   -6695.5613   -718.47585    22557.042     10.33371 
    4030     1087.459   -6816.5825   -6695.2749   -325.27073    22549.934    10.372171 
    4040    1105.7705   -6818.3444   -6694.9941    -3.099841    22542.454    10.414291 
    4050     1090.938    -6816.427   -6694.7312    755.26752    22535.067    10.470297 
    4060    1076.6479   -6814.5838   -6694.4821    1394.9958    22528.598     10.53951 
    4070    1070.1441   -6813.5828   -6694.2066    1746.8947    22523.766    10.600422 
    4080    1071.8737   -6813.4588   -6693.8897     1898.336    22520.997    10.638313 
    4090    1071.3133   -6813.0409   -6693.5343    1653.2344    22520.414     10.65678 
    4100    1088.9487    -6814.623   -6693.1491    1199.0229    22521.747    10.675118 
    4110     1085.658   -6813.8599   -6692.7531    1058.5729    22524.508    10.703332 
    4120    1096.0232   -6814.6235   -6692.3605    846.19282    22528.499     10.74368 
    4130    1115.3104   -6816.4009   -6691.9864    323.95041    22533.441    10.798827 
    4140    1098.9609   -6814.2387   -6691.6479   -123.64197    22538.787     10.85983 
    4150    1122.0662   -6816.5272    -6691.359   -1044.2468    22543.915    10.914123 
    4160    1142.5652   -6818.5848   -6691.1299   -1004.8207    22547.925    10.961094 
    4170    1146.3211   -6818.8947   -6691.0208   -303.29434    22550.831    11.003325 
    4180    1143.8995   -6818.6531   -6691.0494     126.3017    22553.348    11.041021 
    4190    1129.8207   -6817.2387   -6691.2055    373.53476    22555.995    11.078767 
    4200    1113.9643   -6815.7286   -6691.4642    612.95589    22559.089    11.126483 
    4210    1100.3604   -6814.5342   -6691.7873    717.53077    22562.889       11.186 
    4220    1089.0941   -6813.6214   -6692.1313    852.23208    22567.551    11.253181 
    4230    1098.3518   -6815.0179   -6692.4951    860.78213    22573.216    11.323088 
    4240    1101.8629   -6815.7985    -6692.884    388.63201     22579.85    11.397064 
    4250    1098.6355   -6815.8612   -6693.3067   -692.77729    22586.877    11.473458 
    4260    1086.4451   -6814.9405   -6693.7459   -1532.8466    22593.135    11.544874 
    4270    1071.1532   -6813.6729   -6694.1841   -1610.1907    22597.675     11.60151 
    4280    1046.6495   -6811.3189   -6694.5636   -909.98828    22600.418    11.645599 
    4290    1078.6032   -6815.2092   -6694.8894   -591.33703    22602.038    11.690689 
    4300    1080.7874   -6815.7483   -6695.1848   -202.70165    22602.972    11.743723 
    4310    1073.0732   -6815.1695   -6695.4665    189.83817    22603.677    11.791682 
    4320    1068.0772   -6814.8664   -6695.7207    26.640348    22604.542      11.8227 
    4330    1037.6833   -6811.6705   -6695.9153   -340.73291    22605.439    11.845384 
    4340    1034.8829   -6811.4577    -6696.015   -1254.8425    22605.891    11.868614 
    4350    1050.7026   -6813.2119   -6696.0044   -1966.0071    22604.893    11.896519 
    4360    1070.0662   -6815.2877   -6695.9202   -1869.9609    22601.657    11.933381 
    4370    1074.6597   -6815.6731   -6695.7932   -1157.6742     22596.27    11.979747 
    4380    1074.8352   -6815.5297   -6695.6303   -231.72623    22589.545    12.030144 
    4390     1100.647   -6818.2268    -6695.448   -178.57998    22582.439    12.081236 
    4400    1095.5065   -6817.4762   -6695.2708   -165.94672    22575.127    12.134369 
    4410    1089.4272   -6816.6487   -6695.1215   -2.3670472    22567.598    12.187425 
    4420    1075.9221   -6814.9845   -6694.9637    825.55394    22560.145    12.237987 
    4430    1085.5372   -6815.8793    -6694.786    927.19538    22553.548     12.28367 
    4440    1111.2815   -6818.5773   -6694.6122    209.63956    22547.926    12.326411 
    4450    1086.1456   -6815.6283   -6694.4671   -32.969784    22542.596    12.366663 
    4460    1069.9457   -6813.6809   -6694.3269   -131.35268    22537.218    12.402812 
    4470    1091.8115   -6815.9523   -6694.1591   -575.81092    22531.605    12.436198 
    4480    1103.7983    -6817.117   -6693.9867   -303.45738    22525.376    12.467481 
    4490    1102.5291   -6816.8324   -6693.8437    613.59621    22518.842    12.501809 
    4500    1096.8059   -6816.0781   -6693.7277    1139.0984    22512.959    12.547269 
    4510    1090.3931   -6815.2586   -6693.6236     860.5205    22508.289    12.603383 
    4520     1077.785   -6813.7593   -6693.5307    580.12099    22504.614    12.665355 
    4530    1093.9324   -6815.4708    -6693.441   -146.62881    22501.553    12.731943 
    4540    1084.1638    -6814.283   -6693.3429   -890.88896     22498.31    12.802324 
    4550    1091.5074   -6815.0125   -6693.2532   -1140.3179    22494.048    12.869979 
    4560     1106.996   -6816.6552   -6693.1681   -915.13408    22488.477    12.931428 
    4570    1105.5671   -6816.4404   -6693.1127   -731.75104    22481.804    12.997788 
    4580    1102.9994   -6816.1493    -6693.108   -508.48414    22474.234    13.074716 
    4590    1106.6562   -6816.5876   -6693.1384    -260.5694     22466.01    13.153218 
    4600     1111.348   -6817.1943   -6693.2217    130.52495    22457.432    13.221153 
    4610    1065.3007   -6812.1632   -6693.3273    665.74763    22448.949     13.27901 
    4620    1046.4823    -6810.122   -6693.3853    1042.6089    22441.159    13.329813 
    4630    1071.6468   -6812.9029   -6693.3591    1110.6831    22434.487    13.382293 
    4640    1076.7528   -6813.3901   -6693.2767    1108.1163    22429.067    13.452501 
    4650    1069.7753   -6812.4969   -6693.1619    1151.6529    22424.932    13.541026 
    4660    1081.8942   -6813.7165   -6693.0296    682.23709    22422.044    13.630005 
    4670    1081.7069   -6813.5428   -6692.8767    447.39214    22419.972    13.709703 
    4680    1081.5097   -6813.3419   -6692.6979    441.00853    22418.465    13.771018 
    4690    1089.6452   -6814.0692   -6692.5176     128.1397    22417.423    13.812789 
    4700    1062.1958      -6810.8   -6692.3105    482.19269    22416.623    13.850505 
    4710    1078.9962   -6812.4317    -6692.068    679.47983    22416.364    13.896062 
    4720    1088.5072   -6813.2109   -6691.7863    821.21897    22416.906    13.954404 
    4730    1099.1064   -6814.1129   -6691.5059    981.83345    22418.409    14.023859 
    4740    1103.7024   -6814.3613   -6691.2416    1199.0323    22421.079    14.104445 
    4750    1091.3475   -6812.7509   -6691.0094    1398.1934    22425.182    14.196606 
    4760    1086.2686   -6811.9656   -6690.7907    1317.0677    22430.945    14.286722 
    4770    1072.5448   -6810.1992   -6690.5552    1002.2202      22438.3    14.364224 
    4780    1063.1322   -6808.8819   -6690.2879    422.66693    22446.877    14.438992 
    4790    1073.5685   -6809.7244   -6689.9662    26.651314    22456.072    14.521575 
    4800    1080.2814   -6810.1014   -6689.5944    29.707267    22465.441    14.607895 
    4810    1086.3229   -6810.3871   -6689.2061     220.4169    22474.952    14.693018 
    4820    1082.0875   -6809.5094    -6688.801     590.0679    22484.868    14.774727 
    4830    1103.5369   -6811.4875   -6688.3863    608.79413    22495.554    14.846007 
    4840     1102.492   -6810.9608   -6687.9762     852.2069    22507.123    14.912109 
    4850    1084.7721   -6808.5992   -6687.5913    838.61002    22519.821      14.9869 
    4860    1107.4372    -6810.746   -6687.2097    84.487355    22533.602     15.06554 
    4870    1121.2137   -6811.9096   -6686.8365   -904.00389    22547.659    15.136854 
    4880    1119.9965   -6811.4635   -6686.5262   -1530.0399    22560.887    15.201426 
    4890    1104.2516    -6809.465   -6686.2841   -1610.7553    22572.538    15.259076 
    4900    1083.4235   -6806.9372   -6686.0797   -1692.4621    22582.425    15.305381 
    4910    1067.3117   -6804.9256   -6685.8654   -1667.4011    22590.456    15.339678 
    4920    1063.2909   -6804.2244   -6685.6127    -1188.617    22596.668    15.375232 
    4930    1069.9449   -6804.6435   -6685.2895   -432.02012    22601.585    15.424533 
    4940    1129.4413   -6810.9173   -6684.9265    -219.0311    22605.978    15.476506 
    4950    1154.6647   -6813.4126    -6684.608    -278.4554    22610.151    15.522308 
    4960    1160.4756   -6813.8859   -6684.4331   -299.07967    22614.084    15.560737 
    4970    1158.0431   -6813.6071   -6684.4256   -644.32867    22617.662    15.593718 
    4980    1139.9199   -6811.7428   -6684.5831   -546.73402    22620.603    15.620957 
    4990    1134.2224   -6811.4224   -6684.8982   -468.50077    22622.921    15.646197 
    5000    1106.6119   -6808.7616   -6685.3174    192.10133    22624.805    15.679111 
Loop time of 2269.37 on 16 procs for 3000 steps with 864 atoms

Performance: 0.114 ns/day, 210.127 hours/ns, 1.322 timesteps/s
97.7% CPU use with 16 MPI tasks x 1 OpenMP threads

MPI task timing breakdown:
Section |  min time  |  avg time  |  max time  |%varavg| %total
---------------------------------------------------------------
Pair    | 1516.9     | 1946.3     | 2236.9     | 469.5 | 85.76
Bond    | 0.00031638 | 0.00083132 | 0.0014954  |   0.0 |  0.00
Neigh   | 0.031012   | 0.040806   | 0.04997    |   3.3 |  0.00
Comm    | 26.836     | 263        | 650.07     |1210.0 | 11.59
Output  | 0.17627    | 0.17913    | 0.2203     |   2.5 |  0.01
Modify  | 5.3499     | 59.823     | 102.95     | 531.8 |  2.64
Other   |            | 0.01567    |            |       |  0.00

Nlocal:        54.0000 ave          66 max          40 min
Histogram: 1 1 0 3 1 5 1 0 2 2
Nghost:        469.812 ave         509 max         417 min
Histogram: 2 0 0 1 4 2 0 2 2 3
Neighs:         0.00000 ave           0 max           0 min
Histogram: 16 0 0 0 0 0 0 0 0 0
FullNghs:      2056.75 ave        2814 max        1213 min
Histogram: 1 1 3 0 3 2 1 1 1 3

Total # of neighbors = 32908
Ave neighs/atom = 38.087963
Ave special neighs/atom = 0.0000000
Neighbor list builds = 300
Dangerous builds = 300
Setting up Verlet run ...
  Unit style    : metal
  Current step  : 5000
  Time step     : 0.001
Per MPI rank memory allocation (min/avg/max) = 8.898 | 8.905 | 8.914 Mbytes
Step Temp PotEng TotEng Press Volume c_msd[4] 
    5000    1106.6119   -6808.7616   -6685.3174    192.10133    22624.805    15.679111 
    5010    1124.7145    -6810.817   -6685.3534    223.42738    22624.953    15.721906 
    5020    1110.8337   -6809.3674   -6685.4522    247.78135      22625.4    15.766749 
    5030    1133.5048   -6812.0764   -6685.6322    -530.4897    22626.041    15.797768 
    5040    1142.5455   -6813.3713   -6685.9186   -1038.0167    22626.084    15.820102 
    5050    1132.8842   -6812.7166   -6686.3417   -885.56588    22624.976    15.857567 
    5060    1131.3692   -6813.1086   -6686.9027   -958.70285    22622.778    15.918834 
    5070    1104.4084   -6810.7643   -6687.5659   -1034.1094    22619.445    15.991069 
    5080    1096.5921   -6810.6171   -6688.2906   -986.89696    22614.905    16.056307 
    5090    1097.8417   -6811.5252   -6689.0593   -516.04274    22609.244    16.105294 
    5100    1097.6299   -6812.2962   -6689.8539   -174.85786    22602.956    16.140685 
    5110    1087.4992   -6811.9699   -6690.6577   -175.89529     22596.43    16.174097 
    5120    1088.4519   -6812.8504   -6691.4319   -649.08937    22589.642    16.226313 
    5130    1090.2137   -6813.8026   -6692.1876   -628.74248    22582.125    16.301131 
    5140    1076.4581   -6812.9663   -6692.8858    227.20445    22573.942    16.380102 
    5150    1074.5889   -6813.3799   -6693.5079    787.78989    22565.977    16.455467 
    5160    1070.9317   -6813.4989   -6694.0349     1027.102    22558.889    16.519833 
    5170    1072.5885    -6814.124   -6694.4752     1176.598    22552.992    16.558249 
    5180    1079.1747   -6815.2199   -6694.8364    1354.2284    22548.473    16.570311 
    5190    1079.8175   -6815.5897   -6695.1345    1466.0896    22545.548    16.574323 
    5200    1070.6246   -6814.8018    -6695.372    1122.8539    22544.303    16.593887 
    5210    1064.3811   -6814.2767   -6695.5434     792.5473    22544.389    16.645513 
    5220    1061.5376   -6814.0536   -6695.6375    498.48004    22545.424    16.724088 
    5230    1060.8657   -6814.0218   -6695.6807     237.0239    22547.063    16.815162 
    5240    1062.1952   -6814.1791   -6695.6896    219.93442    22549.029    16.911327 
    5250    1048.4214   -6812.5982   -6695.6452    164.78323    22551.257    16.999424 
    5260    1058.6604   -6813.6363   -6695.5412   -41.038525    22553.685    17.068044 
    5270    1059.6811   -6813.5773   -6695.3683   -522.81917    22556.057     17.12325 
    5280    1053.9744   -6812.7277   -6695.1552   -419.06699    22557.901    17.181657 
    5290    1052.5045    -6812.306   -6694.8976    331.11216    22559.333    17.252842 
    5300    1052.3497   -6811.9893   -6694.5981      968.615    22561.142    17.331987 
    5310    1053.6794   -6811.7955   -6694.2559    1181.7738    22564.059    17.413853 
    5320    1066.1337   -6812.8008    -6693.872    924.92951    22568.339    17.510336 
    5330    1081.1619   -6814.0718   -6693.4665    747.37835    22573.738    17.620618 
    5340    1081.1358    -6813.674   -6693.0717    805.20592    22580.058    17.723926 
    5350    1070.3072    -6812.071   -6692.6766    677.41117     22587.31    17.812694 
    5360    1082.3509   -6813.0165   -6692.2786    437.59863    22595.357    17.881978 
    5370    1083.8495   -6812.7878   -6691.8828   -18.486623    22603.903    17.935983 
    5380    1056.2775   -6809.3221   -6691.4928   -180.74167    22612.483    17.997393 
    5390    1088.0012   -6812.4691    -6691.101   -736.91456    22620.795    18.080563 
    5400     1095.083   -6812.8732   -6690.7151   -540.82338    22628.339    18.185355 
    5410     1083.706   -6811.2587   -6690.3697   -378.15435    22635.226    18.303966 
    5420    1093.8691    -6812.076   -6690.0533   -315.53876     22641.66    18.418164 
    5430    1083.7664   -6810.6536   -6689.7579   -518.80871    22647.685    18.506958 
    5440    1072.1399   -6809.0726   -6689.4738   -930.86346    22653.064    18.563228 
    5450    1065.0369   -6807.9788   -6689.1723   -1136.5664    22657.344     18.59813 
    5460    1084.0081   -6809.7514   -6688.8287    -1104.113    22660.315    18.641566 
    5470    1112.2409   -6812.5469   -6688.4748   -1182.9186    22661.959    18.722326 
    5480    1116.5904   -6812.7368   -6688.1795   -802.31417    22662.266    18.832387 
    5490    1099.4545   -6810.6006   -6687.9548    -315.8546    22661.658    18.946625 
    5500    1096.7708   -6810.1166   -6687.7702   -398.63648    22660.615     19.05471 
    5510    1087.3681   -6808.8996    -6687.602     72.74077    22659.193    19.156645 
    5520    1123.0547   -6812.7355    -6687.457   -15.973825    22657.789    19.244817 
    5530    1141.6169   -6814.7263   -6687.3772    81.526562    22656.413    19.324278 
    5540    1134.7957   -6814.0119   -6687.4238    255.14353    22655.158    19.408343 
    5550    1110.5178   -6811.4455   -6687.5655    39.168228     22654.19     19.49267 
    5560    1100.3291   -6810.5152   -6687.7718   -355.28634    22653.252    19.562979 
    5570    1096.7441   -6810.3612   -6688.0178    -632.8164    22651.913    19.620618 
    5580     1085.128   -6809.3426   -6688.2949   -424.65978    22649.892    19.675378 
    5590    1086.9895   -6809.8484   -6688.5931   -90.806405    22647.387       19.728 
    5600    1125.4714   -6814.4983   -6688.9503   -67.575689    22644.752    19.775148 
    5610    1126.7561   -6815.1253    -6689.434     156.6863    22642.077    19.810146 
    5620     1106.208   -6813.4796   -6690.0805    494.15275    22639.605    19.838043 
    5630    1086.4748   -6812.0626   -6690.8647    415.80703    22637.684    19.867616 
    5640    1081.8862   -6812.4736   -6691.7875   -549.70725     22636.17    19.893376 
    5650    1066.0373   -6811.7569   -6692.8388   -1319.4645    22634.042    19.912639 
    5660    1051.7504   -6811.2912   -6693.9669   -1529.2978    22630.419    19.925966 
    5670    1055.1113   -6812.8319   -6695.1326   -1554.9877    22625.015    19.934776 
    5680    1056.2208   -6814.1162   -6696.2932   -1054.1063    22617.844    19.945775 
    5690    1073.2026   -6817.1073     -6697.39   -520.96553    22609.455    19.968847 
    5700    1100.6729   -6821.2311   -6698.4494   -352.10582    22600.418    20.008445 
    5710     1070.707    -6818.851    -6699.412   -39.443308    22590.985    20.056933 
    5720    1072.8756   -6819.8894   -6700.2085   -396.22804    22581.438    20.101317 
    5730    1110.2044   -6824.7258   -6700.8808   -1293.7384    22571.356    20.141162 
    5740    1097.6616    -6823.913   -6701.4672   -1272.4012    22559.875    20.171583 
    5750    1083.0347   -6822.7739   -6701.9598   -1066.1949    22546.913    20.188892 
    5760    1073.9441     -6822.14   -6702.3399   -670.98746    22532.723    20.200703 
    5770    1066.5641   -6821.5963   -6702.6195    42.269393    22517.785    20.211285 
    5780    1051.4298   -6820.0726    -6702.784    606.34039     22502.88     20.22527 
    5790    1061.9303   -6821.3173   -6702.8574    337.63957    22488.583    20.257623 
    5800    1049.4136   -6819.9152   -6702.8516     283.3375    22474.722    20.308164 
    5810     1052.217   -6820.1521   -6702.7758    67.931875    22461.169    20.363464 
    5820    1053.4112   -6820.1396     -6702.63    54.947955    22447.718     20.41705 
    5830    1054.8988   -6820.1013   -6702.4258    451.54113    22434.366     20.46329 
    5840    1053.7262   -6819.6948   -6702.1501    1011.7467    22421.539    20.502551 
    5850     1064.542   -6820.5732   -6701.8219    1664.8137    22409.893    20.532773 
    5860     1052.497   -6818.8514   -6701.4438    2417.5767    22400.185    20.552544 
    5870    1063.3106   -6819.6354   -6701.0215    2642.8986     22393.21    20.563737 
    5880     1090.832   -6822.2314   -6700.5475    2555.7539    22389.252     20.57391 
    5890    1077.7356   -6820.3011   -6700.0781    2947.2761    22388.326    20.593786 
    5900    1084.6982   -6820.6215   -6699.6218    2711.3996    22390.765    20.635741 
    5910    1095.8748   -6821.4119   -6699.1654    1994.2504    22396.291    20.701134 
    5920    1059.9428   -6816.9619   -6698.7237    2324.0152     22404.29    20.776049 
    5930    1043.9333   -6814.7082   -6698.2559    2320.7071    22414.976     20.83978 
    5940    1067.4823   -6816.7974   -6697.7181    1977.8987    22428.374    20.881177 
    5950    1060.2707   -6815.3949   -6697.1201    2017.6417    22444.194    20.914407 
    5960    1067.2018   -6815.5548   -6696.5069    2166.1634    22462.458    20.959398 
    5970    1063.6609   -6814.5191   -6695.8661    2370.4985    22483.371    21.028211 
    5980    1072.9584   -6814.9116   -6695.2215    2234.9679    22507.132    21.127235 
    5990    1074.4737   -6814.4366   -6694.5774    2044.3755    22533.649     21.24612 
    6000    1071.2346   -6813.4501   -6693.9522    1522.2158    22562.689     21.36293 
    6010    1080.8221   -6813.9024   -6693.3351    389.71744    22593.608    21.461948 
    6020     1103.583   -6815.8476   -6692.7413   -656.60453     22625.15    21.545709 
    6030     1107.091   -6815.7086   -6692.2109   -916.89502    22656.142    21.631538 
    6040    1091.2072   -6813.4944   -6691.7686   -763.98205    22686.202     21.72355 
    6050    1095.4045    -6813.585    -6691.391   -646.94618    22715.445    21.810663 
    6060    1107.2561   -6814.5707   -6691.0546   -397.31493    22744.022    21.883312 
    6070    1126.2935   -6816.4381   -6690.7983   -154.88113    22772.193    21.934153 
    6080    1103.0279   -6813.6842   -6690.6398     117.6757    22800.239    21.979306 
    6090    1091.3058   -6812.2885   -6690.5517   -488.87916    22828.347    22.046601 
    6100    1086.7808   -6811.6844   -6690.4523   -1622.1623    22855.833    22.143297 
    6110    1069.0388   -6809.5882   -6690.3353   -2122.4986    22881.454    22.264186 
    6120    1073.6754   -6809.9733   -6690.2032   -2561.1813    22904.484    22.400692 
    6130    1058.0978   -6808.0606   -6690.0282   -2484.3513    22924.467     22.53079 
    6140    1061.2695   -6808.2027   -6689.8165   -2904.5133    22941.347    22.628792 
    6150    1078.2822   -6809.8357   -6689.5517   -3830.0052    22954.613    22.690928 
    6160    1080.2365   -6809.7621   -6689.2601   -4121.6256     22963.25    22.731314 
    6170    1073.2453   -6808.6869   -6688.9648   -3574.4923    22966.922    22.758577 
    6180    1060.4124   -6806.9291   -6688.6385     -2419.53    22966.334    22.772829 
    6190    1115.3814   -6812.7172   -6688.2947   -2258.0875    22962.697    22.780904 
    6200    1132.2325   -6814.3079   -6688.0057   -2328.4545    22956.317    22.801596 
    6210    1100.3501   -6810.5669   -6687.8212   -1855.8728    22947.218    22.836972 
    6220    1095.4173    -6809.884   -6687.6886   -1492.8111     22935.89    22.866596 
    6230    1097.6778   -6810.0197   -6687.5721   -916.62599    22922.853    22.874144 
    6240     1088.321   -6808.8749   -6687.4711   -627.49416    22908.736    22.860081 
    6250    1065.2241   -6806.1813   -6687.3539   -370.44533    22893.959    22.840984 
    6260    1077.4311   -6807.3892   -6687.2002   -734.04046    22878.752    22.827907 
    6270    1093.5269   -6809.0042   -6687.0196   -835.94593      22862.8    22.827496 
    6280     1096.068      -6809.1   -6686.8319   -452.33503    22845.994    22.839167 
    6290    1118.6259   -6811.4455   -6686.6611    -507.1002     22828.69      22.8655 
    6300    1115.1076   -6810.9246   -6686.5326   -425.61687    22810.911    22.910861 
    6310    1118.9114   -6811.2777   -6686.4614   -127.72751    22792.749    22.962647 
    6320    1107.1825   -6809.9439    -6686.436    681.85916    22774.632    23.003881 
    6330    1103.3283   -6809.5441   -6686.4662    1232.3155    22757.426    23.021425 
    6340    1090.5426     -6808.19   -6686.5383    1732.8747    22741.824    23.015395 
    6350    1089.4881   -6808.1861   -6686.6521    1589.7559    22728.332    22.995585 
    6360    1083.7381   -6807.7018   -6686.8092    1150.2147    22716.796    22.976439 
    6370    1073.2124   -6806.7235    -6687.005    785.73376    22706.719    22.970101 
    6380    1074.3684   -6807.0671   -6687.2197    304.16666    22697.642    22.977907 
    6390    1093.0598   -6809.3971   -6687.4646   -148.08625    22688.993    22.989918 
    6400    1091.7862   -6809.5516   -6687.7612    -21.22465    22680.307    22.995284 
    6410    1086.8256   -6809.3521   -6688.1151    52.958923    22671.654    22.982849 
    6420    1080.1836   -6808.9979   -6688.5018    116.71756    22663.127    22.958089 
    6430    1063.5338   -6807.5264   -6688.8876     470.6151     22654.85    22.932493 
    6440    1065.5628   -6808.1119   -6689.2468    450.71529    22647.151    22.908037 
    6450    1090.9387   -6811.2851   -6689.5892    209.96003    22640.029     22.89547 
    6460    1099.5055   -6812.6066   -6689.9551    -213.8795    22633.195    22.905184 
    6470     1071.135   -6809.8451   -6690.3584    269.64465    22626.282    22.940002 
    6480    1048.5078   -6807.6806    -6690.718    1022.4536    22619.789    22.993161 
    6490    1096.3219   -6813.3386   -6691.0423    841.41151    22614.461    23.050726 
    6500    1104.2525   -6814.5689   -6691.3878    441.82977    22610.137    23.100527 
    6510     1083.228   -6812.6115   -6691.7758    536.13979     22606.45     23.12517 
    6520    1087.9551   -6813.5348   -6692.1718    100.40566    22603.368    23.128019 
    6530    1121.6447   -6817.7238   -6692.6026   -563.42567     22600.41    23.133588 
    6540    1117.9876   -6817.8229   -6693.1097    -268.9006     22596.95    23.157866 
    6550    1099.5248   -6816.3334   -6693.6798    9.3798753    22593.196    23.198969 
    6560    1099.2073   -6816.9039   -6694.2857   -215.68369    22589.434    23.238667 
    6570    1094.3732   -6817.0172   -6694.9383   -329.89936     22585.46    23.271525 
    6580    1072.2891   -6815.1826   -6695.5671   -16.955846    22581.213    23.301721 
    6590    1068.2248   -6815.3291   -6696.1671    182.71356    22576.953    23.331322 
    6600    1058.9024   -6814.8232   -6696.7011    464.45907    22572.948    23.352301 
    6610    1057.0513   -6815.0861   -6697.1704    542.17703    22569.499    23.364536 
    6620    1038.4972   -6813.3994   -6697.5534    383.85771    22566.686    23.372709 
    6630    1025.1581   -6812.1853   -6697.8274    213.68328    22564.358    23.371951 
    6640    1021.9867   -6811.9728   -6697.9687    297.82376    22562.327    23.380716 
    6650     1029.342   -6812.8025   -6697.9778    604.85181    22560.684    23.415888 
    6660    1038.8724   -6813.7549   -6697.8671    877.41034    22559.774    23.476036 
    6670    1039.1621   -6813.5691    -6697.649    1130.0427    22559.898    23.557526 
    6680    1037.0842    -6813.006   -6697.3177    1404.6014    22561.352    23.657641 
    6690    1083.5904   -6817.7561     -6696.88    1035.5577    22564.365    23.766992 
    6700    1096.6244   -6818.7109   -6696.3808     868.8563    22568.611    23.866996 
    6710    1112.1726   -6819.9571   -6695.8925    905.32502    22573.872    23.936937 
    6720    1113.8826    -6819.691   -6695.4357    1722.5113    22580.254    23.964611 
    6730    1085.0392   -6816.0647   -6695.0269    2686.0863    22588.655    23.973645 
    6740    1095.6428   -6816.8489   -6694.6283    2333.0687    22600.042    24.003681 
    6750    1111.9738   -6818.2644    -6694.222    1748.4119    22614.127    24.064554 
    6760    1118.1752   -6818.5799   -6693.8458    1365.1315     22630.24    24.150582 
    6770    1106.9263   -6816.9913    -6693.512    1117.3599    22647.912    24.258588 
    6780    1093.1603   -6815.1467   -6693.2031    604.66774    22666.801    24.387584 
    6790    1090.2242   -6814.4959   -6692.8797   -264.46179    22686.296    24.531041 
    6800    1091.8237   -6814.3275   -6692.5329   -1344.8064    22705.358    24.681403 
    6810    1092.9119   -6814.0781   -6692.1622   -1909.5382    22722.774    24.828808 
    6820    1070.9121   -6811.2273   -6691.7654    -1389.898    22737.941    24.961369 
    6830    1065.4196    -6810.165   -6691.3159   -389.96297    22751.433    25.065399 
    6840    1093.0569   -6812.7047   -6690.7725    179.82238    22764.347    25.147472 
    6850    1133.7224   -6816.6309   -6690.1625    270.23593    22777.369    25.227852 
    6860    1132.4533   -6815.8856   -6689.5588    340.37775    22790.662    25.315727 
    6870     1126.056   -6814.6033   -6688.9901    157.21166    22804.262    25.407036 
    6880    1115.2576   -6812.8399   -6688.4312    62.706155    22818.002    25.492074 
    6890     1108.794    -6811.561   -6687.8733   -17.768152    22831.755    25.571273 
    6900    1107.7016   -6810.8599   -6687.2941   -454.84334    22845.373    25.666245 
    6910    1121.8305   -6811.8276   -6686.6857   -939.11494    22858.382    25.789708 
    6920    1137.3667   -6812.9446   -6686.0696   -1504.0334    22870.184    25.930278 
    6930    1123.5001   -6810.8053   -6685.4772   -2066.4416    22880.114    26.055471 
    6940    1114.2071   -6809.2017   -6684.9102   -2436.7557    22887.518    26.147543 
    6950    1112.8084   -6808.4848   -6684.3494   -2320.0465    22891.993    26.209924 
    6960    1105.2049   -6807.0622   -6683.7749   -2141.1077    22893.653     26.25405 
    6970    1111.9788   -6807.2246   -6683.1817   -2321.2493    22892.672    26.291847 
    6980    1091.0936   -6804.2717   -6682.5585   -1918.7295    22888.981    26.329344 
    6990    1092.1618     -6803.73   -6681.8977   -1542.4831    22883.006    26.377856 
    7000    1116.0293   -6805.6814   -6681.1866   -1357.9485    22875.194    26.442198 
    7010     1128.828   -6806.3836   -6680.4611    -1020.071    22865.837    26.513854 
    7020    1146.4194   -6807.6518    -6679.767   -929.61373    22855.303    26.584469 
    7030    1135.0753    -6805.772   -6679.1527   -838.12464    22843.758    26.641183 
    7040    1128.5742   -6804.5104   -6678.6162   -446.98036     22831.37    26.678442 
    7050    1142.7793    -6805.631   -6678.1522   -277.99098    22818.545    26.703535 
    7060    1161.0931   -6807.3184   -6677.7967   -329.58599    22805.503    26.729762 
    7070    1152.7592   -6806.1802   -6677.5882    239.22207    22792.286    26.780107 
    7080    1151.8226   -6806.0205    -6677.533    1006.8548    22779.531     26.85927 
    7090    1146.1708   -6805.4902   -6677.6331    1172.9075    22768.061    26.947689 
    7100    1147.0499   -6805.8671    -6677.912    426.79331    22758.003    27.029631 
    7110    1113.4479   -6802.5532   -6678.3464    123.51975    22748.631    27.095148 
    7120     1103.402   -6801.9992   -6678.9131    115.61157    22739.533    27.151477 
    7130    1091.5667   -6801.3445   -6679.5786   -6.7889332    22730.662    27.199417 
    7140    1088.3804   -6801.7583   -6680.3478   -398.19653    22721.859    27.245864 
    7150    1062.6534   -6799.7255   -6681.1849   -199.07664    22712.785    27.300603 
    7160     1056.977   -6799.9451   -6682.0377    82.326898    22703.593    27.361437 
    7170    1088.0684   -6804.2904   -6682.9148   -3.2107658    22694.591    27.413893 
    7180    1110.4301   -6807.7225   -6683.8523   -98.042558    22685.722    27.444627 
    7190    1134.6518   -6811.4816   -6684.9095   -195.34846    22676.848    27.457572 
    7200    1106.7923   -6809.4926   -6686.0283    10.774504    22667.909    27.474823 
    7210    1108.4768   -6810.7872    -6687.135   -223.24432    22659.059    27.515645 
    7220    1107.1157    -6811.688   -6688.1876   -405.40933    22650.107    27.582621 
    7230    1092.7058   -6811.0204   -6689.1274   -318.29149     22640.85    27.662819 
    7240    1106.3856   -6813.3536   -6689.9346    -300.3642    22631.354    27.742773 
    7250    1122.4351   -6815.8533    -6690.644    143.30584    22621.716    27.815652 
    7260    1123.0478   -6816.5707   -6691.2931    1233.8329    22612.501    27.875559 
    7270    1106.2802   -6815.2817   -6691.8745     1950.102    22604.852    27.932538 
    7280    1110.6704   -6816.2868   -6692.3899    2108.0326    22599.561      27.9952 
    7290    1121.5312   -6817.9797   -6692.8712    1952.4836    22596.806    28.066631 
    7300    1101.4852    -6816.211   -6693.3387    1711.7942    22596.376      28.1506 
    7310    1070.9374   -6813.2147   -6693.7501    1600.8802    22597.972    28.242774 
    7320    1074.4852   -6813.9529   -6694.0924    1094.1282    22601.362    28.333202 
    7330    1067.5116    -6813.449   -6694.3664    665.56397    22605.998    28.421561 
    7340    1077.4548    -6814.773   -6694.5813   -119.28769     22611.28    28.501882 
    7350    1089.4175   -6816.2854   -6694.7592   -484.72515    22616.371     28.56928 
    7360    1081.6746   -6815.5898   -6694.9274   -345.59262    22620.859    28.628413 
    7370    1075.7459   -6815.0821    -6695.081   -300.66419     22624.87     28.68158 
    7380     1079.592   -6815.6462   -6695.2161   -517.75047    22628.432     28.73603 
    7390    1057.5763    -6813.302   -6695.3277   -219.58463    22631.384    28.805763 
    7400    1029.2765   -6810.1871   -6695.3698     223.8807    22634.054    28.883415 
    7410    1038.8062   -6811.1777   -6695.2973   -224.11356    22636.852     28.95122 
    7420    1063.1763   -6813.7204   -6695.1215   -935.08262    22639.306    29.012549 
    7430     1057.761   -6812.8723   -6694.8774   -918.39444    22640.704    29.072179 
    7440    1039.5077   -6810.5151   -6694.5564   -662.73478    22641.035    29.131504 
    7450    1048.5389   -6811.0945   -6694.1284   -870.35293    22640.517     29.18878 
    7460    1055.1442   -6811.2828   -6693.5799   -658.98075     22639.05    29.232255 
    7470    1083.6523   -6813.8329   -6692.9499    -627.9706    22636.806    29.244676 
    7480    1092.9561   -6814.2004   -6692.2795   -441.97191    22633.903    29.235865 
    7490    1092.0805    -6813.434   -6691.6108    -55.99342    22630.563    29.239416 
    7500    1114.2157   -6815.2486   -6690.9562     47.76148    22627.196    29.272782 
    7510    1130.2988   -6816.4394   -6690.3529    218.67053    22623.975    29.342439 
    7520     1127.647   -6815.6313   -6689.8406    382.78477    22621.069    29.436761 
    7530    1135.9163   -6816.1572    -6689.444    92.032088     22618.59    29.531129 
    7540    1114.7172   -6813.5001   -6689.1517    250.03745    22616.323    29.614751 
    7550    1085.9928    -6810.073   -6688.9289    687.95769    22614.424    29.681036 
    7560    1081.8424   -6809.3888   -6688.7077    685.30305    22613.331    29.733575 
    7570    1108.7351   -6812.1691    -6688.488    25.401958    22612.975    29.787842 
    7580    1098.2124   -6810.7943    -6688.287    87.044299    22612.752    29.843624 
    7590    1094.9512   -6810.2583   -6688.1148    801.32027    22612.709    29.899355 
    7600    1115.1398   -6812.3497   -6687.9542    1478.0461    22613.615    29.963263 
    7610    1138.3484   -6814.8354   -6687.8509    1603.2822    22616.192    30.039786 
    7620    1154.6023    -6816.659   -6687.8614     1582.444    22620.597     30.12599 
    7630    1158.0644   -6817.2287   -6688.0449    1679.6225    22626.807    30.215859 
    7640    1131.1413   -6814.5882   -6688.4077    1655.2977    22634.906    30.297667 
    7650    1124.8877   -6814.4159    -6688.933    998.61966    22644.777    30.368264 
    7660    1101.9678   -6812.5394   -6689.6132    472.00434    22655.724    30.441987 
    7670    1086.4971   -6811.6075   -6690.4072    112.83473    22667.125    30.523933 
    7680    1099.4535   -6813.9716   -6691.3259    9.7912927    22678.548    30.613503 
    7690    1112.0966   -6816.4661     -6692.41    68.994934    22689.846    30.709648 
    7700    1102.8379   -6816.6652   -6693.6419    288.84771    22701.132    30.814572 
    7710     1079.857   -6815.3741   -6694.9145    262.22142    22712.607    30.920497 
    7720    1081.0283   -6816.7335   -6696.1431   -192.31648    22724.201    31.011164 
    7730    1059.9532   -6815.4747   -6697.2354   -497.85604    22735.453    31.086012 
    7740    1055.7288   -6815.8921   -6698.1239   -1001.6313    22745.953    31.149608 
    7750    1074.1025   -6818.6404   -6698.8226   -1353.9338    22755.158    31.211261 
    7760    1080.5588   -6819.9206   -6699.3826   -1091.3013    22762.725    31.269682 
    7770    1071.7003   -6819.3706   -6699.8208   -848.53537    22768.898    31.323163 
    7780    1071.3928   -6819.6634   -6700.1479   -516.90231     22774.01    31.374429 
    7790    1091.6863    -6822.183   -6700.4038   -600.99548     22778.39    31.423059 
    7800    1076.3531   -6820.6746   -6700.6058   -475.63367    22782.042    31.466361 
    7810    1065.9218   -6819.6715   -6700.7664   -270.73598    22785.089    31.507232 
    7820    1062.7256   -6819.4094   -6700.8607   -245.13772    22787.761    31.545255 
    7830    1071.3063    -6820.408   -6700.9022    -427.4824    22790.085     31.58137 
    7840    1067.9904   -6820.0298   -6700.8938   -552.80282    22791.901    31.598944 
    7850    1066.5588   -6819.8203   -6700.8441   -542.74029    22793.048    31.595134 
    7860    1057.2137   -6818.6752   -6700.7414    -314.0962     22793.56    31.588873 
    7870    1047.8079   -6817.4682   -6700.5837   -327.83321    22793.664    31.601572 
    7880    1024.8102    -6814.656   -6700.3369    6.4518338    22793.449    31.640115 
    7890      1041.65   -6816.1824   -6699.9847   -199.50146    22793.189    31.686798 
    7900    1046.7099   -6816.2829   -6699.5209   -673.19598    22792.672    31.715574 
    7910     1041.967    -6815.205   -6698.9721   -1047.1627    22791.367    31.721462 
    7920    1040.4902   -6814.4062    -6698.338   -850.33353    22788.896    31.727663 
    7930    1061.6239   -6816.0516   -6697.6259   -581.76609    22785.457    31.759335 
    7940    1115.6618   -6821.3276   -6696.8738   -659.43859    22781.318    31.813553 
    7950    1106.5336   -6819.6132   -6696.1777     52.59127    22776.532     31.87387 
    7960    1108.7985   -6819.2732   -6695.5851    628.32952    22771.822    31.922914 
    7970    1108.2816   -6818.6921   -6695.0616    904.33558    22767.887     31.96038 
    7980     1096.315   -6816.9181   -6694.6225     869.5443    22765.038    31.990574 
    7990    1086.5421   -6815.4362   -6694.2308    806.05301    22763.267     32.01565 
    8000    1115.9118   -6818.3599   -6693.8782    54.787569    22762.393    32.028391 
    8010    1124.1984   -6818.9927   -6693.5867   -212.25281    22761.668    32.031398 
    8020    1135.9791   -6820.1215   -6693.4013   -529.17269    22760.675    32.032016 
    8030    1129.7982   -6819.3501   -6693.3194   -249.75746    22759.153    32.034032 
    8040    1130.8196   -6819.4905   -6693.3459    193.19869    22757.364     32.03679 
    8050    1129.3466   -6819.4449   -6693.4646    164.16212    22755.772    32.043412 
    8060     1115.219    -6818.082   -6693.6776   -37.640096    22754.365    32.060616 
    8070    1090.8873   -6815.6252    -6693.935   -346.37922     22752.91    32.080539 
    8080     1085.084   -6815.2562   -6694.2135   -437.08144    22751.075    32.102749 
    8090    1050.0411   -6811.5888   -6694.4552   -44.240567    22748.808    32.140917 
    8100    1071.2672   -6814.1467   -6694.6452   -416.16899    22746.421    32.187859 
    8110    1086.2581   -6815.9678   -6694.7941   -983.96244    22743.552    32.230446 
    8120    1077.4697   -6815.1317   -6694.9383   -1401.5512     22739.54    32.261812 
    8130    1086.1383   -6816.2376   -6695.0773   -1470.9444    22733.935    32.275081 
    8140    1095.6793   -6817.4469   -6695.2222   -1169.1938    22726.647    32.267104 
    8150    1088.2919   -6816.7855   -6695.3849   -560.99342    22718.046    32.256176 
    8160    1096.4096   -6817.8782   -6695.5721   -234.19059    22708.788    32.263375 
    8170    1094.1281   -6817.8572   -6695.8056    -182.3356    22699.269     32.29593 
    8180    1051.8683   -6813.3995   -6696.0621    120.33266    22689.618     32.35024 
    8190    1049.9308    -6813.412   -6696.2906    437.94958     22680.15    32.408453 
    8200     1079.825   -6816.9451    -6696.489    511.59397    22671.217    32.455394 
    8210     1107.405   -6820.2518   -6696.7191    314.82077      22662.9    32.492868 
    8220    1119.7721   -6821.9705   -6697.0583   -39.570421    22654.965    32.535051 
    8230    1134.0554   -6824.0981   -6697.5925   -247.90642    22647.022    32.585036 
    8240    1106.8818   -6821.8323   -6698.3579    176.84224    22638.902    32.640784 
    8250    1073.0773   -6819.0144    -6699.311    469.35592    22631.004     32.70832 
    8260    1047.0498   -6817.1598   -6700.3598    499.98966    22623.663    32.786833 
    8270    1013.4383   -6814.4183   -6701.3678    532.04432    22616.938    32.864147 
    8280    1029.3096   -6817.1069   -6702.2859    377.39996    22610.837    32.924919 
    8290    1057.5701   -6821.0916   -6703.1181   -81.954531    22605.184    32.956531 
    8300    1072.0581   -6823.4866   -6703.8969   -603.86375    22599.452    32.956346 
    8310    1064.9328   -6823.4125   -6704.6176   -541.70074    22593.107    32.944249 
    8320    1047.0984   -6822.0607   -6705.2553   -344.43429    22586.167    32.929858 
    8330    1029.2147   -6820.5839   -6705.7734   -299.62114     22578.84     32.91617 
    8340    1019.5567   -6819.8671   -6706.1341    24.503337    22571.243    32.909397 
    8350    1036.8522   -6822.0088   -6706.3464    280.90774    22563.705     32.90465 
    8360    1035.3086   -6821.9239   -6706.4337    677.64477    22556.558    32.893744 
    8370    1009.4123   -6819.0055    -6706.404    1090.4306    22550.232    32.878281 
    8380    995.63351   -6817.2781   -6706.2137    832.73129    22545.155    32.881974 
    8390    1043.0077   -6822.1951    -6705.846   -105.94824    22541.004    32.914709 
    8400    1077.1388   -6825.5116   -6705.3551   -630.56644    22536.799    32.971447 
    8410    1056.6668   -6822.6937   -6704.8209   -301.81277    22531.982    33.031803 
    8420     1056.294   -6822.0743   -6704.2431   -60.171651    22526.828    33.060364 
    8430    1074.7434    -6823.484   -6703.5948   -80.222155    22521.602    33.044138 
    8440    1074.9427   -6822.8264   -6702.9149    209.20582    22516.363    33.009552 
    8450    1069.3833   -6821.5065   -6702.2152    316.59838    22511.379     32.98713 
    8460    1082.2682   -6822.2381   -6701.5094    115.48489    22506.755    32.990619 
    8470    1072.7645   -6820.4793   -6700.8108     547.9465    22502.365    33.012975 
    8480    1053.1533   -6817.6098    -6700.129    1217.6528    22498.664    33.044158 
    8490    1041.4773   -6815.6193   -6699.4409    1446.6268    22496.352    33.075077 
    8500     1025.031    -6813.064   -6698.7202    1543.5544    22495.726     33.10415 
    8510    1042.6783   -6814.2787   -6697.9664    1480.1518    22496.884    33.127346 
    8520    1067.5333   -6816.2874   -6697.2024    1513.5209    22499.773    33.138737 
    8530     1067.775   -6815.6138   -6696.5018    1617.1532    22504.432    33.139025 
    8540    1095.7502   -6818.1149   -6695.8824    1531.9331    22510.954    33.131433 
    8550    1115.1994   -6819.7784   -6695.3763    1025.8837    22519.203    33.120782 
    8560    1105.3988   -6818.3072   -6694.9983    457.11666    22528.644    33.119659 
    8570    1102.6689   -6817.7241   -6694.7198    165.69464    22538.648    33.138998 
[...]
   22890    1091.6413   -6812.4918   -6690.7176   -739.58765    22717.541    95.576371 
   22900    1108.6306   -6814.5391   -6690.8697   -926.54083    22733.122    95.702206 
   22910    1110.6381   -6814.9664   -6691.0731   -1047.0317    22747.438    95.826865 
   22920    1117.2502   -6815.9857   -6691.3547   -1415.6904    22760.307    95.916078 
   22930     1120.866   -6816.7663    -6691.732   -1228.2963    22771.423    95.952173 
   22940    1092.7246   -6814.0927   -6692.1976   -752.97285    22780.987    95.943008 
   22950    1077.6395    -6812.934   -6692.7217   -321.76423    22789.554    95.916384 
   22960    1077.3153   -6813.4374   -6693.2612   -32.830417    22797.644    95.916481 
   22970    1088.4352   -6815.2487   -6693.8321    117.02514    22805.583    95.978624 
   22980    1080.2197   -6814.9363   -6694.4361    532.23868    22813.614     96.06757 
   22990    1080.2934   -6815.5706   -6695.0623    668.02571    22822.182    96.116513 
   23000    1088.6309   -6817.1567   -6695.7183    510.42777    22831.442    96.103594 
   23010    1072.8865    -6816.086   -6696.4039    499.58293    22841.242    96.039452 
   23020    1056.0286   -6814.8768   -6697.0752     338.0901    22851.558    95.967333 
   23030    1057.8504   -6815.7029   -6697.6981   -328.07077    22862.139    95.939674 
   23040    1062.9803   -6816.8487   -6698.2717   -901.35546    22872.244     95.97442 
   23050    1056.5573   -6816.6559   -6698.7954   -1253.1783    22881.194    96.062891 
   23060    1048.0306   -6816.1632   -6699.2538   -1109.8784    22888.614    96.173053 
   23070    1055.3936   -6817.3785   -6699.6477   -965.89362    22894.618    96.255965 
   23080    1077.1911   -6820.1592   -6699.9969    -671.6411    22899.429    96.290883 
   23090    1087.1036   -6821.6082   -6700.3402   -216.16718    22903.396     96.29968 
   23100    1060.8132   -6819.0008   -6700.6655    162.27161    22907.059    96.328256 
   23110    1084.6583   -6821.9918   -6700.9965   -472.71896     22910.77    96.407494 
   23120     1087.496   -6822.6407   -6701.3288   -907.05257    22913.941    96.519494 
   23130    1058.8249   -6819.7944   -6701.6809   -824.85289    22916.067    96.618945 
   23140    1053.1161   -6819.4884   -6702.0117   -1048.1588    22917.161    96.677508 
   23150    1052.8356   -6819.7546   -6702.3092   -1878.5049    22916.902    96.694286 
   23160    1037.3965   -6818.2929   -6702.5698   -2470.5762    22914.412    96.669318 
   23170    1014.0351   -6815.8773   -6702.7601   -2748.6665    22908.986    96.623621 
   23180    1009.1239   -6815.4072   -6702.8379   -2727.8148    22900.307    96.587068 
   23190    1024.4338   -6817.0311   -6702.7539   -2771.5119    22888.391    96.562087 
   23200    1054.0703   -6820.0822   -6702.4991   -2735.7428    22873.211    96.536695 
   23210    1061.3501    -6820.467   -6702.0718   -2211.2166    22854.884    96.494919 
   23220    1055.6874   -6819.2258   -6701.4623   -1703.5794    22834.015    96.433863 
   23230    1071.2327   -6820.1463   -6700.6487   -1779.1692    22811.147    96.360823 
   23240    1088.9972   -6821.1346   -6699.6553   -1766.5047    22786.283    96.285065 
   23250    1079.4022   -6818.9606   -6698.5517   -1336.2427    22759.509    96.212008 
   23260    1093.3991   -6819.3602   -6697.3899   -1213.4722    22731.277    96.142976 
   23270    1135.7606   -6822.9505   -6696.2547   -1696.1071    22701.697    96.087008 
   23280     1139.243   -6822.3354   -6695.2511   -1381.4122    22670.399    96.024815 
   23290    1145.7779   -6822.2613   -6694.4481   -759.07693    22637.704    95.961444 
   23300    1145.8768   -6821.6492   -6693.8249   -81.041043    22604.377    95.898847 
   23310    1121.4599   -6818.4752   -6693.3747      425.601    22571.183    95.827578 
   23320     1103.279   -6816.1127   -6693.0403    775.52971    22538.746    95.730511 
   23330    1094.6257   -6814.8622    -6692.755    725.02278     22507.45    95.604788 
   23340    1117.1562   -6817.1387   -6692.5183    596.92346    22477.256    95.490725 
   23350    1107.0531   -6815.8316   -6692.3381    1034.3291     22448.08    95.423806 
   23360    1066.4395   -6811.1446   -6692.1816     1740.175    22420.382    95.416428 
   23370    1081.6671   -6812.6536    -6691.992    2075.5038    22394.919    95.437343 
   23380    1114.5114   -6816.1102   -6691.7847    2051.6977    22372.063    95.442429 
   23390    1120.4283    -6816.618   -6691.6325    1783.3105    22351.749    95.427722 
   23400    1113.2231   -6815.7348   -6691.5531    1275.8089    22333.663    95.397366 
   23410    1092.8894   -6813.4521   -6691.5386    1160.6022    22317.255    95.363177 
   23420    1085.7501   -6812.6461    -6691.529    1524.3731    22302.386     95.34501 
   23430    1110.5692   -6815.4289   -6691.5433    1703.4651     22289.35    95.352036 
   23440    1084.2602   -6812.5336   -6691.5827    2312.6463    22278.435    95.388083 
   23450    1078.9023   -6811.9915   -6691.6384    2396.7129    22270.193    95.454851 
   23460     1077.354   -6811.8554   -6691.6749    2463.8466    22264.771    95.516165 
   23470    1095.8645   -6813.9599   -6691.7146     2179.641    22262.168    95.527126 
   23480    1102.2801    -6814.735    -6691.774    1760.1891    22262.076    95.503036 
   23490    1093.3454   -6813.8353    -6691.871    1495.8367    22264.009    95.494148 
   23500    1093.5559   -6813.9981   -6692.0103    1201.7774    22267.612     95.54051 
   23510     1100.241   -6814.9048   -6692.1713    1109.6018    22272.624    95.614864 
   23520    1138.3412   -6819.4031   -6692.4194     781.0098    22278.835    95.671971 
   23530    1111.3479   -6816.7615    -6692.789    1119.3928    22285.989    95.716483 
   23540    1100.3012   -6816.0224   -6693.2821    1008.4125    22294.334     95.75978 
   23550    1087.9136   -6815.2181   -6693.8597    565.81244    22303.768    95.807422 
   23560    1076.4168   -6814.5862   -6694.5103      67.3426    22313.795    95.869634 
   23570    1064.2183   -6813.9084   -6695.1933    -324.6815    22323.878    95.964635 
   23580    1062.5945   -6814.4202   -6695.8862   -524.98912    22333.577     96.08882 
   23590    1091.0889    -6818.318   -6696.6054   -498.68487    22342.657     96.21211 
   23600    1107.1469   -6820.8899    -6697.386   -183.68565    22351.162    96.312089 
   23610    1094.4728    -6820.345   -6698.2549    648.37715    22359.489    96.379385 
   23620    1075.2622   -6819.1007   -6699.1536    1360.9188    22368.509    96.417464 
   23630    1065.4109   -6818.8815   -6700.0333    1838.1177    22379.047    96.451826 
   23640    1053.1253    -6818.314   -6700.8363    1558.7096    22391.603    96.485647 
   23650    1056.0121   -6819.3352   -6701.5354    538.77091    22405.848    96.515766 
   23660    1049.2248   -6819.1474   -6702.1048   -91.808081    22420.731    96.551677 
   23670    1046.2651   -6819.2787   -6702.5663   -211.38237    22435.502    96.594333 
   23680    1009.7636   -6815.5336   -6702.8929    157.71909    22450.045    96.638359 
   23690     1008.713   -6815.5797   -6703.0563    135.01965    22464.675    96.674586 
   23700    1039.8081   -6819.0504   -6703.0583   -87.545013    22479.391    96.721316 
   23710     1055.075   -6820.6452     -6702.95   -306.28813    22493.961    96.805687 
   23720    1055.6637   -6820.5338   -6702.7729     -419.504    22508.111    96.933113 
   23730    1043.8753   -6818.9705   -6702.5246   -87.766058    22521.791    97.073991 
   23740     1060.067   -6820.4548   -6702.2028    -600.5541    22535.228    97.179103 
   23750    1060.8497   -6820.1465   -6701.8071   -1028.6887    22547.936    97.237799 
   23760    1037.3767   -6817.0856   -6701.3647   -811.45033    22559.464    97.270731 
   23770    1023.8486   -6815.0537   -6700.8418   -611.95286    22570.003     97.27937 
   23780    1046.3244   -6816.9303   -6700.2113   -1051.7177    22579.709      97.2668 
   23790    1068.7598   -6818.7215   -6699.4997   -1419.7319    22588.166    97.271566 
   23800    1097.7811   -6821.2331    -6698.774   -1707.9813     22594.93    97.323498 
   23810    1124.6748   -6823.5698   -6698.1106   -1288.2008    22599.746    97.433831 
   23820    1124.9551   -6823.0678   -6697.5774   -632.66102    22603.051    97.606351 
   23830     1126.418   -6822.8575   -6697.2039   -381.64071     22605.56    97.814677 
   23840    1104.7046   -6820.1789   -6696.9475   -412.84007    22607.591    98.015472 
   23850    1085.4174   -6817.8463   -6696.7663     -411.363    22609.145    98.184309 
   23860    1103.2082   -6819.6806   -6696.6161   -532.99686    22610.197    98.335457 
   23870    1113.0478   -6820.6756   -6696.5134   -382.35675    22610.664    98.478079 
   23880    1101.2174   -6819.3248   -6696.4823   -232.24259    22610.668    98.606245 
   23890    1071.4449   -6815.9924   -6696.4711   -21.492987    22610.421    98.717062 
   23900    1089.2052   -6817.9638   -6696.4614    -605.6977    22610.041    98.816824 
   23910    1095.7446   -6818.6745   -6696.4425   -856.86212    22608.993    98.932771 
   23920    1083.1728   -6817.2721   -6696.4425   -433.29695     22607.01     99.06812 
   23930    1072.5207   -6816.0752   -6696.4339   -148.72636    22604.513    99.184522 
   23940    1086.6564   -6817.6109   -6696.3928   -192.14462     22601.84     99.26281 
   23950    1102.3446   -6819.3169   -6696.3487   -543.86877    22598.914    99.311438 
   23960     1112.547     -6820.45   -6696.3437   -724.57918     22595.38    99.338674 
   23970    1106.5801    -6819.835   -6696.3943   -814.43404    22591.003    99.370637 
   23980    1073.7726   -6816.2436   -6696.4627    -532.7084     22585.73     99.43168 
   23990    1078.0698   -6816.7747   -6696.5144   -393.23286    22579.817    99.522279 
   24000    1096.1337   -6818.8229   -6696.5475   -7.5411529    22573.492     99.62782 
   24010    1086.5269    -6817.784   -6696.5802    190.15095    22567.124    99.744893 
   24020    1102.0698   -6819.5638   -6696.6263    173.62742    22560.983     99.89412 
   24030    1121.7674   -6821.8452   -6696.7104    163.40872     22555.06    100.07706 
   24040    1107.2163    -6820.366   -6696.8544     504.5315    22549.384    100.24909 
   24050    1111.7569   -6821.0784   -6697.0602    323.67211    22544.238    100.37628 
   24060    1083.3701   -6818.1429   -6697.2913    449.34466    22539.527    100.45397 
   24070    1073.7767   -6817.3045   -6697.5231    366.44248    22535.323    100.49509 
   24080    1077.7125   -6817.9382   -6697.7177    329.13683    22531.569    100.53726 
   24090    1079.2029   -6818.2801   -6697.8934    408.14432    22528.224    100.60177 
   24100    1075.6331   -6818.0403   -6698.0518    253.11886    22525.348    100.70349 
   24110    1085.4446    -6819.286    -6698.203     -95.9652    22522.732    100.84524 
   24120    1064.3665   -6817.0669   -6698.3352    509.01155     22520.12    100.98859 
   24130    1089.6748   -6819.9951   -6698.4403    518.44246    22518.028    101.08445 
   24140    1131.3654   -6824.7759   -6698.5704    280.40678    22516.534    101.15591 
   24150    1106.7481   -6822.2499   -6698.7905    334.09753    22515.402    101.24572 
   24160    1090.9261   -6820.7904   -6699.0959    45.868445    22514.596    101.34797 
   24170    1078.6532    -6819.778   -6699.4526    196.33939    22513.897    101.43619 
   24180    1044.9716   -6816.3964   -6699.8283    540.57399    22513.454    101.51492 
   24190    1044.0918   -6816.6525   -6700.1825    475.01606    22513.604    101.59992 
   24200    1059.1997   -6818.6731   -6700.5177    6.6848124    22514.275    101.69305 
   24210    1046.0085   -6817.5298   -6700.8459   -179.19132    22515.008    101.79387 
   24220    1044.9801   -6817.7294   -6701.1603   -401.52552    22515.542    101.90157 
   24230    1048.3636   -6818.4033   -6701.4567   -468.29309    22515.609    101.99905 
   24240    1032.3219   -6816.8669   -6701.7099   -424.41324    22515.119    102.08042 
   24250    1043.9696   -6818.3622   -6701.9058   -569.98923     22514.11    102.15561 
   24260    1050.6285   -6819.2298   -6702.0306   -289.57534    22512.484    102.22046 
   24270    1066.5878   -6821.0788   -6702.0994   -45.769211    22510.514    102.26138 
   24280    1078.2217   -6822.4117   -6702.1344    26.316086     22508.46    102.26634 
   24290    1060.0588   -6820.3846   -6702.1334    670.09971    22506.493     102.2508 
   24300    1055.3259   -6819.8079   -6702.0847    1222.8065    22505.286    102.25344 
   24310    1059.5472    -6820.139   -6701.9449    1235.3568    22505.456    102.31528 
   24320    1095.0311   -6823.8983    -6701.746    1013.8914    22507.041    102.44474 
   24330    1073.6371   -6821.2805   -6701.5146    1456.2673    22509.901    102.59854 
   24340    1065.6653   -6820.1299   -6701.2534    1783.4372    22514.484    102.73881 
   24350     1079.484   -6821.3451    -6700.927    1947.9505    22521.193    102.83734 
   24360    1085.2981   -6821.6227    -6700.556    1483.7172    22530.173    102.89158 
   24370    1076.1129   -6820.1901   -6700.1481     661.1679    22540.942      102.939 
   24380    1053.1897   -6817.1758   -6699.6909    134.22516    22552.631    103.01161 
   24390    1045.3847   -6815.7606   -6699.1463   -251.58436    22564.606     103.1204 
   24400    1071.1471   -6817.9841    -6698.496   -37.605097    22576.466    103.27738 
   24410    1075.6284   -6817.7652   -6697.7772    794.99689    22588.458    103.46483 
   24420    1055.4605   -6814.7718   -6697.0336    1570.9547     22601.51    103.64013 
   24430    1053.3773   -6813.7527   -6696.2469    1685.3608    22616.492    103.79087 
   24440    1071.7605   -6814.9661   -6695.4096     1153.109    22633.577    103.93408 
   24450    1086.1639   -6815.7141   -6694.5509    295.84685    22652.204     104.0724 
   24460    1093.5283   -6815.7132   -6693.7284    -183.1098    22671.449    104.20189 
   24470    1092.6521    -6814.863    -6692.976   -373.28357    22690.717    104.34629 
   24480    1067.3588   -6811.3561   -6692.2906   -429.69416    22709.782     104.5267 
   24490    1074.0711   -6811.4552    -6691.641   -906.30866    22728.511    104.74937 
   24500    1097.7129   -6813.4611   -6691.0095   -1503.5331    22746.355    105.01283 
   24510    1080.9182   -6811.0034   -6690.4254   -1678.5543    22762.658    105.27622 
   24520    1093.3309   -6811.8609   -6689.8982   -2013.4952    22777.124    105.49429 
   24530    1117.0243   -6814.0192   -6689.4134   -2288.3097    22789.348    105.63798 
   24540    1119.5936   -6813.9101   -6689.0177   -1863.2704    22799.034    105.69586 
   24550    1107.6224   -6812.2773   -6688.7204   -1033.9949    22806.645    105.68298 
   24560    1108.5215   -6812.1526   -6688.4954   -747.83162    22813.029    105.61794 
   24570    1118.4902   -6813.1033    -6688.334   -622.77796     22818.59    105.54261 
   24580    1128.2924   -6814.1096   -6688.2469   -770.52229    22823.455    105.50337 
   24590    1146.3971   -6816.1415   -6688.2592   -1408.4175    22827.384    105.50297 
   24600     1141.978   -6815.7947   -6688.4053   -1609.9577    22829.706    105.50135 
   24610    1106.9669   -6812.1489   -6688.6651   -1456.4995    22830.165    105.49966 
   24620    1094.1604   -6811.0254   -6688.9701   -1741.3398    22828.838    105.51903 
   24630    1106.1521   -6812.6999   -6689.3069   -1661.3608    22825.413     105.5441 
   24640    1096.7594   -6812.0268   -6689.6816   -482.08802    22820.054     105.5448 
   24650    1074.7433   -6809.9559   -6690.0667    122.44948    22813.962     105.5263 
   24660    1094.0735   -6812.5085    -6690.463   -449.69009    22807.784    105.49646 
   24670    1080.0187   -6811.3383   -6690.8606   -833.01305    22801.019    105.45815 
   24680    1057.8613   -6809.2543   -6691.2483   -930.21839    22793.162    105.42515 
   24690    1059.6263   -6809.7921   -6691.5891   -998.96699    22784.045    105.38632 
   24700    1089.3401   -6813.4165    -6691.899   -1117.0046    22773.555    105.32111 
   24710    1084.5184   -6813.2005   -6692.2209   -883.98296    22761.582    105.23308 
   24720     1049.191   -6809.5761   -6692.5373   -517.02524    22748.363    105.14406 
   24730    1061.9262   -6811.2521   -6692.7926   -683.53461    22734.229    105.07739 
   24740    1111.6826   -6817.0383   -6693.0284   -903.10024    22719.044    105.02804 
   24750     1118.034   -6818.0486   -6693.3302   -879.89536    22702.548    104.97483 
   24760    1104.2803   -6816.9355   -6693.7513   -870.63607    22684.713    104.90921 
   24770    1091.6213    -6816.046    -6694.274   -842.27844    22665.552    104.83486 
   24780    1085.1589   -6815.9464   -6694.8953   -476.59245    22645.094    104.76779 
   24790    1063.2564   -6814.1934   -6695.5856   -208.17274    22623.718    104.73047 
   24800     1056.901    -6814.223   -6696.3241   -342.79386    22601.701    104.71783 
   24810    1052.4723   -6814.5015   -6697.0966   -271.46066    22578.931    104.69314 
   24820    1038.5797   -6813.7246   -6697.8695    312.34068    22555.523    104.62274 
   24830    1054.9472   -6816.3123   -6698.6313    710.68284     22532.07    104.51424 
   24840    1074.9235   -6819.3122   -6699.4029     1104.706    22509.078    104.40359 
   24850    1088.1367   -6821.5974   -6700.2141    1571.7779    22487.021    104.32716 
   24860    1097.4182   -6823.4924   -6701.0737     2050.333    22466.466    104.28827 
   24870    1112.1225    -6826.065    -6702.006    2219.4287    22447.938     104.2773 
   24880    1108.0487   -6826.5961   -6702.9916    2405.8786    22431.723    104.28243 
   24890    1097.2453   -6826.3932   -6703.9938    2205.7628    22418.015    104.27848 
   24900    1081.7832   -6825.6071   -6704.9325     2019.383    22406.671    104.25272 
   24910    1095.7089   -6828.0136   -6705.7856    1862.3436    22397.487    104.23407 
   24920    1087.9765   -6827.9179   -6706.5524     1885.013    22390.325    104.24354 
   24930     1047.472   -6824.0182   -6707.1711    1765.8297    22385.234    104.25943 
   24940    1063.6847   -6826.2843   -6707.6287    855.09953    22382.023    104.26605 
   24950    1064.9792   -6826.7612   -6707.9612    396.84485    22379.814    104.26478 
   24960    1041.4574   -6824.3558   -6708.1797    724.61807    22378.127    104.26847 
   24970    1038.8968   -6824.1691   -6708.2786      806.867    22377.214     104.2939 
   24980    1047.2316   -6825.0955   -6708.2752    626.68419    22377.205    104.34471 
   24990    1026.3805   -6822.6678   -6708.1735    630.81643    22377.974     104.4079 
   25000    1017.6421   -6821.4925    -6707.973    478.15072    22379.484    104.46763 
Loop time of 15174.2 on 16 procs for 20000 steps with 864 atoms

Performance: 0.114 ns/day, 210.753 hours/ns, 1.318 timesteps/s
97.9% CPU use with 16 MPI tasks x 1 OpenMP threads

MPI task timing breakdown:
Section |  min time  |  avg time  |  max time  |%varavg| %total
---------------------------------------------------------------
Pair    | 10715      | 13252      | 14935      |1094.4 | 87.33
Bond    | 0.0020559  | 0.0057026  | 0.01193    |   3.8 |  0.00
Neigh   | 0.21309    | 0.2695     | 0.3176     |   7.3 |  0.00
Comm    | 204.53     | 1655.1     | 4344.3     |3041.6 | 10.91
Output  | 1.1684     | 1.1869     | 1.46       |   6.5 |  0.01
Modify  | 32.892     | 265.74     | 582.02     |1166.8 |  1.75
Other   |            | 0.1048     |            |       |  0.00

Nlocal:        54.0000 ave          64 max          42 min
Histogram: 1 1 1 4 0 1 1 4 2 1
Nghost:        470.875 ave         518 max         404 min
Histogram: 2 1 0 1 0 3 1 5 2 1
Neighs:         0.00000 ave           0 max           0 min
Histogram: 16 0 0 0 0 0 0 0 0 0
FullNghs:      2080.88 ave        2817 max        1354 min
Histogram: 2 2 2 1 0 1 3 3 1 1

Total # of neighbors = 33294
Ave neighs/atom = 38.534722
Ave special neighs/atom = 0.0000000
Neighbor list builds = 2000
Dangerous builds = 2000
Total wall time: 5:15:35
