LAMMPS (2 Aug 2023)
OMP_NUM_THREADS environment is not set. Defaulting to 1 thread. (src/comm.cpp:98)
  using 1 OpenMP thread(s) per MPI task
Reading restart file ...
  restart file = 2 Aug 2023, LAMMPS = 2 Aug 2023
  restoring atom style full from restart
  orthogonal box = (-0.96561355 -0.92810536 -8.6502923) to (22.50209 22.464582 73.259722)
  1 by 1 by 1 MPI processor grid
  pair style chgnet/gpu stores no restart info
  1536 atoms
Finding 1-2 1-3 1-4 neighbors ...
  special bond factors lj:    0        0        0       
  special bond factors coul:  0        0        0       
     0 = max # of 1-2 neighbors
     0 = max # of 1-3 neighbors
     0 = max # of 1-4 neighbors
     1 = max # of special neighbors
  special bonds CPU = 0.000 seconds
  read_restart CPU = 0.026 seconds
Resetting peratom fix info from restart file:
  fix style: STORE/ATOM, fix ID: msd_COMPUTE_STORE
All restart file peratom fix info was re-assigned
Neighbor list info ...
  update: every = 1 steps, delay = 10 steps, check = yes
  max neighbors/atom: 2000, page size: 100000
  master list distance cutoff = 6.3
  ghost atom cutoff = 6.3
  binsize = 3.15, bins = 8 8 27
  1 neighbor lists, perpetual/occasional/extra = 1 0 0
  (1) pair chgnet/gpu, perpetual
      attributes: full, newton on
      pair build: full/bin
      stencil: full/bin/3d
      bin: standard
Setting up Verlet run ...
  Unit style    : metal
  Current step  : 20000
  Time step     : 0.001
Per MPI rank memory allocation (min/avg/max) = 6.552 | 6.552 | 6.552 Mbytes
   Step          Temp          PotEng         TotEng         Press          Volume        c_msd[4]   
     20000   1489.388      -5641.9182     -5346.4023      4439.9616      44966.358      56.411627    
     20010   1487.2104     -5641.4348     -5346.351       4458.9449      44966.468      56.609392    
     20020   1520.5877     -5647.9969     -5346.2906      4149.5818      44966.634      56.793892    
     20030   1505.4464     -5644.953      -5346.2509      4181.1595      44966.667      56.997405    
     20040   1496.5389     -5643.2161     -5346.2813      4211.2719      44966.564      57.200744    
     20050   1480.4744     -5640.0355     -5346.2882      4266.6481      44966.337      57.386381    
     20060   1484.5067     -5640.8112     -5346.2638      4172.9471      44965.682      57.563115    
     20070   1477.9749     -5639.4254     -5346.174       4131.5718      44964.332      57.741057    
     20080   1494.618      -5642.6034     -5346.0498      3926.7922      44962.571      57.926828    
     20090   1491.2147     -5641.7604     -5345.882       3935.9556      44960.573      58.126429    
     20100   1521.2978     -5647.571      -5345.7238      3796.8023      44958.305      58.315024    
     20110   1526.0991     -5648.4214     -5345.6215      4390.0972      44955.682      58.481283    
     20120   1508.7936     -5644.9904     -5345.6241      5462.1072      44953.24       58.64789     
     20130   1506.3053     -5644.5817     -5345.7091      5876.7365      44951.655      58.839351    
     20140   1498.9946     -5643.2893     -5345.8673      5894.2749      44951.256      59.046618    
     20150   1494.1317     -5642.5616     -5346.1045      5693.508       44952.376      59.257849    
     20160   1489.4579     -5641.9475     -5346.4177      5400.9536      44954.997      59.455572    
     20170   1472.7651     -5638.9944     -5346.7767      5433.4207      44958.408      59.638013    
     20180   1481.0723     -5641.0499     -5347.184       5227.4425      44962.248      59.833005    
     20190   1496.3053     -5644.5366     -5347.6482      4923.6752      44966.367      60.049963    
     20200   1488.91       -5643.6445     -5348.2235      4810.1652      44970.281      60.262106    
     20210   1476.9483     -5641.9431     -5348.8954      4882.6823      44973.579      60.451034    
     20220   1479.5447     -5643.1945     -5349.6316      4684.796       44976.03       60.614021    
     20230   1512.5173     -5650.585      -5350.4799      4185.8711      44977.523      60.756218    
     20240   1516.5333     -5652.4186     -5351.5167      4157.2339      44978.256      60.900816    
     20250   1507.7647     -5651.9268     -5352.7647      4572.3494      44978.441      61.066435    
     20260   1460.6148     -5643.9199     -5354.113       5307.5324      44978.347      61.252944    
     20270   1441.9771     -5641.5417     -5355.4328      5404.0945      44978.604      61.451508    
     20280   1450.8754     -5644.5062     -5356.6318      4977.4666      44979.66       61.666914    
     20290   1448.5056     -5645.0922     -5357.6879      4523.717       44981.306      61.869622    
     20300   1428.9972     -5642.1515     -5358.618       4438.6847      44983.241      62.064243    
     20310   1457.3048     -5648.543      -5359.3928      4307.8755      44985.274      62.266648    
     20320   1494.5346     -5656.6516     -5360.1145      4317.7943      44987.108      62.457616    
     20330   1482.5806     -5655.0179     -5360.8527      4805.0178      44988.81       62.633974    
     20340   1473.7289     -5654.0233     -5361.6144      4980.591       44991.005      62.816315    
     20350   1451.302      -5650.2968     -5362.3377      4837.0778      44994.079      63.02033     
     20360   1434.2722     -5647.5637     -5362.9836      4539.0476      44997.863      63.231604    
     20370   1398.0805     -5640.8416     -5363.4424      4942.6002      45001.926      63.425673    
     20380   1421.2441     -5645.6938     -5363.6987      4971.5821      45006.384      63.595729    
     20390   1460.2343     -5653.511      -5363.7796      4547.0589      45011.475      63.758999    
     20400   1467.6247     -5655.0073     -5363.8096      4477.6277      45017.142      63.94107     
     20410   1453.0905     -5652.1293     -5363.8153      4545.4973      45023.125      64.137468    
     20420   1440.4334     -5649.5618     -5363.7592      4587.65        45029.385      64.318426    
     20430   1446.1091     -5650.5714     -5363.6427      4749.4749      45036.045      64.470243    
     20440   1432.7268     -5647.6791     -5363.4056      4965.8031      45043.001      64.614969    
     20450   1441.4329     -5649.0641     -5363.0631      4863.749       45050.226      64.792753    
     20460   1406.7183     -5641.682      -5362.569       5125.6308      45058.207      65.003397    
     20470   1404.2174     -5640.4786     -5361.8618      4816.3382      45067.855      65.200527    
     20480   1458.2718     -5650.2404     -5360.8983      4080.3961      45079.013      65.364868    
     20490   1456.1523     -5648.6451     -5359.7237      4145.4341      45091.152      65.522509    
     20500   1433.5215     -5642.8704     -5358.4392      4311.0914      45104.214      65.687039    
     20510   1437.7993     -5642.2903     -5357.0103      4285.8479      45117.877      65.84796     
     20520   1487.2309     -5650.4934     -5355.4055      3916.8819      45131.821      66.027278    
     20530   1491.282      -5649.7211     -5353.8294      4009.1357      45145.956      66.245985    
     20540   1500.2194     -5650.0697     -5352.4047      3835.7975      45160.187      66.481506    
     20550   1503.0362     -5649.3856     -5351.1617      3409.448       45174.313      66.739318    
     20560   1504.0426     -5648.6169     -5350.1934      3162.4658      45188.118      67.028844    
     20570   1471.6989     -5641.4205     -5349.4144      3559.2818      45201.41       67.32392     
     20580   1454.3968     -5637.3794     -5348.8062      3860.3489      45214.602      67.591069    
     20590   1480.4237     -5642.0292     -5348.2919      3741.2402      45228.166      67.852009    
     20600   1449.3965     -5635.415      -5347.834       4243.5423      45242.255      68.126206    
     20610   1459.0452     -5636.9648     -5347.4694      4140.545       45257.286      68.410709    
     20620   1491.2336     -5643.0286     -5347.1465      4193.9272      45273.369      68.702208    
     20630   1485.7761     -5641.8043     -5347.0051      5122.8776      45290.735      68.999282    
     20640   1475.331      -5639.7279     -5347.0011      5915.5887      45310.029      69.310077    
     20650   1470.1814     -5638.7655     -5347.0605      5947.5277      45331.556      69.659335    
     20660   1469.7039     -5638.7791     -5347.1687      5505.214       45355.184      70.0641      
     20670   1488.1759     -5642.6184     -5347.343       4826.9049      45380.357      70.507114    
     20680   1469.0217     -5639.0526     -5347.5777      4197.305       45406.235      70.955059    
     20690   1463.9621     -5638.3352     -5347.8642      3639.2243      45432.311      71.360392    
     20700   1460.0221     -5637.8657     -5348.1764      3440.9913      45458.511      71.719377    
     20710   1472.7424     -5640.7028     -5348.4896      3065.6558      45484.603      72.052018    
     20720   1499.2173     -5646.3105     -5348.8444      2417.4666      45510.097      72.377872    
     20730   1503.4243     -5647.6512     -5349.3503      2144.0202      45534.524      72.68904     
     20740   1489.3951     -5645.4877     -5349.9704      2188.1182      45557.666      72.970177    
     20750   1466.0243     -5641.5549     -5350.6747      2320.7136      45579.232      73.235949    
     20760   1428.3142     -5634.7284     -5351.3304      2816.3236      45599.357      73.509154    
     20770   1441.9935     -5638.0107     -5351.8986      2862.8736      45618.71       73.784325    
     20780   1440.0617     -5638.1111     -5352.3822      2844.0584      45637.753      74.056444    
     20790   1420.6871     -5634.672      -5352.7873      2843.4363      45656.689      74.325628    
     20800   1435.6993     -5637.9675     -5353.1042      2590.5708      45675.586      74.577942    
     20810   1423.2183     -5635.7241     -5353.3372      2624.903       45694.252      74.801653    
     20820   1416.5837     -5634.5669     -5353.4964      2687.2573      45712.562      75.012621    
     20830   1425.5177     -5636.4188     -5353.5757      2439.0261      45730.547      75.23495     
     20840   1429.8777     -5637.3171     -5353.6089      2412.3336      45748.278      75.494222    
     20850   1438.2833     -5638.9896     -5353.6136      2499.6405      45765.75       75.787193    
     20860   1421.7838     -5635.7153     -5353.6131      2980.9461      45782.729      76.0681      
     20870   1406.3805     -5632.5938     -5353.5477      3353.5208      45799.237      76.320305    
     20880   1441.5221     -5639.451      -5353.4324      3075.382       45815.425      76.564315    
     20890   1457.9571     -5642.6067     -5353.3271      2997.7226      45831.302      76.831461    
     20900   1463.8586     -5643.7566     -5353.3061      3203.3416      45846.852      77.134136    
     20910   1459.5955     -5643.0187     -5353.414       3462.5149      45861.812      77.43836     
     20920   1433.7235     -5638.0616     -5353.5904      3839.3796      45876.052      77.722324    
     20930   1418.6143     -5635.2341     -5353.7607      3790.4436      45889.63       77.968303    
     20940   1429.2804     -5637.5138     -5353.9241      3359.369       45902.435      78.187806    
     20950   1411.765      -5634.1827     -5354.0683      3240.6108      45914.532      78.395327    
     20960   1403.4086     -5632.5996     -5354.1432      2933.0872      45926.293      78.596034    
     20970   1425.535      -5637.0227     -5354.1761      2500.1367      45937.901      78.785837    
     20980   1435.7394     -5639.0369     -5354.1656      2288.5237      45949.24       78.97176     
     20990   1446.7007     -5641.2371     -5354.1909      2347.1124      45960.117      79.151672    
     21000   1467.4375     -5645.4822     -5354.3216      2004.6487      45970.138      79.319855    
     21010   1438.4849     -5639.9894     -5354.5734      2148.6806      45978.753      79.492721    
     21020   1426.144      -5637.9023     -5354.9349      2130.2176      45985.923      79.650155    
     21030   1434.0936     -5639.9095     -5355.3648      2028.2694      45991.393      79.767606    
     21040   1425.543      -5638.7443     -5355.8961      2051.392       45994.783      79.847564    
     21050   1409.904      -5636.3049     -5356.5598      1870.0476      45996.199      79.905799    
     21060   1383.1616     -5631.7181     -5357.2791      1857.5052      45995.915      79.954708    
     21070   1404.757      -5636.7986     -5358.0747      1522.3811      45994.091      79.996849    
     21080   1428.094      -5642.3547     -5359.0004      1227.3589      45990.272      80.032205    
     21090   1421.7805     -5642.2892     -5360.1876      1140.8927      45983.721      80.067644    
     21100   1402.1498     -5639.7869     -5361.5803      1274.3666      45974.528      80.097173    
     21110   1396.0185     -5640.1399     -5363.1498      1566.9796      45963.116      80.119813    
     21120   1391.0387     -5640.7646     -5364.7626      1925.6651      45950.157      80.12508     
     21130   1408.2419     -5645.8594     -5366.444       2056.6205      45936.256      80.107351    
     21140   1360.2237     -5637.9543     -5368.0665      2546.2422      45921.658      80.08214     
     21150   1344.236      -5636.1343     -5369.4186      2545.9764      45906.822      80.045333    
     21160   1364.52       -5641.2682     -5370.5279      2083.0803      45891.853      80.006724    
     21170   1367.4779     -5642.7319     -5371.4047      2035.7835      45876.363      79.984702    
     21180   1377.9209     -5645.5005     -5372.1012      1852.5012      45859.736      79.970334    
     21190   1368.2157     -5644.1257     -5372.6521      1754.5463      45841.56       79.942677    
     21200   1357.1523     -5642.2958     -5373.0173      1711.1566      45821.995      79.89199     
     21210   1366.6193     -5644.3579     -5373.2011      1809.8802      45801.236      79.835064    
     21220   1375.7162     -5646.226      -5373.2642      2214.8393      45779.141      79.769955    
     21230   1383.7099     -5647.7391     -5373.1913      2447.9018      45755.731      79.713335    
     21240   1412.5764     -5653.3297     -5373.0543      2164.8127      45731.185      79.680124    
     21250   1417.3361     -5654.1343     -5372.9145      2343.8374      45705.608      79.643654    
     21260   1414.8178     -5653.5406     -5372.8205      2663.5258      45679.084      79.574177    
     21270   1404.9929     -5651.5334     -5372.7627      3166.4182      45651.803      79.470417    
     21280   1387.0584     -5647.8922     -5372.68        3567.1937      45624.11       79.344265    
     21290   1391.8156     -5648.6825     -5372.5263      3588.8163      45596.256      79.210986    
     21300   1442.3981     -5658.5607     -5372.3682      2863.4908      45568.229      79.074854    
     21310   1432.2565     -5656.4857     -5372.3055      2740.5366      45539.636      78.925496    
     21320   1398.3204     -5649.7936     -5372.3468      3198.9998      45510.439      78.770279    
     21330   1397.303      -5649.6387     -5372.3937      3057.6565      45480.742      78.629277    
     21340   1431.5449     -5656.5095     -5372.4705      2307.0402      45450.372      78.492209    
     21350   1424.6957     -5655.3274     -5372.6474      2250.815       45418.959      78.361923    
     21360   1420.8187     -5654.8564     -5372.9457      2543.1686      45386.579      78.254718    
     21370   1424.3403     -5656.0042     -5373.3946      3027.3318      45353.612      78.180011    
     21380   1394.2599     -5650.6219     -5373.9808      3635.2966      45320.487      78.134299    
     21390   1407.2627     -5653.916      -5374.6949      3638.7224      45287.563      78.075785    
     21400   1421.3556     -5657.6191     -5375.6018      3404.2655      45255.105      77.985109    
     21410   1394.0263     -5653.3557     -5376.7609      3599.1657      45223.055      77.890586    
     21420   1401.0001     -5656.1257     -5378.1472      3610.9796      45191.248      77.793031    
     21430   1408.0774     -5659.1063     -5379.7236      3494.3118      45159.72       77.679313    
     21440   1409.6322     -5661.2087     -5381.5175      3384.7902      45128.494      77.573955    
     21450   1397.1114     -5660.6224     -5383.4155      3332.8146      45097.567      77.494271    
     21460   1356.0149     -5654.2694     -5385.2166      3403.5417      45066.973      77.435343    
     21470   1325.2879     -5649.6947     -5386.7386      3307.098       45036.822      77.388166    
     21480   1322.9014     -5650.3967     -5387.9141      3080.5244      45006.924      77.352138    
     21490   1321.8518     -5651.038      -5388.7636      3199.2082      44977.046      77.328392    
     21500   1308.5725     -5648.9114     -5389.2719      3571.6258      44947.291      77.290046    
     21510   1317.9041     -5650.9984     -5389.5074      3666.1284      44917.861      77.227542    
     21520   1345.2976     -5656.4443     -5389.518       3266.3114      44888.873      77.168352    
     21530   1331.0388     -5653.4612     -5389.364       3542.4402      44860.316      77.131074    
     21540   1336.3384     -5654.2039     -5389.0552      3803.3121      44832.347      77.109917    
     21550   1338.7695     -5654.2156     -5388.5845      4055.2779      44805.104      77.080453    
     21560   1354.5386     -5656.7633     -5388.0035      3848.4979      44778.694      77.047631    
     21570   1353.4074     -5655.8364     -5387.301       4017.8467      44753.255      77.003945    
     21580   1367.5978     -5657.9363     -5386.5853      3996.1927      44728.806      76.937329    
     21590   1354.931      -5654.6327     -5385.795       4285.4344      44705.186      76.875361    
     21600   1386.7688     -5660.1537     -5384.9989      4144.6111      44682.496      76.857014    
     21610   1375.8012     -5657.1899     -5384.2113      4623.4258      44660.748      76.880096    
     21620   1373.286      -5655.939      -5383.4593      4915.4125      44640.461      76.909267    
     21630   1375.6063     -5655.6277     -5382.6877      4802.7262      44622.206      76.927554    
     21640   1396.7921     -5659.1235     -5381.98        4580.5135      44605.888      76.950886    
     21650   1392.581      -5657.6638     -5381.3558      4730.001       44591.177      76.995931    
     21660   1391.6746     -5656.9409     -5380.8127      4898.9869      44578.208      77.061531    
     21670   1417.676      -5661.6519     -5380.3646      4367.0967      44567.013      77.133805    
     21680   1419.7066     -5661.7639     -5380.0738      4317.6927      44557.041      77.212005    
     21690   1412.8016     -5660.2749     -5379.9548      4750.5963      44548.205      77.276648    
     21700   1415.6333     -5660.8931     -5380.0111      4954.5702      44540.683      77.326581    
     21710   1403.4106     -5658.6691     -5380.2123      4980.1034      44534.119      77.391439    
     21720   1413.0517     -5660.8938     -5380.5241      4643.0554      44528.196      77.483841    
     21730   1417.3773     -5662.2169     -5380.989       4389.3832      44522.618      77.595557    
     21740   1419.9925     -5663.361      -5381.6141      4128.4685      44517.309      77.696984    
     21750   1408.0054     -5661.8115     -5382.4431      4169.8062      44512.229      77.789155    
     21760   1391.1542     -5659.3967     -5383.3718      4374.4303      44507.333      77.886679    
     21770   1383.1834     -5658.8236     -5384.3802      4612.5082      44502.702      77.981516    
     21780   1367.3677     -5656.7076     -5385.4023      4946.3531      44498.402      78.090356    
     21790   1365.3189     -5657.3016     -5386.4028      4875.8752      44494.497      78.218549    
     21800   1341.9549     -5653.559      -5387.2959      4936.5501      44490.698      78.346131    
     21810   1354.2188     -5656.7622     -5388.0658      4785.8948      44487.066      78.452937    
     21820   1377.4902     -5662.0748     -5388.761       4886.4337      44483.903      78.543335    
     21830   1391.064      -5665.4388     -5389.4318      4967.6792      44481.529      78.6142      
     21840   1424.1562     -5672.7469     -5390.174       4439.271       44480.587      78.666633    
     21850   1392.3541     -5667.2311     -5390.9681      4608.666       44480.998      78.746615    
     21860   1356.4941     -5660.8627     -5391.7148      5194.0872      44482.262      78.875438    
     21870   1373.0317     -5664.7753     -5392.3461      4931.4149      44484.252      79.027585    
     21880   1360.3622     -5662.7699     -5392.8545      4604.303       44486.9        79.196187    
     21890   1351.9884     -5661.5369     -5393.283       4464.5957      44490.075      79.361147    
     21900   1338.2778     -5659.1093     -5393.5758      4635.2638      44493.784      79.511806    
     21910   1356.8013     -5662.9786     -5393.7698      4350.6785      44497.992      79.675044    
     21920   1365.9996     -5664.9675     -5393.9336      4103.0272      44502.276      79.837508    
     21930   1379.5781     -5667.8445     -5394.1164      3843.8203      44506.545      79.981908    
     21940   1345.1255     -5661.1978     -5394.3056      3802.38        44510.954      80.113118    
     21950   1344.531      -5661.2596     -5394.4854      3688.6917      44515.414      80.251675    
     21960   1337.7267     -5660.0076     -5394.5834      3657.7049      44519.575      80.400316    
     21970   1361.6398     -5664.8188     -5394.65        3825.0394      44523.4        80.512319    
     21980   1368.4844     -5666.2679     -5394.741       4610.8573      44527.273      80.589134    
     21990   1334.8496     -5659.7157     -5394.8624      5636.4445      44531.718      80.660977    
     22000   1343.896      -5661.5874     -5394.9392      5566.3226      44537.03       80.737176    
     22010   1364.3066     -5665.7076     -5395.0097      4696.0875      44543.06       80.830683    
     22020   1360.0829     -5664.9825     -5395.1226      4139.4133      44549.615      80.94861     
     22030   1360.963      -5665.3191     -5395.2845      3818.5475      44556.58       81.100378    
     22040   1358.0795     -5664.9551     -5395.4927      3636.4069      44563.929      81.267587    
     22050   1330.7579     -5659.7648     -5395.7233      3628.8677      44571.626      81.438758    
     22060   1347.5225     -5663.3097     -5395.9419      3218.2924      44579.636      81.593424    
     22070   1337.2828     -5661.479      -5396.1429      3301.1684      44587.918      81.7173      
     22080   1327.4255     -5659.7329     -5396.3527      3242.6768      44596.643      81.851846    
     22090   1321.3909     -5658.6584     -5396.4756      3077.7317      44605.591      82.012434    
     22100   1320.1019     -5658.4739     -5396.5468      3002.2623      44614.483      82.174897    
     22110   1322.8795     -5659.0206     -5396.5424      3040.6721      44623.49       82.326604    
     22120   1365.6521     -5667.4753     -5396.5104      2735.7761      44632.805      82.465242    
     22130   1371.6097     -5668.686      -5396.539       3284.4275      44642.248      82.607476    
     22140   1332.8464     -5661.1124     -5396.6566      4507.5946      44651.95       82.768145    
     22150   1347.45       -5664.1622     -5396.8089      4524.2285      44662.45       82.955249    
     22160   1365.815      -5668.0151     -5397.0179      4245.356       44673.809      83.176354    
     22170   1331.6622     -5661.5479     -5397.327       4631.838       44686.091      83.417897    
     22180   1313.7314     -5658.3193     -5397.6562      4542.8521      44699.6        83.640741    
     22190   1345.3581     -5664.9141     -5397.9757      3926.7848      44714.121      83.842941    
     22200   1357.422      -5667.7053     -5398.3734      4008.7902      44729.092      84.029052    
     22210   1339.3192     -5664.6207     -5398.8806      4382.7266      44744.39       84.187044    
     22220   1340.2498     -5665.4432     -5399.5185      4215.3388      44760.479      84.309767    
     22230   1324.698      -5663.0903     -5400.2513      4001.0659      44777.584      84.420821    
     22240   1340.9597     -5667.1399     -5401.0743      3387.0645      44795.349      84.547784    
     22250   1346.1734     -5669.1255     -5402.0254      3097.8879      44813.413      84.695088    
     22260   1301.5898     -5661.334      -5403.0799      3421.631       44831.639      84.897622    
     22270   1300.6879     -5662.1949     -5404.1198      3210.3662      44849.957      85.192961    
     22280   1285.4669     -5660.1394     -5405.0844      2750.6102      44868.054      85.529559    
     22290   1291.7087     -5662.2323     -5405.9388      2164.0236      44885.485      85.848924    
     22300   1309.0385     -5666.4434     -5406.7114      1794.7298      44901.719      86.137848    
     22310   1295.8788     -5664.5427     -5407.4218      2298.32        44916.44       86.388746    
     22320   1294.0565     -5664.8126     -5408.0533      2667.3293      44929.812      86.599576    
     22330   1278.4375     -5662.2297     -5408.5694      3055.0958      44941.98       86.78376     
     22340   1284.4785     -5663.8217     -5408.9627      3053.979       44953.324      86.966223    
     22350   1299.3306     -5667.0527     -5409.2469      2630.9092      44964.166      87.153924    
     22360   1297.7408     -5666.9297     -5409.4393      2417.2187      44974.538      87.328003    
     22370   1325.9707     -5672.6847     -5409.5931      1933.9466      44984.385      87.491396    
     22380   1316.5927     -5670.9426     -5409.7118      1847.8281      44993.536      87.6618      
     22390   1300.3866     -5667.8708     -5409.8555      2004.2176      45001.87       87.860945    
     22400   1284.8961     -5664.8661     -5409.9243      2083.0796      45009.454      88.104433    
     22410   1290.5999     -5665.96       -5409.8864      1841.6948      45016.434      88.377618    
     22420   1303.1516     -5668.3162     -5409.7522      1860.116       45022.645      88.639556    
     22430   1291.0756     -5665.689      -5409.5211      2523.2114      45027.969      88.865536    
     22440   1303.6105     -5667.8331     -5409.1781      2865.7652      45032.633      89.032364    
     22450   1319.6551     -5670.5706     -5408.7321      2612.3126      45036.622      89.138747    
     22460   1322.7239     -5670.6515     -5408.2041      2309.13        45039.618      89.217086    
     22470   1345.3825     -5674.5938     -5407.6506      2118.8724      45041.172      89.2748      
     22480   1320.0803     -5669.0002     -5407.0774      2673.4631      45041.187      89.338512    
     22490   1316.6709     -5667.7288     -5406.4824      3079.9717      45040.077      89.386462    
     22500   1325.6238     -5668.8208     -5405.7981      3511.9959      45038.28       89.409577    
     22510   1329.2386     -5668.7812     -5405.0413      3661.691       45035.934      89.423914    
     22520   1351.0764     -5672.3452     -5404.2723      3246.9146      45032.896      89.430051    
     22530   1358.0746     -5672.9766     -5403.5151      2855.4919      45028.799      89.436821    
     22540   1347.1219     -5670.1527     -5402.8644      3000.0028      45023.661      89.448844    
     22550   1315.2998     -5663.2643     -5402.29        3362.4901      45017.604      89.462655    
     22560   1312.2248     -5662.0895     -5401.7253      3275.8429      45010.858      89.492403    
     22570   1301.1906     -5659.2649     -5401.09        2973.1727      45003.629      89.527908    
     22580   1309.528      -5660.2277     -5400.3986      2555.6992      44996.064      89.537302    
     22590   1327.9673     -5663.1471     -5399.6594      2549.4103      44988.087      89.544141    
     22600   1322.8617     -5661.4028     -5398.9281      3153.1491      44979.65       89.546692    
     22610   1343.1671     -5664.7178     -5398.2142      3397.1999      44971.256      89.541144    
     22620   1332.5541     -5661.9617     -5397.5639      3590.0727      44963.223      89.549016    
     22630   1308.5155     -5656.6165     -5396.9882      3705.8795      44955.694      89.557358    
     22640   1342.785      -5662.8757     -5396.448       3287.0199      44948.714      89.566693    
     22650   1329.3412     -5659.7435     -5395.9832      3549.5293      44941.947      89.565692    
     22660   1300.6187     -5653.6472     -5395.5858      4090.8915      44935.275      89.540335    
     22670   1296.9829     -5652.5405     -5395.2005      4197.859       44928.879      89.512916    
     22680   1295.3566     -5651.7598     -5394.7425      4333.0617      44922.695      89.50349     
     22690   1324.9139     -5657.1456     -5394.2637      4009.0214      44916.761      89.52349     
     22700   1336.4612     -5658.9917     -5393.8186      3929.4877      44911.5        89.583627    
     22710   1333.9521     -5658.1373     -5393.4621      3862.6464      44907.372      89.674256    
     22720   1335.2991     -5658.1681     -5393.2256      3679.6133      44904.422      89.775937    
     22730   1327.68       -5656.5231     -5393.0923      3593.1197      44902.414      89.875344    
     22740   1324.3844     -5655.8452     -5393.0684      3837.1552      44900.881      89.999678    
     22750   1321.6259     -5655.408      -5393.1785      4060.6413      44899.68       90.167413    
     22760   1308.9599     -5653.0986     -5393.3822      4369.2218      44899.06       90.365327    
     22770   1325.3818     -5656.6915     -5393.7168      4043.5241      44899.185      90.550311    
     22780   1307.7402     -5653.663      -5394.1886      3932.0902      44899.818      90.684326    
     22790   1313.7195     -5655.4878     -5394.827       3407.8267      44901.138      90.772521    
     22800   1306.9694     -5654.9227     -5395.6013      2942.5954      44903.292      90.842838    
     22810   1316.4349     -5657.7854     -5396.5859      2662.3131      44905.849      90.907154    
     22820   1305.7504     -5656.8267     -5397.7471      3080.9425      44908.405      90.996873    
     22830   1305.3187     -5658.0615     -5399.0676      3372.798       44911.101      91.136372    
     22840   1329.0753     -5664.2516     -5400.544       3042.7893      44914.074      91.3171      
     22850   1345.7492     -5669.2233     -5402.2073      2715.1817      44917.175      91.527705    
     22860   1344.4654     -5670.7866     -5404.0254      2814.062       44920.287      91.775404    
     22870   1312.112      -5666.1863     -5405.8445      3273.5663      44923.733      92.047709    
     22880   1294.7984     -5664.4003     -5407.4937      3062.7754      44928.18       92.295901    
     22890   1274.4935     -5661.7189     -5408.8411      2740.5185      44933.519      92.494885    
     22900   1265.0617     -5660.9158     -5409.9094      2520.8843      44939.048      92.654507    
     22910   1258.1984     -5660.3525     -5410.708       2477.796       44944.175      92.781661    
     22920   1265.0104     -5662.2979     -5411.3017      2693.4421      44948.382      92.881116    
     22930   1275.1052     -5664.7683     -5411.7692      3036.2152      44951.532      92.976674    
     22940   1288.5553     -5667.8229     -5412.1551      3313.5775      44954.191      93.106766    
     22950   1318.2497     -5674.1364     -5412.5767      3307.8195      44956.828      93.285828    
     22960   1276.8203     -5666.3932     -5413.0538      4062.3452      44959.47       93.481438    
     22970   1250.6582     -5661.6339     -5413.4854      4162.0462      44962.463      93.64578     
     22980   1280.5013     -5667.9243     -5413.8545      3296.3055      44965.759      93.760997    
     22990   1276.6289     -5667.4929     -5414.1915      2705.6137      44968.88       93.844038    
     23000   1277.1874     -5667.9459     -5414.5336      2218.9433      44971.696      93.901959    
     23010   1265.1001     -5665.8867     -5414.8727      2048.078       44974.151      93.952229    
     23020   1260.237      -5665.2242     -5415.1752      2000.6681      44975.988      94.014595    
     23030   1268.6778     -5667.1641     -5415.4402      2087.3584      44977.008      94.120243    
     23040   1269.2581     -5667.5292     -5415.6902      2582.0198      44977.337      94.285924    
     23050   1281.6246     -5670.2362     -5415.9435      2470.7051      44977.469      94.489147    
     23060   1266.9794     -5667.6189     -5416.232       2343.8867      44977.384      94.672362    
     23070   1258.0886     -5666.1409     -5416.5181      2420.602       44976.778      94.789173    
     23080   1264.5754     -5667.6907     -5416.7808      2536.5451      44975.346      94.837329    
     23090   1262.1457     -5667.4819     -5417.0542      2499.4698      44972.578      94.853067    
     23100   1254.3763     -5666.1786     -5417.2924      2610.0176      44968.322      94.887357    
     23110   1265.8888     -5668.6754     -5417.5049      2643.3621      44962.958      94.968189    
     23120   1284.9902     -5672.718      -5417.7576      2943.1075      44956.921      95.08855     
     23130   1263.358      -5668.7106     -5418.0422      3388.3784      44950.688      95.263484    
     23140   1274.0241     -5671.1781     -5418.3935      3097.9266      44944.637      95.496118    
     23150   1263.7775     -5669.5199     -5418.7683      3084.3101      44938.43       95.73278     
     23160   1263.2015     -5669.8293     -5419.1921      2713.7245      44931.765      95.926401    
     23170   1299.0637     -5677.4312     -5419.6783      1799.2742      44924.41       96.077323    
     23180   1314.8771     -5681.2419     -5420.3515      1171.3453      44915.673      96.21862     
     23190   1334.9821     -5686.2078     -5421.3282      1078.5367      44905.23       96.379261    
     23200   1324.963      -5685.5178     -5422.6262      1588.4597      44893.375      96.545609    
     23210   1317.4248     -5685.6376     -5424.2416      1986.5867      44880.737      96.697325    
     23220   1276.9992     -5679.3867     -5426.0118      2383.76        44867.705      96.830058    
     23230   1263.952      -5678.5232     -5427.737       2275.4041      44854.233      96.944808    
     23240   1254.5375     -5678.2053     -5429.2871      2427.3212      44839.984      97.04469     
     23250   1240.1448     -5676.6603     -5430.5978      2507.935       44824.64       97.135549    
     23260   1229.7913     -5675.6411     -5431.6329      2514.3604      44808.224      97.210555    
     23270   1221.9974     -5674.8523     -5432.3905      2527.2075      44790.788      97.263127    
     23280   1228.0951     -5676.5969     -5432.9253      2724.212       44772.433      97.295736    
     23290   1236.1774     -5678.5763     -5433.301       3204.3458      44753.473      97.316086    
     23300   1242.5267     -5680.0891     -5433.554       3511.7701      44734.341      97.335884    
     23310   1246.9195     -5681.1471     -5433.7404      3572.9484      44715.537      97.351942    
     23320   1263.5171     -5684.6217     -5433.9218      3254.9513      44697.23       97.376241    
     23330   1274.2869     -5686.9446     -5434.1078      2883.5739      44679.058      97.405802    
     23340   1266.4558     -5685.6812     -5434.3982      2862.1554      44660.533      97.419208    
     23350   1243.1033     -5681.3518     -5434.7023      2981.5941      44641.276      97.424823    
     23360   1250.6856     -5683.1627     -5435.0088      2813.6089      44621.125      97.435596    
     23370   1265.1947     -5686.3597     -5435.327       2634.2199      44600.121      97.45803     
     23380   1266.8829     -5687.0636     -5435.6959      2734.4705      44578.285      97.476544    
     23390   1250.7557     -5684.269      -5436.1012      2907.6576      44555.767      97.46415     
     23400   1263.0333     -5687.1863     -5436.5824      2953.4607      44532.737      97.427053    
     23410   1234.7058     -5682.0527     -5437.0694      3323.8517      44509.117      97.391438    
     23420   1213.4512     -5678.3031     -5437.537       3592.076       44484.943      97.356833    
     23430   1195.6147     -5675.1313     -5437.9043      3682.0543      44460.403      97.302562    
     23440   1208.9728     -5677.9907     -5438.1132      3389.3203      44435.645      97.21684     
     23450   1241.0635     -5684.4781     -5438.2334      2841.8769      44410.638      97.106052    
     23460   1250.1051     -5686.3806     -5438.3419      2570.4286      44385.215      97.006554    
     23470   1244.2484     -5685.3545     -5438.4778      2571.3248      44359.249      96.939838    
     23480   1246.0943     -5685.9119     -5438.6689      2635.8697      44332.7        96.893763    
     23490   1226.5143     -5682.2347     -5438.8767      3102.461       44305.545      96.852392    
     23500   1236.146      -5684.347      -5439.078       3124.3173      44277.82       96.790062    
     23510   1238.2744     -5684.9736     -5439.2823      3036.6929      44249.174      96.709001    
     23520   1244.5119     -5686.4751     -5439.5461      3080.726       44219.438      96.630308    
     23530   1224.629      -5682.791      -5439.8071      3586.0094      44188.999      96.568036    
     23540   1243.76       -5686.8585     -5440.0787      3730.6239      44158.561      96.536533    
     23550   1244.8552     -5687.3679     -5440.3708      3707.1323      44128.773      96.529516    
     23560   1245.5926     -5687.8993     -5440.7559      3478.4896      44099.982      96.515922    
     23570   1261.0935     -5691.4988     -5441.2798      3006.7919      44072.024      96.474151    
     23580   1267.2326     -5693.4456     -5442.0085      3116.4519      44044.552      96.415801    
     23590   1242.0699     -5689.3942     -5442.9497      3804.4815      44017.546      96.359095    
     23600   1214.8672     -5685.0579     -5444.0108      4347.2973      43991.591      96.307215    
     23610   1211.8181     -5685.5826     -5445.1406      4048.7293      43967.071      96.244491    
     23620   1211.5746     -5686.7003     -5446.3066      3658.5895      43943.704      96.18156     
     23630   1193.7729     -5684.306      -5447.4444      3727.7957      43921.106      96.131996    
     23640   1200.5061     -5686.6952     -5448.4976      3809.4135      43899.333      96.098471    
     23650   1223.0852     -5692.158      -5449.4803      3751.3492      43878.56       96.084297    
     23660   1237.0846     -5695.908      -5450.4526      3924.4296      43858.873      96.069878    
     23670   1221.0916     -5693.6737     -5451.3917      4291.496       43840.665      96.042199    
     23680   1234.4023     -5697.2172     -5452.2941      4053.6102      43824.268      95.98983     
     23690   1230.7981     -5697.3959     -5453.1879      4023.4687      43809.556      95.923758    
     23700   1207.4727     -5693.6122     -5454.0323      4239.5695      43796.334      95.884229    
     23710   1197.7763     -5692.4172     -5454.7613      3967.1704      43784.397      95.886136    
     23720   1203.2755     -5694.1227     -5455.3756      3468.8216      43773.326      95.91777     
     23730   1201.3942     -5694.2377     -5455.8639      3619.7437      43762.723      95.985634    
     23740   1187.9227     -5691.9327     -5456.2319      4159.3522      43752.794      96.078491    
     23750   1186.4405     -5691.8943     -5456.4875      4361.0309      43743.789      96.141335    
     23760   1177.8982     -5690.3192     -5456.6073      4283.6428      43735.745      96.1726      
     23770   1177.5239     -5690.231      -5456.5934      3965.1115      43728.519      96.200893    
     23780   1184.0376     -5691.3776     -5456.4476      3767.0971      43721.806      96.213487    
     23790   1188.7698     -5692.0895     -5456.2205      3795.7051      43715.347      96.224817    
     23800   1185.9619     -5691.2076     -5455.8958      3898.7256      43709.103      96.254479    
     23810   1217.2417     -5697.0348     -5455.5166      3899.4507      43703.046      96.304187    
     23820   1219.8087     -5697.163      -5455.1354      4302.6283      43697.148      96.379032    
     23830   1230.3948     -5698.9402     -5454.8122      4546.0318      43691.836      96.47444     
     23840   1215.882      -5695.778      -5454.5295      5054.086       43687.681      96.587593    
     23850   1214.6551     -5695.3052     -5454.3002      5278.6276      43685.334      96.710249    
     23860   1228.3446     -5697.8188     -5454.0977      5079.0113      43684.815      96.81586     
     23870   1236.8179     -5699.3503     -5453.948       4782.8775      43685.494      96.88786     
     23880   1237.777      -5699.4862     -5453.8935      4491.4946      43686.779      96.923778    
     23890   1219.0082     -5695.7845     -5453.9159      4583.9311      43688.387      96.948803    
     23900   1210.3642     -5694.1494     -5453.9958      4957.8992      43690.307      97.008837    
     23910   1213.7585     -5694.9166     -5454.0895      5119.1275      43692.74       97.141886    
     23920   1239.8437     -5700.2347     -5454.232       4801.6716      43696.054      97.331599    
     23930   1228.6867     -5698.2733     -5454.4843      4821.4093      43700.326      97.541889    
     23940   1201.7012     -5693.246      -5454.8113      5120.6647      43705.394      97.73628     
     23950   1200.211      -5693.3002     -5455.1611      5108.037       43711.259      97.886463    
     23960   1175.7189     -5688.7599     -5455.4804      5400.6015      43718.068      97.994816    
     23970   1193.1376     -5692.5172     -5455.7816      5400.094       43725.976      98.079618    
     23980   1186.1598     -5691.3915     -5456.0404      5744.3466      43734.978      98.154216    
     23990   1204.8582     -5695.3989     -5456.3378      5575.0891      43745.327      98.255276    
     24000   1229.224      -5700.6028     -5456.7071      5083.8517      43757.129      98.396715    
     24010   1217.8566     -5698.9028     -5457.2626      4820.6635      43770.122      98.565008    
     24020   1192.7221     -5694.6764     -5458.0232      5014.5394      43784.055      98.742721    
     24030   1196.504      -5696.4287     -5459.0252      4939.0548      43798.948      98.90977     
     24040   1177.0726     -5693.8114     -5460.2633      5027.9696      43814.761      99.070216    
     24050   1177.7936     -5695.4128     -5461.7217      4894.5407      43831.345      99.211213    
     24060   1181.9095     -5697.8478     -5463.34        4584.4093      43848.411      99.36008     
     24070   1180.6163     -5699.2819     -5465.0307      4456.9669      43865.611      99.534118    
     24080   1178.1009     -5700.4365     -5466.6844      4318.9055      43882.834      99.681266    
     24090   1189.5369     -5704.2257     -5468.2046      4111.8337      43900.292      99.779038    
     24100   1187.9        -5705.2507     -5469.5544      3829.3161      43917.997      99.844458    
     24110   1179.7195     -5704.7937     -5470.7204      3552.7505      43935.834      99.884946    
     24120   1150.741      -5699.9696     -5471.6461      3686.1834      43953.827      99.920069    
     24130   1147.8167     -5700.0659     -5472.3226      3576.7064      43972.047      99.99343     
     24140   1149.0184     -5700.7566     -5472.7749      3479.189       43990.253      100.13749    
     24150   1131.6592     -5697.5771     -5473.0398      3788.811       44008.48       100.36754    
     24160   1121.6434     -5695.6674     -5473.1172      4119.9817      44026.922      100.65161    
     24170   1117.4072     -5694.6903     -5472.9807      4240.1362      44045.675      100.91744    
     24180   1114.1944     -5693.7089     -5472.6367      4214.5088      44064.768      101.14345    
     24190   1129.8766     -5696.272      -5472.0883      3955.5739      44084.362      101.3358     
     24200   1181.669      -5705.8184     -5471.3583      3245.8865      44104.452      101.49463    
     24210   1193.3395     -5707.37       -5470.5943      3098.2088      44124.283      101.62936    
     24220   1184.7555     -5704.9486     -5469.8762      3071.2559      44143.206      101.76899    
     24230   1197.7916     -5706.8708     -5469.2118      2698.0005      44161.18       101.93276    
     24240   1190.3065     -5704.7853     -5468.6114      2463.5703      44178.322      102.10612    
     24250   1170.7387     -5700.3527     -5468.0613      2593.8809      44194.639      102.27363    
     24260   1174.0188     -5700.4545     -5467.5123      2837.7268      44210.128      102.44403    
     24270   1181.014      -5701.3037     -5466.9736      2916.9694      44224.971      102.60968    
     24280   1164.7803     -5697.5387     -5466.4296      2896.554       44239.163      102.75599    
     24290   1161.657      -5696.3503     -5465.861       2739.1651      44252.695      102.8735     
     24300   1174.2393     -5698.2499     -5465.264       2718.8063      44265.6        102.96153    
     24310   1177.5722     -5698.3008     -5464.6536      2531.1818      44278.011      103.03846    
     24320   1177.1695     -5697.6167     -5464.0494      2275.4382      44289.922      103.1395     
     24330   1176.9022     -5696.9824     -5463.4682      2076.5149      44300.919      103.29357    
     24340   1165.0332     -5694.0527     -5462.8935      2113.2398      44310.673      103.48073    
     24350   1173.4772     -5695.1602     -5462.3255      1961.2874      44319.305      103.66707    
     24360   1176.441      -5695.1788     -5461.7561      1824.4998      44327.131      103.83878    
     24370   1164.278      -5692.2188     -5461.2093      2013.0325      44334.472      103.99277    
     24380   1162.4896     -5691.3127     -5460.6582      2238.3329      44341.666      104.126      
     24390   1179.6503     -5694.1527     -5460.0932      2185.768       44348.637      104.24321    
     24400   1195.3507     -5696.7253     -5459.5506      2159.8474      44355.011      104.35195    
     24410   1193.6126     -5695.9358     -5459.106       2312.654       44360.509      104.47112    
     24420   1153.6829     -5687.6349     -5458.7277      2744.5344      44365.286      104.58821    
     24430   1168.6794     -5690.2401     -5458.3574      2499.9164      44369.739      104.69354    
     24440   1195.3446     -5695.1514     -5457.9779      2104.5131      44373.837      104.79734    
     24450   1170.7397     -5689.9475     -5457.656       2407.1226      44377.473      104.93117    
     24460   1167.5817     -5689.0477     -5457.3828      2553.7766      44380.704      105.08014    
     24470   1181.3709     -5691.5358     -5457.1349      2444.4616      44383.341      105.22291    
     24480   1166.5261     -5688.3494     -5456.8939      2485.3473      44385.082      105.31259    
     24490   1158.3531     -5686.504      -5456.6702      2682.0903      44385.647      105.32291    
     24500   1184.8143     -5691.5222     -5456.4381      2557.9037      44384.984      105.29829    
     24510   1182.5141     -5690.855      -5456.2273      2717.0264      44383.317      105.28067    
     24520   1194.8292     -5693.168      -5456.0967      2498.0148      44380.894      105.28032    
     24530   1193.1911     -5692.8051     -5456.0588      2404.0539      44377.656      105.30129    
     24540   1213.9513     -5697.0333     -5456.168       2353.9506      44373.599      105.33422    
     24550   1220.7857     -5698.73       -5456.5086      2464.8199      44368.63       105.36131    
     24560   1212.4817     -5697.7804     -5457.2067      2791.513       44362.554      105.37392    
     24570   1189.8216     -5694.3713     -5458.2937      3202.7403      44355.542      105.37246    
     24580   1165.0619     -5690.9227     -5459.7578      3282.3735      44348.056      105.35748    
     24590   1158.8359     -5691.4442     -5461.5146      2857.8331      44340.353      105.31996    
     24600   1151.3458     -5691.8954     -5463.4519      2638.6509      44332.152      105.26297    
     24610   1138.6147     -5691.2417     -5465.3242      2461.011       44323.202      105.21233    
     24620   1135.1414     -5692.2114     -5466.9831      2217.0107      44313.403      105.19432    
     24630   1141.1769     -5694.7592     -5468.3333      1885.807       44302.764      105.20896    
     24640   1153.6804     -5698.3491     -5469.4424      1669.1238      44291.265      105.2318     
     24650   1142.9986     -5697.126      -5470.3387      1788.7426      44278.913      105.24736    
     24660   1131.0524     -5695.4564     -5471.0394      1968.4958      44265.925      105.2499     
     24670   1139.3567     -5697.6577     -5471.593       1916.2058      44252.441      105.23104    
     24680   1133.7618     -5696.9758     -5472.0213      2152.4605      44238.272      105.17994    
     24690   1142.0454     -5698.9775     -5472.3794      2379.025       44223.27       105.1085     
     24700   1140.1315     -5698.9065     -5472.6881      2675.9171      44207.38       105.04344    
     24710   1137.7206     -5698.6934     -5472.9533      2773.7348      44190.628      105.00315    
     24720   1145.4083     -5700.4402     -5473.1748      2624.948       44173.03       105.00117    
     24730   1174.3362     -5706.4248     -5473.4197      2334.4214      44154.705      105.0096     
     24740   1187.3701     -5709.3267     -5473.7354      2518.8816      44135.66       104.99568    
     24750   1168.2449     -5705.9641     -5474.1676      3245.9376      44116.19       104.95288    
     24760   1170.7312     -5706.9851     -5474.6953      3603.0694      44096.898      104.88496    
     24770   1157.599      -5704.9871     -5475.3028      3692.7658      44077.957      104.78508    
     24780   1149.662      -5704.084      -5475.9746      3421.1891      44059.205      104.67833    
     24790   1131.782      -5701.2224     -5476.6607      3211.3313      44040.348      104.60233    
     24800   1119.3083     -5699.3906     -5477.3038      3057.6265      44021.1        104.56732    
     24810   1106.6431     -5697.4343     -5477.8605      3406.3462      44001.453      104.55974    
     24820   1117.0866     -5699.9509     -5478.3049      3662.8097      43981.832      104.57013    
     24830   1144.9635     -5705.8704     -5478.6932      3488.3175      43962.428      104.60241    
     24840   1155.0939     -5708.2947     -5479.1075      3543.5625      43943.069      104.62996    
     24850   1149.9686     -5707.7743     -5479.6041      3665.8432      43923.718      104.62326    
     24860   1112.5339     -5700.8438     -5480.1011      4068.8092      43904.533      104.59238    
     24870   1098.1218     -5698.3982     -5480.5151      3921.9341      43885.986      104.57214    
     24880   1111.1987     -5701.3048     -5480.8271      3203.7903      43868.47       104.57765    
     24890   1105.6485     -5700.4424     -5481.0659      2667.8011      43851.714      104.58542    
     24900   1104.283      -5700.3289     -5481.2233      2264.7318      43835.398      104.58543    
     24910   1113.0304     -5702.153      -5481.3118      2055.0672      43819.296      104.56138    
     24920   1117.933      -5703.1421     -5481.3282      2429.9448      43803.224      104.49488    
     24930   1115.3875     -5702.5924     -5481.2835      3110.6647      43787.192      104.39836    
     24940   1117.3386     -5702.9117     -5481.2158      3668.5707      43771.089      104.30018    
     24950   1118.4142     -5702.9912     -5481.0818      3917.5259      43755.013      104.19554    
     24960   1137.0884     -5706.5156     -5480.901       3580.1491      43739.457      104.10653    
     24970   1139.4529     -5706.7961     -5480.7124      3560.7177      43724.821      104.08484    
     24980   1126.7603     -5704.0983     -5480.5329      3754.1775      43711.152      104.15306    
     24990   1126.0256     -5703.7709     -5480.3513      3469.197       43698.299      104.27494    
     25000   1125.3085     -5703.4189     -5480.1416      3223.9766      43685.842      104.40324    
     25010   1117.0636     -5701.5176     -5479.8762      3264.1682      43673.621      104.52208    
     25020   1130.8311     -5703.9452     -5479.5721      3340.8615      43661.725      104.63202    
     25030   1127.9444     -5703.0029     -5479.2026      3814.3754      43650.082      104.72115    
     25040   1148.807      -5706.7441     -5478.8044      4341.2586      43638.887      104.78916    
     25050   1166.8486     -5709.9426     -5478.4232      4772.454       43628.479      104.82636    
     25060   1181.2825     -5712.5321     -5478.1487      4788.1855      43619.123      104.837      
     25070   1163.2855     -5708.8495     -5478.037       4816.6625      43610.855      104.84547    
     25080   1155.0241     -5707.2682     -5478.0949      4397.8735      43603.483      104.86885    
     25090   1150.3882     -5706.5559     -5478.3024      3795.0554      43596.897      104.92321    
     25100   1148.3875     -5706.5211     -5478.6646      3488.8921      43590.983      105.01498    
     25110   1126.6141     -5702.6946     -5479.1582      3823.9337      43585.635      105.1205     
     25120   1123.8102     -5702.7477     -5479.7676      4135.6533      43581.11       105.23013    
     25130   1126.8551     -5704.0316     -5480.4474      4451.7543      43577.733      105.35363    
     25140   1139.6173     -5707.3627     -5481.2463      4575.0573      43575.38       105.46155    
     25150   1141.4103     -5708.6594     -5482.1873      4586.7121      43574.2        105.51551    
     25160   1133.0165     -5708.0446     -5483.2379      4635.6693      43574.669      105.52646    
     25170   1129.0104     -5708.3921     -5484.3803      4545.949       43577.07       105.54589    
     25180   1119.9393     -5707.7443     -5485.5323      4500.8045      43581.272      105.62312    
     25190   1122.1104     -5709.3032     -5486.6605      4217.7203      43586.962      105.75602    
     25200   1131.4049     -5712.2446     -5487.7577      3815.9506      43593.771      105.91091    
     25210   1129.9998     -5713.0455     -5488.8374      3813.7938      43601.289      106.06054    
     25220   1085.2683     -5705.1526     -5489.8198      4758.0045      43609.425      106.18986    
     25230   1071.1445     -5703.1472     -5490.6168      4928.1289      43618.501      106.28781    
     25240   1098.8287     -5709.2585     -5491.2352      4374.3643      43628.616      106.34002    
     25250   1091.0654     -5708.2262     -5491.7432      4224.013       43639.707      106.3746     
     25260   1074.3133     -5705.3035     -5492.1443      4218.5407      43651.846      106.43029    
     25270   1080.5809     -5706.8203     -5492.4176      3802.9243      43664.903      106.50317    
     25280   1101.0454     -5711.0728     -5492.6096      3311.5173      43678.351      106.58658    
     25290   1095.475      -5710.1195     -5492.7616      3354.9199      43691.875      106.68569    
     25300   1090.1016     -5709.1794     -5492.8877      3644.336       43705.728      106.81089    
     25310   1096.8964     -5710.6212     -5492.9813      3919.7005      43720.237      106.97944    
     25320   1094.1207     -5710.1217     -5493.0325      4036.2249      43735.446      107.20185    
     25330   1116.0995     -5714.5386     -5493.0885      3604.2658      43751.08       107.47613    
     25340   1102.4189     -5711.8986     -5493.1629      3276.4263      43766.743      107.79213    
     25350   1086.7328     -5708.8663     -5493.243       2741.7983      43782.326      108.13102    
     25360   1085.1945     -5708.6129     -5493.2948      2257.8301      43797.577      108.44824    
     25370   1066.5608     -5704.9014     -5493.2804      2400.5219      43812.066      108.71128    
     25380   1070.2667     -5705.551      -5493.1948      2777.8873      43825.682      108.92111    
     25390   1058.249      -5702.97       -5492.9982      3176.2315      43838.638      109.1004     
     25400   1078.7936     -5706.7302     -5492.6821      3053.1699      43851.16       109.26568    
     25410   1110.4238     -5712.6163     -5492.2923      2735.0674      43863.294      109.42708    
     25420   1106.9247     -5711.5155     -5491.8858      2852.1151      43874.993      109.6007     
     25430   1101.26       -5710.0338     -5491.528       3196.4681      43886.229      109.78689    
     25440   1084.4414     -5706.316      -5491.1473      3345.7431      43897.011      109.9667     
     25450   1092.3258     -5707.4615     -5490.7285      3183.3391      43907.419      110.10398    
     25460   1091.5614     -5706.8342     -5490.2528      3170.2808      43917.472      110.19112    
     25470   1095.8333     -5707.1821     -5489.7531      3266.1155      43927.263      110.26       
     25480   1070.7173     -5701.6388     -5489.1931      3683.6564      43937.062      110.33639    
     25490   1064.5338     -5699.7455     -5488.5267      3567.6279      43947.165      110.42037    
     25500   1100.9559     -5706.1516     -5487.7062      2957.6163      43957.454      110.51446    
     25510   1117.0791     -5708.4283     -5486.7838      2566.9235      43967.474      110.60896    
     25520   1126.7779     -5709.453      -5485.8841      2511.8721      43976.972      110.69328    
     25530   1134.1863     -5710.0906     -5485.0518      2848.0979      43985.71       110.79937    
     25540   1130.5133     -5708.6646     -5484.3545      3331.9529      43993.538      110.9475     
     25550   1132.5734     -5708.499      -5483.7802      3615.2742      44000.658      111.08604    
     25560   1137.1798     -5708.9762     -5483.3434      3406.1358      44007.323      111.15706    
     25570   1134.4388     -5708.1515     -5483.0626      3449.2227      44013.773      111.1867     
     25580   1147.7859     -5710.7241     -5482.987       3498.6843      44020.259      111.20912    
     25590   1150.6346     -5711.4375     -5483.1351      3393.2923      44026.834      111.23627    
     25600   1153.875      -5712.52       -5483.5747      3221.8963      44033.453      111.29055    
     25610   1146.0612     -5711.7579     -5484.363       3143.8841      44039.955      111.40793    
     25620   1122.3456     -5708.1555     -5485.4661      3354.2008      44046.137      111.56309    
     25630   1119.5744     -5708.9971     -5486.8575      3556.1748      44051.951      111.72603    
     25640   1102.498      -5707.1774     -5488.426       3652.0696      44057.44       111.89538    
     25650   1103.8033     -5709.0553     -5490.0449      3181.0876      44062.654      112.07893    
     25660   1103.4784     -5710.5454     -5491.5995      2788.0673      44067.51       112.28008    
     25670   1100.6545     -5711.3796     -5492.994       2297.1535      44071.788      112.48794    
     25680   1092.9817     -5711.0204     -5494.1572      1832.1861      44075.219      112.66011    
     25690   1091.7436     -5711.7382     -5495.1206      1525.2871      44077.619      112.77296    
     25700   1067.6221     -5707.7043     -5495.8728      1805.9687      44078.97       112.8626     
     25710   1067.6405     -5708.2928     -5496.4577      2143.7832      44079.469      112.95769    
     25720   1077.68       -5710.7644     -5496.9373      2460.4228      44079.297      113.06952    
     25730   1074.2591     -5710.496      -5497.3476      2604.5816      44078.653      113.21372    
     25740   1083.2104     -5712.6621     -5497.7376      2261.6796      44077.62       113.36904    
     25750   1080.2783     -5712.479      -5498.1363      1994.9238      44076.004      113.50652    
     25760   1068.6059     -5710.5604     -5498.5337      1956.8451      44073.65       113.61952    
     25770   1064.0206     -5710.0422     -5498.9253      1926.8885      44070.515      113.72725    
     25780   1064.0816     -5710.4169     -5499.2878      1772.2576      44066.427      113.82919    
     25790   1062.3107     -5710.4169     -5499.6392      1718.884       44060.999      113.93529    
     25800   1054.4917     -5709.1956     -5499.9693      2045.3389      44054.305      114.04242    
     25810   1060.7783     -5710.7402     -5500.2666      2374.3219      44046.786      114.14661    
     25820   1073.2087     -5713.5088     -5500.5688      2480.8185      44038.619      114.2656     
     25830   1065.2343     -5712.2322     -5500.8744      2551.0808      44029.963      114.40953    
     25840   1081.316      -5715.7727     -5501.2241      2192.7119      44020.873      114.5527     
     25850   1085.8046     -5717.0918     -5501.6526      1964.3042      44010.909      114.67208    
     25860   1067.942      -5714.0475     -5502.1525      2158.6548      43999.759      114.78244    
     25870   1071.9715     -5715.3959     -5502.7014      2281.5524      43987.567      114.88557    
     25880   1065.4588     -5714.6873     -5503.285       2542.422       43974.656      114.96471    
     25890   1042.5925     -5710.7443     -5503.879       2867.9375      43961.471      115.03433    
     25900   1041.8991     -5711.1632     -5504.4355      2633.7797      43948.117      115.13235    
     25910   1055.7672     -5714.4408     -5504.9615      1836.164       43934.049      115.24841    
     25920   1058.7943     -5715.5713     -5505.4913      1523.4174      43918.62       115.35502    
     25930   1068.3196     -5718.0172     -5506.0473      1511.8667      43901.785      115.44527    
     25940   1059.0808     -5716.7769     -5506.6401      1869.437       43883.78       115.54962    
     25950   1044.5111     -5714.4811     -5507.2351      2196.1286      43864.797      115.67052    
     25960   1059.4749     -5718.0447     -5507.8297      2257.2817      43845.002      115.77254    
     25970   1050.4786     -5716.8431     -5508.4131      2702.6209      43824.485      115.86994    
     25980   1049.3014     -5717.1874     -5508.9909      2954.2741      43803.574      115.98413    
     25990   1070.5759     -5721.999      -5509.5814      2643.6963      43782.439      116.07782    
     26000   1081.2893     -5724.7939     -5510.2507      2146.9901      43760.925      116.14202    
     26010   1077.1946     -5724.7643     -5511.0335      1840.0614      43738.861      116.18191    
     26020   1047.3775     -5719.6725     -5511.8578      1847.4913      43716.076      116.22013    
     26030   1055.9958     -5722.2257     -5512.701       1424.5225      43692.371      116.26774    
     26040   1044.0569     -5720.6711     -5513.5153      1352.1599      43667.445      116.3022     
     26050   1048.9946     -5722.422      -5514.2864      1460.6158      43641.398      116.28851    
     26060   1050.9735     -5723.5543     -5515.0261      1891.5083      43614.537      116.23076    
     26070   1027.2549     -5719.5051     -5515.683       2704.8735      43587.075      116.14936    
     26080   1033.7464     -5721.3552     -5516.2451      3027.7567      43559.279      116.05839    
     26090   1060.3177     -5727.1318     -5516.7496      2968.9302      43531.248      115.97693    
     26100   1056.1532     -5726.8151     -5517.2592      3144.6455      43502.841      115.9351     
     26110   1040.6522     -5724.2322     -5517.7519      3217.3195      43474.164      115.95609    
     26120   1034.8749     -5723.5144     -5518.1804      3043.4617      43445.633      116.01113    
     26130   1032.0522     -5723.313      -5518.5391      2871.3291      43417.618      116.06225    
     26140   1038.8241     -5724.965      -5518.8474      2860.752       43390.143      116.09208    
     26150   1047.5384     -5727.0007     -5519.1541      3257.6632      43362.891      116.09537    
     26160   1026.2315     -5723.0427     -5519.4237      4268.9873      43335.734      116.08024    
     26170   1021.7456     -5722.3513     -5519.6224      4839.1572      43309.114      116.04948    
     26180   1029.0466     -5723.9297     -5519.7521      4749.3022      43283.658      115.99218    
     26190   1025.6825     -5723.3408     -5519.8307      4457.2362      43259.627      115.89253    
     26200   1017.7493     -5721.8068     -5519.8707      4079.678       43236.955      115.77245    
     26210   1020.6166     -5722.3857     -5519.8808      3696.7985      43215.193      115.66814    
     26220   1007.4933     -5719.73       -5519.8289      3651.7415      43193.919      115.58659    
     26230   1026.1078     -5723.3236     -5519.7291      3479.1693      43173.115      115.52531    
     26240   1047.9526     -5727.5259     -5519.5971      3250.5538      43152.831      115.47961    
     26250   1053.868      -5728.6421     -5519.5396      3129.0339      43133.03       115.4387     
     26260   1034.1422     -5724.7233     -5519.5346      3311.2248      43113.654      115.39974    
     26270   1030.8691     -5724.1014     -5519.5623      3473.3668      43094.849      115.36011    
     26280   1023.1599     -5722.5765     -5519.567       3799.4449      43076.763      115.30915    
     26290   1039.4586     -5725.8182     -5519.5748      3955.894       43059.597      115.26858    
     26300   1036.2133     -5725.1942     -5519.5947      4253.5087      43043.608      115.26349    
     26310   1021.0962     -5722.2378     -5519.6377      4509.6661      43028.918      115.30305    
     26320   1024.6208     -5722.9713     -5519.6719      4493.4904      43015.721      115.37348    
     26330   1029.0821     -5723.8832     -5519.6985      4545.7655      43004.12       115.45136    
     26340   1032.4302     -5724.5973     -5519.7483      4904.6212      42993.992      115.51632    
     26350   1041.5765     -5726.4701     -5519.8064      5006.9716      42985.53       115.56859    
     26360   1076.9447     -5733.6401     -5519.9589      4383.4942      42978.832      115.60739    
     26370   1085.1154     -5735.6023     -5520.2999      3866.5255      42973.542      115.62644    
     26380   1067.0453     -5732.595      -5520.8779      4070.7725      42969.42       115.63673    
     26390   1049.3776     -5729.833      -5521.6215      4445.0572      42966.627      115.64024    
     26400   1060.5991     -5732.9692     -5522.5312      4223.4244      42965.069      115.64558    
     26410   1048.6782     -5731.6531     -5523.5803      3889.2277      42964.127      115.66569    
     26420   1032.0144     -5729.4862     -5524.7198      3564.5115      42963.268      115.69764    
     26430   1009.0262     -5726.0215     -5525.8162      3292.0608      42962.383      115.72899    
     26440   1015.4186     -5728.2719     -5526.7983      3118.6201      42961.625      115.75547    
     26450   1034.2333     -5732.8641     -5527.6574      2827.1335      42961.194      115.79568    
     26460   1036.6676     -5734.0898     -5528.4001      2848.5077      42961.166      115.87261    
     26470   1030.5015     -5733.5094     -5529.0431      3127.4616      42961.627      115.98835    
     26480   1004.0297     -5728.7421     -5529.5282      3628.5671      42962.613      116.12317    
     26490   1008.422      -5729.9564     -5529.8711      3713.2739      42964.291      116.23803    
     26500   1022.4241     -5732.9784     -5530.1148      3538.2875      42966.729      116.32049    
     26510   1010.1221     -5730.7427     -5530.32        3608.1217      42969.91       116.37739    
     26520   992.90968     -5727.4834     -5530.4759      3661.6202      42973.991      116.4315     
     26530   994.53649     -5727.891      -5530.5607      3547.6827      42978.92       116.50633    
     26540   1001.1586     -5729.2277     -5530.5834      3467.7595      42984.337      116.5837     
     26550   1004.1841     -5729.8271     -5530.5826      3461.3654      42989.765      116.65969    
     26560   1001.84       -5729.3335     -5530.5541      3505.4637      42994.929      116.75106    
     26570   1017.3724     -5732.3903     -5530.529       3327.9662      42999.822      116.88739    
     26580   1018.1283     -5732.5345     -5530.5233      3220.3536      43004.569      117.05069    
     26590   1017.1776     -5732.3877     -5530.5651      3212.3794      43009.421      117.19618    
     26600   994.32219     -5727.9126     -5530.6248      3475.6889      43014.559      117.29428    
     26610   984.17893     -5725.9468     -5530.6716      3521.674       43020.147      117.36272    
     26620   972.07712     -5723.5071     -5530.6331      3528.103       43026.24       117.43786    
     26630   974.95023     -5723.9436     -5530.4995      3213.7079      43032.731      117.52928    
     26640   990.79754     -5726.859      -5530.2706      2928.5081      43039.299      117.61922    
     26650   1009.1851     -5730.23       -5529.9932      2832.3604      43045.626      117.70869    
     26660   1025.1031     -5733.1249     -5529.7297      2854.4038      43051.688      117.81109    
     26670   1042.3926     -5736.3658     -5529.5402      2986.3557      43057.659      117.9298     
     26680   1041.517      -5736.1443     -5529.4924      3336.4198      43063.655      118.04045    
     26690   1010.6954     -5730.1088     -5529.5723      3926.5465      43069.922      118.12846    
     26700   998.32645     -5727.8027     -5529.7205      4180.8525      43076.71       118.21512    
     26710   976.48732     -5723.6038     -5529.8547      4364.5741      43084.014      118.32237    
     26720   984.89996     -5725.3623     -5529.944       4056.7914      43091.714      118.44568    
     26730   1013.5568     -5731.1217     -5530.0175      3472.3965      43099.655      118.57777    
     26740   1002.7535     -5729.0944     -5530.1337      3502.8807      43107.799      118.71978    
     26750   995.61452     -5727.8394     -5530.2952      3730.9078      43116.338      118.88599    
     26760   1022.7598     -5733.4351     -5530.5049      3548.2968      43125.293      119.07574    
     26770   1012.5665     -5731.7161     -5530.8084      3959.2837      43134.461      119.26794    
     26780   1004.0489     -5730.4175     -5531.1998      4271.3495      43143.923      119.4328     
     26790   1012.2573     -5732.532      -5531.6856      4237.7875      43153.728      119.59443    
     26800   1012.7492     -5733.23       -5532.286       4263.9327      43164.072      119.78975    
     26810   1009.1124     -5733.2281     -5533.0058      4165.8044      43175.356      120.00069    
     26820   996.10041     -5731.4608     -5533.8202      3990.3267      43187.799      120.20142    
     26830   1004.7557     -5734.0701     -5534.7122      3406.3188      43201.395      120.39647    
     26840   983.28334     -5730.7258     -5535.6283      3298.5665      43215.79       120.57142    
     26850   975.38544     -5730.0516     -5536.5212      3336.5812      43230.858      120.73506    
     26860   983.97996     -5732.569      -5537.3333      3162.2266      43246.572      120.92007    
     26870   1002.4032     -5737.0327     -5538.1416      3039.4903      43262.882      121.11436    
     26880   987.99781     -5734.949      -5538.9161      3226.6335      43279.793      121.30681    
     26890   981.50218     -5734.3806     -5539.6365      3097.5777      43297.219      121.48963    
     26900   977.79174     -5734.2869     -5540.279       2842.7124      43314.943      121.65701    
     26910   974.57956     -5734.1975     -5540.827       2681.5679      43332.739      121.82947    
     26920   986.80617     -5737.0924     -5541.2959      2311.0887      43350.443      122.02892    
     26930   994.37366     -5739.0363     -5541.7383      2131.1185      43367.743      122.25856    
     26940   980.06888     -5736.6156     -5542.1559      2281.7445      43384.435      122.49198    
     26950   963.78026     -5733.7654     -5542.5376      2378.6402      43400.681      122.69893    
     26960   951.90023     -5731.6864     -5542.8158      2651.1777      43416.773      122.8735     
     26970   956.37704     -5732.7664     -5543.0075      2833.1505      43432.735      123.02162    
     26980   937.79684     -5729.157      -5543.0847      3192.6936      43448.338      123.17128    
     26990   935.22245     -5728.6077     -5543.0461      3109.8623      43463.517      123.33948    
     27000   947.5739      -5730.9012     -5542.889       2624.3714      43478.222      123.51376    
     27010   969.58638     -5735.0402     -5542.6603      2028.8679      43492.193      123.69315    
     27020   971.67982     -5735.1951     -5542.3999      2068.0182      43505.251      123.88158    
     27030   972.55886     -5735.1343     -5542.1647      2375.9951      43517.475      124.07266    
     27040   972.08691     -5734.8029     -5541.9269      2581.6354      43528.812      124.27084    
     27050   988.69757     -5737.8816     -5541.7098      2308.4321      43539.189      124.47529    
     27060   1001.0929     -5740.1865     -5541.5553      1973.1645      43548.62       124.67973    
     27070   979.0498      -5735.7422     -5541.4847      2077.2975      43557.121      124.86764    
     27080   963.4442      -5732.6213     -5541.4602      2272.1603      43564.941      125.01805    
     27090   962.96179     -5732.4902     -5541.4248      2206.5985      43572.244      125.12581    
     27100   956.51897     -5731.1536     -5541.3665      1836.15        43578.796      125.19833    
     27110   966.47112     -5733.0458     -5541.2841      1404.8702      43584.171      125.24678    
     27120   959.41634     -5731.5542     -5541.1923      1447.9128      43588.111      125.27128    
     27130   940.73024     -5727.7141     -5541.0598      1827.3006      43590.773      125.27707    
     27140   961.48222     -5731.6432     -5540.8713      1774.5801      43592.543      125.26755    
     27150   978.39328     -5734.7703     -5540.643       1724.0217      43593.501      125.27454    
     27160   992.96751     -5737.4608     -5540.4418      1994.7779      43593.683      125.31692    
     27170   995.08727     -5737.7633     -5540.3237      2376.773       43593.352      125.39189    
     27180   1010.4643     -5740.8116     -5540.3211      2317.5661      43592.837      125.49843    
     27190   1011.8204     -5741.2507     -5540.4911      2207.5134      43592.024      125.62662    
     27200   998.16447     -5738.941      -5540.8909      2200.7565      43590.595      125.75256    
     27210   977.73061     -5735.5122     -5541.5165      2031.9537      43588.481      125.86405    
     27220   947.70571     -5730.3673     -5542.3289      1968.3903      43585.666      125.95751    
     27230   942.55527     -5730.2791     -5543.2626      1650.6914      43582.135      126.0338     
     27240   957.81847     -5734.3729     -5544.328       1043.5099      43577.603      126.09849    
     27250   942.55409     -5732.5045     -5545.4883      1114.5031      43571.746      126.16812    
     27260   941.23377     -5733.4325     -5546.6782      1165.2206      43564.795      126.25853    
     27270   930.9176      -5732.5074     -5547.8001      1413.7905      43556.989      126.33877    
     27280   930.19828     -5733.3684     -5548.8037      1623.34        43548.442      126.38501    
     27290   925.90453     -5733.3457     -5549.633       1573.0489      43539.213      126.42279    
     27300   941.36757     -5737.1085     -5550.3277      1182.6488      43529.175      126.4854     
     27310   937.15687     -5736.8375     -5550.8922      1030.1931      43518.109      126.5594     
     27320   940.60048     -5737.9849     -5551.3563      920.06281      43506.085      126.66861    
     27330   948.53694     -5739.9551     -5551.7518      953.17833      43493.264      126.81419    
     27340   948.38737     -5740.2664     -5552.0927      1173.5595      43479.697      126.94605    
     27350   958.53258     -5742.5936     -5552.407       1198.0321      43465.483      127.04427    
     27360   968.12885     -5744.8162     -5552.7255      1279.96        43450.834      127.10041    
     27370   961.32342     -5743.8157     -5553.0753      1660.509       43435.963      127.11756    
     27380   959.56239     -5743.8384     -5553.4475      1844.8036      43420.991      127.08498    
     27390   967.51886     -5745.8145     -5553.8449      1812.7278      43405.771      127.004      
     27400   970.48421     -5746.8442     -5554.2863      2085.9941      43390.074      126.9158     
     27410   976.20346     -5748.4852     -5554.7925      2249.0129      43374.085      126.85887    
     27420   954.74948     -5744.7916     -5555.3557      2470.7331      43358.059      126.84151    
     27430   927.2354      -5739.8624     -5555.8856      2636.1268      43342.226      126.85745    
     27440   923.32243     -5739.5559     -5556.3555      2390.8435      43326.541      126.85876    
     27450   903.27503     -5735.9132     -5556.6905      2356.7498      43310.883      126.81443    
     27460   924.01135     -5740.259      -5556.9219      2006.5125      43295.338      126.73517    
     27470   935.03269     -5742.6075     -5557.0837      2076.46        43279.748      126.64463    
     27480   931.64988     -5742.0604     -5557.2077      2566.6245      43264.179      126.54313    
     27490   945.66472     -5744.9524     -5557.319       2666.6426      43248.955      126.41698    
     27500   942.36205     -5744.4023     -5557.4242      2755.6225      43234.292      126.28544    
     27510   935.57484     -5743.1803     -5557.5488      2710.7213      43220.394      126.18981    
     27520   919.39029     -5740.0723     -5557.6521      2683.9906      43207.322      126.16453    
     27530   914.96661     -5739.2501     -5557.7076      2595.2567      43194.997      126.2012     
     27540   934.04905     -5743.0422     -5557.7135      2300.8374      43183.354      126.24256    
     27550   942.60891     -5744.7444     -5557.7173      2168.1814      43172.208      126.24334    
     27560   929.62104     -5742.1893     -5557.7392      2361.8184      43161.301      126.20251    
     27570   933.96913     -5743.0649     -5557.7521      2309.3007      43150.588      126.13856    
     27580   935.49365     -5743.4019     -5557.7865      2484.3911      43140.043      126.06482    
     27590   912.10654     -5738.7762     -5557.8012      3262.4446      43129.635      125.99615    
     27600   918.18973     -5739.9672     -5557.7852      3365.79        43119.522      125.96499    
     27610   937.52419     -5743.7468     -5557.7286      3034.8227      43109.714      125.98266    
     27620   933.22891     -5742.8427     -5557.6767      2959.0397      43100.098      126.03327    
     27630   905.56361     -5737.2935     -5557.6167      3189.3155      43090.77       126.06074    
     27640   918.06815     -5739.6519     -5557.494       2948.1479      43082.082      126.01665    
     27650   943.33632     -5744.4873     -5557.3159      2520.4504      43074.05       125.91793    
     27660   954.75441     -5746.5791     -5557.1422      2515.5777      43066.401      125.81032    
     27670   956.52777     -5746.8263     -5557.0375      2614.6177      43058.857      125.73053    
[...]
     48200   759.03068     -5757.1816     -5606.5791     -1271.7935      47119.094      234.53229    
     48210   749.68941     -5755.5619     -5606.8128     -921.43742      47096.363      234.48355    
     48220   750.66238     -5755.9698     -5607.0277     -731.33309      47070.011      234.42127    
     48230   762.86497     -5758.5912     -5607.2279     -798.47453      47040.844      234.34743    
     48240   766.89493     -5759.6191     -5607.4562     -800.60853      47008.763      234.26089    
     48250   766.01002     -5759.7158     -5607.7285     -745.22998      46973.777      234.16563    
     48260   753.70462     -5757.5618     -5608.016      -472.8925       46936.23       234.05797    
     48270   753.70398     -5757.8306     -5608.2849     -327.17132      46897.114      233.92929    
     48280   754.58238     -5758.2532     -5608.5332     -263.39834      46857.084      233.77207    
     48290   745.54879     -5756.6873     -5608.7597     -64.422716      46816.544      233.59194    
     48300   738.90069     -5755.5414     -5608.9329      19.962254      46776.222      233.39957    
     48310   744.38603     -5756.7513     -5609.0545     -20.636761      46736.461      233.21177    
     48320   755.75941     -5759.0973     -5609.1438     -79.79289       46697.147      233.05781    
     48330   768.84596     -5761.8043     -5609.2543     -125.03685      46658.045      232.93842    
     48340   763.0348      -5760.8188     -5609.4218      167.99427      46619.062      232.84187    
     48350   741.63054     -5756.7437     -5609.5935      566.2243       46581.292      232.762      
     48360   748.04678     -5758.1572     -5609.734       556.52113      46546.194      232.6997     
     48370   764.37815     -5761.5293     -5609.8657      375.05158      46513.772      232.63788    
     48380   764.32624     -5761.6798     -5610.0265      469.06835      46483.39       232.55081    
     48390   763.06602     -5761.6414     -5610.2381      576.52404      46455.276      232.45299    
     48400   755.51392     -5760.3816     -5610.4768      662.56077      46429.852      232.38653    
     48410   751.04101     -5759.7393     -5610.722       605.35925      46407.372      232.35503    
     48420   755.66546     -5760.9034     -5610.9686      397.84112      46387.573      232.30623    
     48430   755.38265     -5761.1067     -5611.228       266.26436      46369.649      232.20836    
     48440   743.70739     -5759.0449     -5611.4827      339.21766      46353.094      232.0859     
     48450   744.15951     -5759.3646     -5611.7127      368.45177      46338.071      231.97806    
     48460   744.55462     -5759.6349     -5611.9046      446.88723      46324.721      231.89685    
     48470   742.62845     -5759.4119     -5612.0637      482.63766      46313.29       231.84516    
     48480   742.79523     -5759.5726     -5612.1914      397.93464      46303.914      231.84052    
     48490   737.88104     -5758.689      -5612.2828      289.13208      46296.246      231.89133    
     48500   731.90022     -5757.542      -5612.3225      253.0138       46289.819      231.98023    
     48510   736.81664     -5758.4967     -5612.3017      280.5332       46284.479      232.07483    
     48520   743.09723     -5759.673      -5612.2318      439.35777      46280.337      232.15081    
     48530   745.89967     -5760.1271     -5612.1299      771.44451      46278.061      232.19905    
     48540   747.19144     -5760.2651     -5612.0117      1139.2742      46278.971      232.23933    
     48550   754.3209      -5761.5564     -5611.8883      1199.5952      46284.377      232.29776    
     48560   759.21676     -5762.4075     -5611.768       1028.5426      46294.493      232.36779    
     48570   759.90516     -5762.4562     -5611.6801      844.88801      46308.658      232.44194    
     48580   752.62216     -5760.9507     -5611.6197      799.86881      46326.163      232.52399    
     48590   756.38062     -5761.6534     -5611.5767      612.4915       46346.66       232.62555    
     48600   754.2263      -5761.1938     -5611.5445      651.03772      46369.552      232.74076    
     48610   751.17962     -5760.5742     -5611.5294      709.259        46394.888      232.86804    
     48620   749.23158     -5760.1772     -5611.519       707.15292      46422.918      233.01669    
     48630   747.92726     -5759.8997     -5611.5002      618.22885      46453.613      233.19041    
     48640   750.6157      -5760.3944     -5611.4615      341.53868      46486.524      233.38823    
     48650   755.51231     -5761.3052     -5611.4007     -8.1490401      46520.583      233.59736    
     48660   753.24934     -5760.7917     -5611.3363     -258.88847      46554.416      233.81192    
     48670   740.63548     -5758.2034     -5611.2507     -364.60649      46586.992      234.02587    
     48680   744.58971     -5758.8604     -5611.1231     -565.09429      46617.769      234.21467    
     48690   746.84668     -5759.1233     -5610.9382     -476.42803      46646.141      234.36321    
     48700   753.33712     -5760.1923     -5610.7194     -471.81305      46672.259      234.4798     
     48710   761.62939     -5761.6033     -5610.4851     -484.70602      46696.25       234.58696    
     48720   753.97695     -5759.8689     -5610.2691     -335.61325      46718.105      234.69095    
     48730   749.49098     -5758.7692     -5610.0594     -206.67795      46738.413      234.7809     
     48740   755.80449     -5759.7968     -5609.8343     -304.42498      46757.615      234.85147    
     48750   755.60176     -5759.5294     -5609.6072     -378.34674      46775.443      234.9291     
     48760   762.15664     -5760.6222     -5609.3994     -539.87755      46791.531      235.03781    
     48770   763.61496     -5760.739      -5609.2269     -462.01169      46805.412      235.18055    
     48780   765.29017     -5760.9452     -5609.1007     -419.9736       46817.285      235.34662    
     48790   755.45677     -5758.9252     -5609.0317     -268.43273      46827.389      235.5115     
     48800   756.09243     -5759.005      -5608.9854     -285.38735      46836.242      235.65449    
     48810   772.72901     -5762.2965     -5608.976      -418.80101      46843.819      235.77873    
     48820   774.55896     -5762.7264     -5609.0429     -337.38132      46849.675      235.89495    
     48830   767.66336     -5761.5344     -5609.219      -170.53897      46854.091      236.00723    
     48840   751.7251      -5758.6139     -5609.4609      169.08694      46857.845      236.13195    
     48850   752.40117     -5759.0178     -5609.7307      298.08603      46862.182      236.2788     
     48860   765.93417     -5762.0054     -5610.0331      220.29553      46867.66       236.43107    
     48870   766.02447     -5762.4012     -5610.411       193.23819      46874.059      236.55506    
     48880   753.53111     -5760.3717     -5610.8603      214.14352      46881.246      236.63763    
     48890   749.89889     -5760.1274     -5611.3368      34.350092      46889.152      236.68501    
     48900   754.99071     -5761.6278     -5611.8268     -73.38503       46897.196      236.71429    
     48910   758.71991     -5762.8942     -5612.3533     -193.71623      46904.868      236.74595    
     48920   747.51737     -5761.229      -5612.9109     -141.2482       46911.769      236.78134    
     48930   741.34303     -5760.5541     -5613.461      -221.69773      46917.984      236.82468    
     48940   743.17841     -5761.4323     -5613.975      -378.9497       46923.27       236.87606    
     48950   752.85166     -5763.8456     -5614.469      -643.38864      46926.918      236.92983    
     48960   751.54607     -5764.0891     -5614.9716     -689.57322      46927.973      236.9931     
     48970   733.11395     -5760.9232     -5615.4629     -442.30655      46926.282      237.06752    
     48980   723.76284     -5759.4858     -5615.8809     -265.18126      46922.747      237.14691    
     48990   733.45824     -5761.7314     -5616.2028     -330.17254      46918.079      237.21819    
     49000   749.88959     -5765.2584     -5616.4696     -599.18782      46912.018      237.2603     
     49010   755.49221     -5766.6313     -5616.7309     -817.60031      46903.547      237.26836    
     49020   754.94592     -5766.8145     -5617.0224     -874.63249      46891.786      237.25874    
     49030   746.55189     -5765.4591     -5617.3325     -641.4511       46876.582      237.25432    
     49040   743.57251     -5765.1636     -5617.6281     -344.18881      46858.824      237.271      
     49050   750.35268     -5766.7991     -5617.9184     -229.11617      46839.633      237.29253    
     49060   752.44806     -5767.5048     -5618.2083     -98.775768      46819.579      237.31896    
     49070   759.66384     -5769.2567     -5618.5285     -19.851447      46799.157      237.35828    
     49080   756.28734     -5768.9487     -5618.8905      8.2242228      46778.731      237.39151    
     49090   763.30718     -5770.7545     -5619.3034     -229.99423      46758.311      237.39228    
     49100   765.74734     -5771.7411     -5619.8058     -448.14454      46737.037      237.34859    
     49110   743.46602     -5767.8911     -5620.3768     -273.33935      46714.151      237.25565    
     49120   720.64867     -5763.91       -5620.923       66.898068      46690.306      237.11835    
     49130   718.8049      -5764.0049     -5621.3837      159.2063       46666.722      236.96177    
     49140   718.41777     -5764.2883     -5621.744       174.97911      46643.836      236.80893    
     49150   716.27667     -5764.1199     -5622.0003      283.11965      46621.812      236.68961    
     49160   717.18168     -5764.4451     -5622.146       353.54011      46600.995      236.61373    
     49170   712.99584     -5763.6357     -5622.1672      498.9573       46581.714      236.55373    
     49180   716.82681     -5764.2751     -5622.0464      569.99598      46564.495      236.49374    
     49190   728.83555     -5766.397      -5621.7856      404.385        46549.516      236.44096    
     49200   728.57327     -5765.941      -5621.3817      510.01336      46536.387      236.39038    
     49210   730.35297     -5765.7396     -5620.8271      542.52231      46525.351      236.32905    
     49220   723.92944     -5763.7288     -5620.0908      673.0676       46516.602      236.2613     
     49230   717.6221      -5761.5249     -5619.1384      643.93023      46510.563      236.20009    
     49240   730.87502     -5762.9692     -5617.9532      276.34923      46507.045      236.16215    
     49250   736.26301     -5762.6891     -5616.604       57.285474      46504.73       236.17132    
     49260   740.80971     -5762.2394     -5615.2521     -57.848105      46502.675      236.23503    
     49270   751.74831     -5763.1824     -5614.0247     -244.74373      46500.34       236.33956    
     49280   756.78396     -5763.1663     -5613.0095     -325.34495      46497.07       236.4615     
     49290   767.07834     -5764.4425     -5612.2432     -357.98753      46492.468      236.58381    
     49300   773.87974     -5765.254      -5611.7052     -139.61065      46486.515      236.69489    
     49310   756.81599     -5761.5165     -5611.3533      450.63679      46480.156      236.79344    
     49320   752.43928     -5760.3977     -5611.103       749.62375      46475.514      236.87426    
     49330   772.85212     -5764.2616     -5610.9167      552.19869      46473.73       236.92892    
     49340   773.68526     -5764.3392     -5610.829       578.73622      46474.284      236.9483     
     49350   756.55191     -5760.939      -5610.8282      867.76791      46477.281      236.94084    
     49360   758.6499      -5761.3975     -5610.8705      816.06492      46483.64       236.94062    
     49370   761.54957     -5762.0497     -5610.9473      605.45995      46493.291      236.97236    
     49380   749.2728      -5759.7275     -5611.0611      552.14879      46505.516      237.03139    
     49390   737.65287     -5757.5295     -561CHGNet v0.3.0 initialized with 412,525 parameters
CHGNet will run on cuda:0
CHGNet will run on cuda:0
1.1686      582.75881      46520.077      237.09925    
     49400   735.49735     -5757.16       -5611.2268      509.61308      46537.051      237.16256    
     49410   750.08671     -5760.0703     -5611.2424      215.66562      46556.088      237.22678    
     49420   758.68398     -5761.7805     -5611.2468     -115.81433      46576.06       237.28294    
     49430   757.09428     -5761.4956     -5611.2773     -279.07244      46595.719      237.31063    
     49440   765.82455     -5763.297      -5611.3464     -558.51011      46614.242      237.33108    
     49450   766.09826     -5763.4801     -5611.4752     -643.65604      46630.643      237.37934    
     49460   763.30092     -5763.126      -5611.6761     -570.57863      46644.542      237.47322    
     49470   766.71373     -5764.0752     -5611.9482     -436.45085      46656.17       237.61432    
     49480   759.76261     -5763.0374     -5612.2896     -106.74717      46666.121      237.80596    
     49490   757.26543     -5762.9432     -5612.6909      100.62413      46675.632      238.03545    
     49500   758.62076     -5763.6683     -5613.1471      135.93359      46685.562      238.2601     
     49510   752.33919     -5762.9216     -5613.6468      153.47503      46696.132      238.44267    
     49520   750.58826     -5763.0996     -5614.1721     -49.699951      46707.309      238.58853    
     49530   740.37884     -5761.6047     -5614.703      -55.9045        46718.45       238.72621    
     49540   727.35104     -5759.5118     -5615.195      -7.9200386      46729.42       238.88377    
     49550   728.10891     -5760.0798     -5615.6126     -179.16931      46740.355      239.0624     
     49560   733.32354     -5761.4528     -5615.9509     -513.84017      46750.595      239.2444     
     49570   737.11391     -5762.4935     -5616.2396     -855.89755      46758.788      239.42428    
     49580   731.49274     -5761.615      -5616.4764     -1062.4631      46763.545      239.59357    
     49590   730.90063     -5761.6692     -5616.648      -1216.433       46763.986      239.72868    
     49600   740.33743     -5763.6636     -5616.77       -1410.865       46759.394      239.818      
     49610   735.73444     -5762.8334     -5616.8531     -1193.8564      46749.081      239.87682    
     49620   725.06857     -5760.7467     -5616.8827     -741.78446      46733.81       239.90709    
     49630   718.30934     -5759.3364     -5616.8136     -165.45112      46715.439      239.89406    
     49640   718.99896     -5759.2683     -5616.6086      194.78054      46696.164      239.84536    
     49650   732.53771     -5761.6157     -5616.2697      397.16459      46677.467      239.78128    
     49660   737.66417     -5762.1636     -5615.8004      691.15325      46660.311      239.73007    
     49670   743.17736     -5762.6847     -5615.2277      814.07421      46645.796      239.70249    
     49680   743.19861     -5762.0127     -5614.5514      737.05846      46634.442      239.6823     
     49690   750.51508     -5762.7045     -5613.7915      234.08754      46625.823      239.65062    
     49700   751.30306     -5762.0229     -5612.9537     -171.28448      46618.102      239.59525    
     49710   747.10317     -5760.3164     -5612.0804     -252.73947      46609.683      239.5285     
     49720   751.97652     -5760.3794     -5611.1765     -279.34544      46600.115      239.46368    
     49730   765.6586      -5762.2017     -5610.284      -250.44249      46589.291      239.42322    
     49740   772.15694     -5762.6785     -5609.4715     -98.980565      46577.336      239.41622    
     49750   768.6332      -5761.2949     -5608.7871      107.87609      46564.834      239.42979    
     49760   774.7178      -5761.9556     -5608.2405      82.381307      46552.535      239.44416    
     49770   773.88196     -5761.3802     -5607.831       63.590449      46540.456      239.45302    
     49780   767.6989      -5759.8696     -5607.5472     -22.020023      46528.447      239.46069    
     49790   774.11774     -5760.9738     -5607.3777     -297.19159      46516.119      239.47593    
     49800   770.70356     -5760.2281     -5607.3095     -433.2911       46502.455      239.49413    
     49810   761.14902     -5758.3553     -5607.3325     -466.03243      46486.845      239.50548    
     49820   751.70611     -5756.5485     -5607.3992     -439.63644      46469.127      239.50383    
     49830   748.05396     -5755.8922     -5607.4676     -383.54944      46449.368      239.49276    
     49840   751.64564     -5756.6613     -5607.524      -443.58315      46427.668      239.47806    
     49850   752.72964     -5756.9333     -5607.581      -413.95417      46403.857      239.4432     
     49860   748.85376     -5756.2288     -5607.6454     -180.36331      46378.039      239.36535    
     49870   749.88123     -5756.4847     -5607.6976      72.795185      46351.046      239.24839    
     49880   756.06969     -5757.7632     -5607.7481      331.63826      46323.908      239.10478    
     49890   747.40097     -5756.0922     -5607.7971      509.07326      46297.624      238.94811    
     49900   749.09188     -5756.4646     -5607.834       308.87594      46272.812      238.79215    
     49910   755.41803     -5757.7526     -5607.8668     -29.187213      46248.756      238.64937    
     49920   762.53563     -5759.2233     -5607.9253     -317.77782      46224.176      238.53074    
     49930   765.71118     -5759.9572     -5608.0291     -380.02223      46197.972      238.44499    
     49940   763.51283     -5759.6785     -5608.1866     -198.71576      46169.853      238.39251    
     49950   760.61052     -5759.2914     -5608.3754      149.345        46140.536      238.35995    
     49960   767.24549     -5760.8353     -5608.6028      327.29577      46111.225      238.34064    
     49970   762.41949     -5760.1421     -5608.8671      529.5654       46082.717      238.32801    
     49980   756.0362      -5759.1599     -5609.1515      515.5613       46055.721      238.29869    
     49990   755.56926     -5759.3569     -5609.4412      339.29124      46030.246      238.23654    
     50000   758.44158     -5760.2168     -5609.7311      193.23467      46005.678      238.14731    
Loop time of 8423.92 on 1 procs for 20000 steps with 1536 atoms

Performance: 0.205 ns/day, 116.999 hours/ns, 2.374 timesteps/s, 3.647 katom-step/s
120.9% CPU use with 1 MPI tasks x 1 OpenMP threads

MPI task timing breakdown:
Section |  min time  |  avg time  |  max time  |%varavg| %total
---------------------------------------------------------------
Pair    | 8299.5     | 8299.5     | 8299.5     |   0.0 | 98.52
Bond    | 0.014439   | 0.014439   | 0.014439   |   0.0 |  0.00
Neigh   | 6.1205     | 6.1205     | 6.1205     |   0.0 |  0.07
Comm    | 0.70319    | 0.70319    | 0.70319    |   0.0 |  0.01
Output  | 115.9      | 115.9      | 115.9      |   0.0 |  1.38
Modify  | 1.504      | 1.504      | 1.504      |   0.0 |  0.02
Other   |            | 0.1366     |            |       |  0.00

Nlocal:           1536 ave        1536 max        1536 min
Histogram: 1 0 0 0 0 0 0 0 0 0
Nghost:           2576 ave        2576 max        2576 min
Histogram: 1 0 0 0 0 0 0 0 0 0
Neighs:              0 ave           0 max           0 min
Histogram: 1 0 0 0 0 0 0 0 0 0
FullNghs:        52078 ave       52078 max       52078 min
Histogram: 1 0 0 0 0 0 0 0 0 0

Total # of neighbors = 52078
Ave neighs/atom = 33.904948
Ave special neighs/atom = 0
Neighbor list builds = 2000
Dangerous builds = 2000
System init for write_data ...
System init for write_restart ...
Total wall time: 3:36:09
