LAMMPS (2 Aug 2023)
OMP_NUM_THREADS environment is not set. Defaulting to 1 thread. (src/comm.cpp:98)
  using 1 OpenMP thread(s) per MPI task
Reading data file ...
  orthogonal box = (0 0 0) to (83.2 20.8 41.6)
  4 by 1 by 2 MPI processor grid
  reading atoms ...
  4096 atoms
Finding 1-2 1-3 1-4 neighbors ...
  special bond factors lj:    0        0        0       
  special bond factors coul:  0        0        0       
     0 = max # of 1-2 neighbors
     0 = max # of 1-3 neighbors
     0 = max # of 1-4 neighbors
     1 = max # of special neighbors
  special bonds CPU = 0.002 seconds
  read_data CPU = 0.048 seconds
2304 atoms in group gSolid
2048 atoms in group gLiquid
Neighbor list info ...
  update: every = 1 steps, delay = 10 steps, check = yes
  max neighbors/atom: 2000, page size: 100000
  master list distance cutoff = 6.22
  ghost atom cutoff = 6.22
  binsize = 3.11, bins = 27 7 14
  1 neighbor lists, perpetual/occasional/extra = 1 0 0
  (1) pair quip, perpetual
      attributes: full, newton on
      pair build: full/bin
      stencil: full/bin/3d
      bin: standard
Setting up Verlet run ...
  Unit style    : metal
  Current step  : 0
  Time step     : 0.001
Per MPI rank memory allocation (min/avg/max) = 6.498 | 6.498 | 6.498 Mbytes
   Step          Temp          PotEng         TotEng         Press          Volume        c_msd[4]   
         0   300           -44876.369     -44717.573      8697.5405      71991.296      0            
        10   181.72127     -44813.803     -44717.614      9269.4933      72031.634      0.0017457075 
        20   55.168529     -44747.03      -44717.828      7729.2787      72155.708      0.0047686106 
        30   109.53753     -44775.683     -44717.703      60.705584      72345.179      0.0069722975 
        40   165.02631     -44803.514     -44716.162     -7148.9539      72533.568      0.0092568195 
        50   130.94424     -44783.65      -44714.339     -9419.1363      72656.626      0.011403044  
        60   138.66502     -44786.338     -44712.94      -10202.078      72690.819      0.011564947  
        70   195.88412     -44815.387     -44711.702     -9894.6775      72630.685      0.0095461905 
        80   181.16847     -44806.458     -44710.562     -4919.7519      72485.312      0.0071757709 
        90   126.72723     -44776.272     -44709.193      2076.8603      72301.806      0.0057041537 
       100   142.05591     -44782.558     -44707.365      6227.986       72142.447      0.0048382574 
       110   170.45997     -44795.394     -44705.166      8423.1021      72045.149      0.0044626751 
       120   145.53556     -44780.318     -44703.283      9812.381       72027.648      0.0045257467 
       130   150.38213     -44781.631     -44702.031      7957.2584      72096.335      0.0043886674 
       140   194.7081      -44803.585     -44700.522      3016.18        72230.612      0.0045708824 
       150   184.30931     -44796         -44698.441     -1304.8876      72385.778      0.0063062902 
       160   145.17491     -44773.204     -44696.36      -4223.2543      72521.814      0.0090059188 
       170   155.36287     -44776.54      -44694.304     -7140.5572      72611.574      0.010889364  
       180   180.42703     -44787.665     -44692.161     -8405.3802      72632.607      0.01114484   
       190   173.70543     -44782.219     -44690.274     -6400.0564      72578.977      0.010117712  
       200   169.17381     -44778.096     -44688.549     -2890.2031      72471.841      0.0084586575 
       210   184.20003     -44784.022     -44686.521      508.80393      72344.971      0.0068843194 
       220   182.26026     -44780.615     -44684.141      4002.9219      72230.647      0.006025952  
       230   166.69564     -44770.024     -44681.788      6696.2336      72158.652      0.0057940223 
       240   176.89672     -44773.283     -44679.648      6955.372       72148.9        0.0056683036 
       250   196.97289     -44781.791     -44677.529      5136.6709      72200.325      0.0057801212 
       260   193.96295     -44778.043     -44675.375      2554.2791      72294.544      0.0066200082 
       270   187.03684     -44772.168     -44673.165     -543.59025      72406.376      0.0081211118 
       280   190.93685     -44771.812     -44670.745     -3567.4845      72507.453      0.009809993  
       290   188.67921     -44768.103     -44668.232     -5235.8024      72572.058      0.011135122  
       300   184.33351     -44763.452     -44665.881     -5402.6186      72587.026      0.011521568  
       310   193.43643     -44766.035     -44663.645     -4504.0969      72552.926      0.010776149  
       320   204.12499     -44769.388     -44661.34      -2387.7444      72480.396      0.0093654434 
       330   205.47541     -44767.659     -44658.896      500.63794      72390.076      0.0079859647 
       340   211.29762     -44768.159     -44656.315      2817.5807      72307.804      0.0070628766 
       350   218.4394      -44769.275     -44653.65       4223.7108      72253.84       0.0067992986 
       360   204.3148      -44759.258     -44651.11       5083.8482      72239.931      0.0071917346 
       370   186.48569     -44747.575     -44648.865      4700.9522      72271.663      0.0078120038 
       380   203.53562     -44754.37      -44646.635      2339.3881      72343.37       0.0082816092 
       390   237.23875     -44769.552     -44643.976     -927.92991      72433.155      0.0089254145 
       400   237.97746     -44767.068     -44641.101     -3033.4085      72512.387      0.01016351   
       410   212.89699     -44751.153     -44638.462     -3612.0627      72562.473      0.011536287  
       420   206.73543     -44745.455     -44636.025     -3722.1046      72578.141      0.01214277   
       430   221.99889     -44751.037     -44633.529     -3461.3232      72559.429      0.011735537  
       440   234.11095     -44754.851     -44630.931     -2271.5906      72510.289      0.010789881  
       450   236.96201     -44753.73      -44628.301     -288.79875      72442.423      0.0098881424 
       460   229.46726     -44747.115     -44625.654      2069.7903      72374.231      0.0093503261 
       470   216.31694     -44737.549     -44623.048      4084.1165      72326.731      0.0090871983 
       480   225.64376     -44739.925     -44620.487      4307.17        72316.422      0.0087995501 
       490   260.09976     -44755.461     -44617.785      2607.4667      72344.112      0.0086710971 
       500   269.51172     -44757.653     -44614.995      1037.294       72395.048      0.0093831001 
       510   235.52815     -44737.127     -44612.457      494.32878      72455.131      0.010992876  
       520   217.01381     -44724.988     -44610.118     -690.05986      72517.741      0.012538492  
       530   244.33663     -44736.868     -44607.536     -2988.491       72571.478      0.013264246  
       540   266.29505     -44745.639     -44604.684     -4148.9825      72597.33       0.013356501  
       550   255.59324     -44737.306     -44602.016     -3157.1669      72586.117      0.013122039  
       560   247.64626     -44730.638     -44599.553     -1515.2872      72546.606      0.012458138  
       570   260.64182     -44734.991     -44597.028     -352.24537      72493.644      0.011420192  
       580   271.20631     -44737.944     -44594.389      960.15663      72438.846      0.010489308  
       590   263.95916     -44731.512     -44591.793      2593.9075      72394.426      0.010045293  
       600   253.27912     -44723.394     -44589.328      3671.5439      72374.386      0.0099947668 
       610   257.01358     -44722.962     -44586.919      3317.3536      72387.278      0.010085862  
       620   275.97026     -44730.513     -44584.436      1690.5375      72429.289      0.010333267  
       630   287.90323     -44734.277     -44581.884     -134.84762      72485.751      0.011009391  
       640   275.2281      -44725.127     -44579.443     -1104.1226      72540.489      0.012149515  
       650   258.46805     -44713.969     -44577.157     -1608.0632      72584.308      0.013248898  
       660   269.04797     -44717.244     -44574.832     -2661.0448      72611.861      0.01368982   
       670   294.29945     -44728.162     -44572.383     -3423.954       72614.443      0.013383285  
       680   297.25418     -44727.382     -44570.039     -2356.7972      72586.922      0.012772122  
       690   281.64104     -44716.992     -44567.913     -274.79964      72539.073      0.012204048  
       700   277.22149     -44712.583     -44565.844      1273.9785      72489.249      0.011660019  
       710   284.50728     -44714.303     -44563.708      2010.9123      72451.537      0.011135017  
       720   289.53014     -44714.812     -44561.558      2481.4295      72432.922      0.01076698   
       730   293.09377     -44714.626     -44559.485      2552.5793      72437.164      0.010666334  
       740   297.7912      -44715.136     -44557.509      1846.4633      72464.114      0.0109028    
       750   297.32683     -44713.005     -44555.624      733.54888      72507.219      0.011523503  
       760   290.24826     -44707.452     -44553.818     -367.93659      72556.276      0.012421157  
       770   289.21102     -44705.112     -44552.027     -1397.8252      72601.057      0.013253902  
       780   303.63009     -44710.918     -44550.2       -2434.1706      72632.02       0.013692577  
       790   317.54362     -44716.527     -44548.444     -2915.5084      72640.308      0.013724534  
       800   311.47        -44711.811     -44546.944     -2248.9975      72622.418      0.013512107  
       810   298.26149     -44703.541     -44545.665     -799.8572       72584.749      0.013052138  
       820   301.05402     -44703.782     -44544.428      434.36719      72540.236      0.012319422  
       830   314.049       -44709.42      -44543.187      1229.6135      72500.24       0.011601324  
       840   314.61491     -44708.598     -44542.066      1958.7922      72472.321      0.01132277   
       850   303.44226     -44701.756     -44541.138      2462.3556      72462.79       0.011564951  
       860   301.05175     -44699.684     -44540.331      2236.2357      72475.504      0.012081713  
       870   308.84746     -44703.048     -44539.569      1264.2749      72507.954      0.012756164  
       880   311.75133     -44703.88      -44538.864      154.81751      72551.417      0.013634517  
       890   311.87754     -44703.338     -44538.255     -1046.2862      72595.46       0.014634543  
       900   317.79145     -44705.981     -44537.768     -2171.8353      72629.081      0.015571486  
       910   317.50293     -44705.541     -44537.48      -2498.3904      72642.661      0.01628964   
       920   302.51696     -44697.525     -44537.396     -1826.8473      72633.694      0.016524161  
       930   293.58521     -44692.76      -44537.36      -872.74276      72608.225      0.015988083  
       940   312.41207     -44702.651     -44537.285     -507.68556      72574.61       0.014817965  
       950   336.87282     -44715.675     -44537.361     -185.91615      72536.836      0.013669073  
       960   322.18368     -44708.327     -44537.788      1262.1234      72498.976      0.013106853  
       970   284.28078     -44688.817     -44538.342      3006.8961      72473.744      0.012932146  
       980   289.79999     -44692.191     -44538.794      2788.9468      72475.036      0.01258042   
       990   334.07727     -44716.113     -44539.279      884.77516      72500.573      0.012257953  
      1000   341.12566     -44720.691     -44540.126     -251.99871      72534.497      0.012742554  
      1010   298.77865     -44699.425     -44541.275     -19.875028      72566.714      0.013978833  
      1020   279.04756     -44690.001     -44542.296     -436.42954      72597.694      0.015025234  
      1030   309.15963     -44706.82      -44543.175     -2177.6128      72622.973      0.015394153  
      1040   328.20292     -44717.949     -44544.224     -3050.341       72628.39       0.015431467  
      1050   303.0841      -44705.942     -44545.514     -1800.8131      72607.274      0.015361508  
      1060   279.12928     -44694.429     -44546.681     -112.39954      72570.146      0.014863468  
      1070   293.5712      -44703.019     -44547.626      582.65652      72531.741      0.013729895  
      1080   321.83346     -44718.935     -44548.582      783.95147      72498.958      0.012452329  
      1090   324.57532     -44721.584     -44549.78       1385.1887      72474.285      0.011796597  
      1100   298.41149     -44709.079     -44551.124      2220.1463      72462.971      0.011964958  
      1110   278.47254     -44699.737     -44552.335      2332.8173      72471.718      0.012450193  
      1120   288.29421     -44705.945     -44553.345      1154.7836      72500.778      0.012806229  
      1130   306.35401     -44716.418     -44554.258     -516.52446      72539.626      0.013184314  
      1140   305.599       -44716.96      -44555.2       -1456.6298      72573.745      0.013859634  
      1150   290.37398     -44709.838     -44556.137     -1600.8255      72594.519      0.01466958   
      1160   283.91031     -44707.228     -44556.949     -1584.1951      72600.278      0.015160237  
      1170   292.45868     -44712.433     -44557.628     -1621.3294      72591.224      0.015093752  
      1180   301.41023     -44717.799     -44558.257     -1185.4716      72567.693      0.014622315  
      1190   301.05625     -44718.244     -44558.889     -212.33256      72533.972      0.014052816  
      1200   292.46858     -44714.298     -44559.489      905.33972      72498.9        0.013581634  
      1210   284.03231     -44710.322     -44559.978      1708.0532      72472.445      0.013195413  
      1220   284.62072     -44710.974     -44560.319      1887.5052      72461.629      0.01280813   
      1230   292.908       -44715.577     -44560.534      1556.5626      72467.974      0.012497944  
      1240   298.67538     -44718.777     -44560.682      884.93805      72488.288      0.012497432  
      1250   296.4336      -44717.711     -44560.803      138.62242      72516.438      0.012922076  
