LAMMPS (2 Aug 2023)
OMP_NUM_THREADS environment is not set. Defaulting to 1 thread. (src/comm.cpp:98)
  using 1 OpenMP thread(s) per MPI task
read_restart    ../structure.ready
Reading restart file ...
  restart file = 2 Aug 2023, LAMMPS = 2 Aug 2023
  restoring atom style full from restart
  orthogonal box = (-1.043091 -0.71039117 -9.0393714) to (23.779066 23.446366 77.247295)
  1 by 1 by 1 MPI processor grid
  pair style chgnet/gpu stores no restart info
  1536 atoms
Finding 1-2 1-3 1-4 neighbors ...
  special bond factors lj:    0        0        0       
  special bond factors coul:  0        0        0       
     0 = max # of 1-2 neighbors
     0 = max # of 1-3 neighbors
     0 = max # of 1-4 neighbors
     1 = max # of special neighbors
  special bonds CPU = 0.002 seconds
  read_restart CPU = 0.088 seconds

pair_style      chgnet/gpu /ocean/projects/cts180021p/wuziqi/clease/lammps-ASC/potentials/CHGNET
pair_coeff      * * MPtrj-efsm Cl K Li

neighbor        0.3 bin
neigh_modify    delay 10

timestep	    0.001
compute	        msd all msd
Resetting peratom fix info from restart file:
  fix style: STORE/ATOM, fix ID: msd_COMPUTE_STORE
thermo_style	custom step temp pe etotal press vol c_msd[4]
thermo	        10
dump	        1 all custom 10 xyz-mix.dump type id x y z
dump	        2 all custom 10 force-mix.dump type id fx fy fz

fix             2 gLiquid npt temp 1500 900.0 $(100.0*dt) z 1.01325 1.01325 $(1000.0*dt) couple none
fix             2 gLiquid npt temp 1500 900.0 0.10000000000000000555 z 1.01325 1.01325 $(1000.0*dt) couple none
fix             2 gLiquid npt temp 1500 900.0 0.10000000000000000555 z 1.01325 1.01325 1 couple none
run             10000
All restart file peratom fix info was re-assigned
Neighbor list info ...
  update: every = 1 steps, delay = 10 steps, check = yes
  max neighbors/atom: 2000, page size: 100000
  master list distance cutoff = 6.3
  ghost atom cutoff = 6.3
  binsize = 3.15, bins = 8 8 28
  1 neighbor lists, perpetual/occasional/extra = 1 0 0
  (1) pair chgnet/gpu, perpetual
      attributes: full, newton on
      pair build: full/bin
      stencil: full/bin/3d
      bin: standard
Per MPI rank memory allocation (min/avg/max) = 6.547 | 6.547 | 6.547 Mbytes
   Step          Temp          PotEng         TotEng         Press          Volume        c_msd[4]   
     20000   1497.4781     -5523.0945     -5225.9734      3591.3069      51739.452      56.877471    
     20010   1507.3617     -5525.0537     -5225.9716      3626.0181      51738.892      57.035414    
     20020   1515.3125     -5526.6555     -5225.9958      3460.2678      51737.549      57.189233    
     20030   1520.6864     -5527.8186     -5226.0926      3265.7285      51735.531      57.322892    
     20040   1507.1645     -5525.2965     -5226.2535      3290.5667      51732.687      57.418706    
     20050   1510.9872     -5526.2769     -5226.4753      3197.5717      51729.166      57.496698    
     20060   1512.5652     -5526.8793     -5226.7647      3079.3511      51725.094      57.570119    
     20070   1488.5298     -5522.4518     -5227.1061      3140.5265      51720.491      57.636278    
     20080   1482.3634     -5521.5751     -5227.4529      3068.8452      51715.394      57.695599    
     20090   1487.8819     -5523.0154     -5227.7983      3070.9878      51709.809      57.751271    
     20100   1492.9777     -5524.3839     -5228.1557      3217.7584      51703.991      57.797965    
     20110   1485.7633     -5523.3523     -5228.5556      3466.2133      51698.009      57.857058    
     20120   1464.7378     -5519.5583     -5228.9334      3680.3401      51691.876      57.963836    
     20130   1468.7267     -5520.7061     -5229.2896      3456.5894      51685.517      58.092648    
     20140   1471.0037     -5521.4956     -5229.6274      3257.1848      51678.613      58.227126    
     20150   1479.1436     -5523.4409     -5229.9576      3073.9271      51670.911      58.3783      
     20160   1475.4087     -5523.0103     -5230.268       2991.2803      51662.192      58.544083    
     20170   1489.942      -5526.2563     -5230.6305      2848.6052      51652.017      58.704873    
     20180   1477.5384     -5524.1902     -5231.0254      3195.3291      51640.289      58.839323    
     20190   1478.5494     -5524.8505     -5231.4851      3512.6169      51627.359      58.938471    
     20200   1504.9714     -5530.5824     -5231.9745      3417.6307      51613.677      59.006876    
     20210   1499.705      -5530.1624     -5232.5994      3521.9197      51599.387      59.075355    
     20220   1503.4273     -5531.6814     -5233.3799      3397.2027      51584.532      59.158164    
     20230   1508.5826     -5533.663      -5234.3386      3174.0782      51568.825      59.245144    
     20240   1504.6709     -5534.0515     -5235.5033      3040.0294      51551.871      59.322617    
     20250   1489.8937     -5532.4299     -5236.8137      3214.8343      51533.779      59.380544    
     20260   1458.5378     -5527.5553     -5238.1605      3767.6852      51515.14       59.405475    
     20270   1467.0597     -5530.5553     -5239.4697      3981.672       51496.772      59.405518    
     20280   1461.3269     -5530.6384     -5240.6902      4389.1348      51479.135      59.404955    
     20290   1465.5088     -5532.6394     -5241.8615      4595.8764      51462.5        59.400405    
     20300   1443.4619     -5529.3131     -5242.9096      4719.0855      51446.903      59.381214    
     20310   1444.1954     -5530.3579     -5243.8089      4311.9145      51431.915      59.359775    
     20320   1434.5923     -5529.1897     -5244.546       3958.5917      51416.866      59.34908     
     20330   1457.6089     -5534.3569     -5245.1464      3743.1741      51401.493      59.341831    
     20340   1470.9774     -5537.4877     -5245.6247      3727.1376      51386.035      59.329773    
     20350   1482.6575     -5540.2654     -5246.0849      3584.8348      51370.927      59.321856    
     20360   1481.3296     -5540.4672     -5246.5502      3487.759       51356.5        59.333871    
     20370   1473.0564     -5539.2839     -5247.0084      3467.4131      51342.964      59.355317    
     20380   1482.0725     -5541.5226     -5247.4582      3295.9149      51330.544      59.376381    
     20390   1478.9449     -5541.3589     -5247.915       3123.3899      51319.407      59.389214    
     20400   1476.0877     -5541.2717     -5248.3948      3136.1927      51309.366      59.391254    
     20410   1458.0802     -5538.1912     -5248.8872      3653.5392      51299.799      59.388507    
     20420   1458.6724     -5538.757      -5249.3355      3838.7347      51290.646      59.403552    
     20430   1472.4768     -5541.9064     -5249.7459      3524.318       51282.224      59.455803    
     20440   1482.7823     -5544.3765     -5250.1712      2936.0411      51274.479      59.53752     
     20450   1472.751      -5542.8746     -5250.6597      2623.7582      51266.887      59.63956     
     20460   1459.624      -5540.7722     -5251.1619      2521.4276      51258.81       59.737954    
     20470   1476.7227     -5544.6859     -5251.683       2270.3461      51249.816      59.8145      
     20480   1440.0604     -5537.9535     -5252.2249      2809.1841      51239.541      59.874037    
     20490   1398.6334     -5530.1968     -5252.6879      3316.5423      51228.279      59.91665     
     20500   1400.4611     -5530.8563     -5252.9848      3211.8562      51216.374      59.954965    
     20510   1394.1318     -5529.6577     -5253.042       3129.2701      51203.637      60.001469    
     20520   1394.8665     -5529.613      -5252.8516      3285.0218      51189.91       60.054374    
     20530   1410.6557     -5532.2538     -5252.3595      3375.3948      51175.181      60.108246    
     20540   1445.2409     -5538.3164     -5251.5599      3443.4511      51159.684      60.158433    
     20550   1467.2711     -5541.6086     -5250.481       3612.8119      51143.819      60.20719     
     20560   1460.8339     -5539.0653     -5249.2149      4129.1608      51128.146      60.253743    
     20570   1433.2705     -5532.1322     -5247.7508      4662.2686      51113.238      60.295158    
     20580   1439.9144     -5531.7579     -5246.0583      4620.4072      51099.383      60.342282    
     20590   1470.5666     -5535.9305     -5244.1491      4210.7799      51086.698      60.397353    
     20600   1473.1258     -5534.488      -5242.1988      3897.8397      51075.042      60.450414    
     20610   1477.1084     -5533.4667     -5240.3872      3707.8358      51064.375      60.501782    
     20620   1478.5069     -5532.1366     -5238.7797      3802.4694      51054.544      60.560769    
     20630   1448.0716     -5524.7051     -5237.3869      4179.2848      51045.355      60.62032     
     20640   1464.805      -5526.8518     -5236.2135      4133.7308      51036.907      60.679546    
     20650   1473.3083     -5527.5428     -5235.2174      4279.8073      51029.068      60.757699    
     20660   1471.1552     -5526.2922     -5234.394       4601.7074      51021.528      60.866776    
     20670   1471.6103     -5525.7144     -5233.7258      4876.5225      51014.733      60.994299    
     20680   1470.1087     -5524.8702     -5233.1796      4708.8817      51009.102      61.123347    
     20690   1498.8928     -5530.1748     -5232.773       4187.7052      51004.479      61.24904     
     20700   1499.0689     -5529.9532     -5232.5165      4099.9462      51000.643      61.368898    
     20710   1494.0901     -5528.8799     -5232.431       4216.296       50997.4        61.485268    
     20720   1497.6648     -5529.6343     -5232.4761      4279.344       50994.776      61.602478    
     20730   1510.4154     -5532.3757     -5232.6877      4145.1218      50992.952      61.718167    
     20740   1494.7012     -5529.6163     -5233.0462      4353.6743      50992.164      61.842529    
     20750   1496.0088     -5530.3806     -5233.551       4167.1701      50992.664      61.973385    
     20760   1516.19       -5535.0322     -5234.1984      3910.1491      50994.308      62.10212     
     20770   1510.2595     -5534.6821     -5235.025       4159.6519      50996.715      62.239181    
     20780   1506.4002     -5534.9491     -5236.0577      4476.8926      50999.963      62.386586    
     20790   1490.3193     -5532.9097     -5237.209       4650.3386      51004.208      62.52283     
     20800   1517.0056     -5539.4985     -5238.5029      4078.1269      51009.395      62.640888    
     20810   1521.9315     -5541.9133     -5239.9403      3703.2956      51014.903      62.752254    
     20820   1501.5956     -5539.4425     -5241.5044      3704.788       51020.184      62.872029    
     20830   1464.5243     -5533.6088     -5243.0262      3831.8007      51025.238      63.004866    
     20840   1458.1831     -5533.7168     -5244.3924      3702.0882      51030.285      63.129207    
     20850   1451.5988     -5533.6011     -5245.5831      3783.4486      51035.105      63.235528    
     20860   1457.7459     -5535.8306     -5246.5929      4167.6899      51039.642      63.325785    
     20870   1456.2789     -5536.4355     -5247.489       4522.9367      51044.135      63.403391    
     20880   1439.411      -5533.8684     -5248.2686      4771.0887      51048.983      63.47639     
     20890   1452.4043     -5537.0951     -5248.9173      4527.8521      51054.542      63.556495    
     20900   1461.3702     -5539.4656     -5249.5088      4129.9043      51060.861      63.67013     
     20910   1448.1658     -5537.4199     -5250.0831      3677.9842      51067.499      63.817236    
     20920   1428.1852     -5533.9603     -5250.5879      3276.7146      51073.768      63.97264     
     20930   1403.4553     -5529.4691     -5251.0035      3364.7471      51079.239      64.121834    
     20940   1402.4354     -5529.5087     -5251.2454      3605.3271      51083.945      64.257296    
     20950   1445.6713     -5538.212      -5251.3701      3348.4155      51088.008      64.38898     
     20960   1471.2613     -5543.4119     -5251.4926      3340.9116      51091.129      64.528097    
     20970   1451.9407     -5539.7736     -5251.6877      3806.1341      51093.222      64.664427    
     20980   1432.2354     -5536.0902     -5251.9142      4340.3262      51094.7        64.776038    
     20990   1433.2445     -5536.4927     -5252.1164      4289.8335      51096.125      64.870765    
     21000   1443.072      -5538.6357     -5252.3096      3759.3432      51097.889      64.959594    
     21010   1448.7679     -5539.953      -5252.4967      3349.3839      51099.789      65.059666    
     21020   1445.8458     -5539.5959     -5252.7194      3122.9651      51101.623      65.153089    
     21030   1433.2107     -5537.3236     -5252.9541      3226.5112      51103.365      65.21821     
     21040   1458.4906     -5542.6139     -5253.2285      3106.4418      51104.959      65.253176    
     21050   1450.6832     -5541.4028     -5253.5665      3306.7434      51106.196      65.276251    
     21060   1453.4776     -5542.3733     -5253.9825      3328.4945      51107.233      65.296326    
     21070   1469.3701     -5546.0471     -5254.503       3217.9164      51108.247      65.336062    
     21080   1457.9184     -5544.4314     -5255.1595      3549.388       51109.213      65.419741    
     21090   1459.1131     -5545.4857     -5255.9768      3943.9848      51110.388      65.540566    
     21100   1441.4746     -5542.9193     -5256.9101      4212.863       51112.256      65.697558    
     21110   1440.1802     -5543.6924     -5257.94        4163.2336      51115.336      65.883253    
     21120   1415.8985     -5539.9607     -5259.0262      4194.4314      51119.424      66.056148    
     21130   1436.8173     -5545.2367     -5260.1516      3836.0253      51123.94       66.19814     
     21140   1456.961      -5550.405      -5261.3231      3497.3745      51128.04       66.32926     
     21150   1462.6238     -5552.8297     -5262.6242      3253.8146      51130.951      66.459032    
     21160   1464.6785     -5554.712      -5264.0988      2900.2201      51132.543      66.588456    
     21170   1430.6112     -5549.4434     -5265.5896      2962.5494      51133.108      66.721512    
     21180   1407.359      -5546.2244     -5266.9842      3021.9653      51132.798      66.858967    
     21190   1402.2288     -5546.4225     -5268.2002      2936.3781      51131.927      66.999505    
     21200   1388.3416     -5544.6519     -5269.185       2996.8829      51130.891      67.130057    
     21210   1371.6653     -5542.0759     -5269.9179      2962.483       51129.515      67.239838    
     21220   1365.9716     -5541.394      -5270.3657      2967.0879      51127.445      67.353882    
     21230   1379.8946     -5544.3695     -5270.5787      2936.9316      51124.834      67.458542    
     21240   1395.5631     -5547.5149     -5270.6152      3185.2406      51122.033      67.536174    
     21250   1393.6695     -5547.0623     -5270.5383      3415.1004      51119.521      67.608359    
     21260   1402.0099     -5548.5652     -5270.3863      3442.2946      51117.585      67.690038    
     21270   1397.0271     -5547.3633     -5270.1731      3348.825       51116.195      67.782053    
     21280   1382.4469     -5544.1765     -5269.8792      3249.3993      51115.213      67.892442    
     21290   1386.2067     -5544.5786     -5269.5354      3226.6434      51114.298      68.024659    
     21300   1376.5651     -5542.2133     -5269.083       3624.7899      51113.019      68.174377    
     21310   1408.3536     -5547.9891     -5268.5516      3435.4675      51111.265      68.334539    
     21320   1442.4236     -5554.2261     -5268.0286      3127.6187      51108.69       68.476171    
     21330   1424.7772     -5550.2732     -5267.577       3187.6576      51104.922      68.567743    
     21340   1430.9692     -5551.1514     -5267.2266      3086.0108      51099.911      68.616925    
     21350   1435.0038     -5551.6597     -5266.9344      3128.5328      51093.548      68.661448    
     21360   1437.4101     -5551.9127     -5266.71        3466.2634      51086.214      68.720664    
     21370   1443.893      -5553.0703     -5266.5813      3646.1641      51078.569      68.785364    
     21380   1438.1878     -5551.886      -5266.5289      3818.6092      51071.051      68.848049    
     21390   1441.2201     -5552.5104     -5266.5517      3945.3014      51064.129      68.920042    
     21400   1428.4778     -5550.1018     -5266.6714      4121.0537      51057.793      69.005327    
     21410   1413.7798     -5547.3402     -5266.826       4093.4427      51051.705      69.093366    
     21420   1408.335      -5546.3987     -5266.9648      3700.3162      51045.633      69.184743    
     21430   1394.6633     -5543.8074     -5267.0862      3345.9574      51039.482      69.275748    
     21440   1370.3684     -5539.0312     -5267.1305      3532.0628      51032.98       69.350881    
     21450   1379.1547     -5540.6499     -5267.0059      3654.995       51025.938      69.414063    
     21460   1415.7446     -5547.7104     -5266.8065      3638.5426      51018.308      69.479606    
     21470   1425.5667     -5549.458      -5266.6052      4039.0756      51010.122      69.557881    
     21480   1416.4079     -5547.4567     -5266.421       4489.3473      51001.629      69.659217    
     21490   1441.4496     -5552.2771     -5266.2729      4239.1923      50993.092      69.77143     
     21500   1435.8748     -5551.0997     -5266.2016      4094.3927      50984.671      69.858638    
     21510   1434.3784     -5550.8448     -5266.2436      4021.0308      50976.639      69.925322    
     21520   1422.2104     -5548.5476     -5266.3607      4100.3437      50969.21       69.989518    
     21530   1396.7566     -5543.666      -5266.5295      4451.6045      50962.529      70.035371    
     21540   1388.6709     -5542.2378     -5266.7056      4442.4503      50956.775      70.040959    
     21550   1385.8321     -5541.8057     -5266.8367      4233.2662      50951.33       70.034076    
     21560   1411.6217     -5547.0165     -5266.9305      3674.3546      50945.424      70.052834    
     21570   1426.6719     -5550.137      -5267.0648      3442.512       50938.677      70.112214    
     21580   1413.4753     -5547.7518     -5267.2981      3735.04        50931.263      70.201599    
     21590   1400.2328     -5545.4568     -5267.6305      4236.5284      50923.415      70.304345    
     21600   1389.4217     -5543.7019     -5268.0207      4667.1312      50915.053      70.41186     
     21610   1420.2662     -5550.2787     -5268.4775      4717.4038      50906.454      70.505046    
     21620   1425.5554     -5551.905      -5269.0544      4800.3046      50898.04       70.589488    
     21630   1417.9131     -5551.1418     -5269.8076      4663.8888      50889.95       70.673507    
     21640   1435.2393     -5555.5265     -5270.7544      3886.4974      50881.946      70.758895    
     21650   1423.6008     -5554.3674     -5271.9046      3294.2792      50873.518      70.828552    
     21660   1405.7099     -5552.1101     -5273.1971      2991.0101      50864.262      70.868798    
     21670   1395.194      -5551.3762     -5274.5498      2729.5818      50854.051      70.868106    
     21680   1384.7141     -5550.6383     -5275.8912      2644.8096      50842.81       70.829356    
     21690   1387.7101     -5552.502      -5277.1604      2669.8446      50830.57       70.779212    
     21700   1409.3946     -5558.0446     -5278.4005      2816.8928      50817.484      70.739475    
     21710   1378.9539     -5553.1597     -5279.5555      3522.5589      50803.639      70.703875    
     21720   1381.9217     -5554.8098     -5280.6168      3766.9103      50789.429      70.663886    
     21730   1366.4739     -5552.677      -5281.549       3772.4886      50774.961      70.636555    
     21740   1335.6714     -5547.3157     -5282.2993      3625.3825      50760.498      70.634819    
     21750   1337.0606     -5548.1118     -5282.8198      3078.9535      50746.301      70.658827    
     21760   1330.6678     -5547.163      -5283.1394      2863.8109      50731.971      70.698936    
     21770   1311.768      -5543.4954     -5283.2218      3280.6979      50717.091      70.721354    
     21780   1335.9034     -5548.129      -5283.0667      3517.7386      50701.576      70.715393    
     21790   1366.4433     -5553.8284     -5282.7064      3726.3294      50685.422      70.70542     
     21800   1393.2305     -5558.6876     -5282.2507      4054.6501      50668.702      70.713596    
     21810   1390.0591     -5557.5725     -5281.7649      4383.1966      50651.807      70.744027    
     21820   1385.0346     -5556.0773     -5281.2666      4458.9525      50635.131      70.772743    
     21830   1395.8315     -5557.7095     -5280.7565      4171.1969      50618.764      70.794884    
     21840   1418.0822     -5561.6323     -5280.2645      3707.4864      50602.525      70.806557    
     21850   1410.6007     -5559.7222     -5279.8388      3677.0138      50586.31       70.802639    
     21860   1393.659      -5555.9916     -5279.4697      3816.7805      50570.204      70.796975    
     21870   1408.1319     -5558.5356     -5279.1421      3706.3709      50554.127      70.80056     
     21880   1407.9531     -5558.2126     -5278.8546      3588.6347      50537.992      70.828073    
     21890   1405.7261     -5557.5439     -5278.6277      3433.1711      50521.869      70.876842    
     21900   1389.2524     -5554.1104     -5278.4628      3331.3842      50505.445      70.92298     
     21910   1367.7143     -5549.6631     -5278.289       3353.3284      50488.319      70.95872     
     21920   1363.3586     -5548.5718     -5278.0619      3428.541       50470.203      70.991421    
     21930   1362.1953     -5548.0089     -5277.7299      3763.4737      50451.124      71.020186    
     21940   1368.1407     -5548.7373     -5277.2786      4379.415       50431.399      71.046008    
     21950   1381.0604     -5550.7317     -5276.7095      4916.6489      50411.742      71.060767    
     21960   1384.7968     -5550.8031     -5276.0396      5430.9854      50392.84       71.050026    
     21970   1386.0225     -5550.2816     -5275.2749      5790.5271      50375.364      71.009961    
     21980   1410.0079     -5554.2026     -5274.4369      5669.9837      50360.032      70.981762    
     21990   1412.0873     -5553.757      -5273.5786      5813.3491      50347.109      70.992797    
     22000   1418.1007     -5554.1169     -5272.7454      5877.5901      50336.886      71.042661    
     22010   1421.1546     -5553.9269     -5271.9494      5844.9232      50329.37       71.12026     
     22020   1424.2376     -5553.8364     -5271.2473      5479.1602      50324.163      71.225407    
     22030   1458.0187     -5559.9214     -5270.6296      4880.4173      50320.778      71.348327    
     22040   1450.5444     -5558.0336     -5270.2248      4946.3919      50318.559      71.449076    
     22050   1406.0685     -5549.0413     -5270.0571      5533.6593      50317.317      71.519163    
     22060   1408.0838     -5549.3771     -5269.9931      5568.3662      50317.529      71.583196    
     22070   1458.8379     -5559.5533     -5270.099       4953.2995      50319.501      71.655416    
     22080   1428.5461     -5553.8954     -5270.4514      4644.3944      50322.801      71.749279    
     22090   1406.8202     -5550.2252     -5271.0919      4240.612       50327.203      71.875988    
     22100   1396.0823     -5548.938      -5271.9353      3862.7914      50332.514      72.045376    
     22110   1385.449      -5547.8679     -5272.975       3957.0914      50338.445      72.229316    
     22120   1372.8061     -5546.5481     -5274.1637      4236.4337      50344.883      72.403579    
     22130   1358.348      -5544.9492     -5275.4335      4336.3328      50351.866      72.561491    
     22140   1354.6749     -5545.4996     -5276.7127      4181.2464      50359.399      72.706034    
     22150   1362.2614     -5548.2869     -5277.9947      3975.0292      50367.615      72.831675    
     22160   1346.3632     -5546.3613     -5279.2236      4243.8921      50376.863      72.962746    
     22170   1338.9041     -5546.0259     -5280.3681      4779.3477      50387.406      73.140496    
     22180   1350.6689     -5549.3595     -5281.3674      5040.9388      50399.631      73.371398    
     22190   1388.2696     -5557.7637     -5282.3111      4776.6585      50413.819      73.620151    
     22200   1402.0835     -5561.4485     -5283.255       4511.0922      50429.926      73.868119    
     22210   1422.5181     -5566.5601     -5284.3121      3978.8769      50447.81       74.117873    
     22220   1403.4622     -5563.92       -5285.4531      3666.1374      50467.045      74.350633    
     22230   1425.8249     -5569.574      -5286.6699      3226.4753      50487.074      74.567746    
     22240   1407.3065     -5567.1727     -5287.943       3257.137       50507.374      74.785537    
     22250   1369.8417     -5560.9471     -5289.1509      3358.2232      50527.995      75.0041      
     22260   1378.4543     -5563.7582     -5290.2531      2870.3259      50549.077      75.229804    
     22270   1350.6431     -5559.1663     -5291.1793      2638.4262      50570.12       75.457373    
     22280   1343.6115     -5558.5312     -5291.9395      2450.7941      50590.716      75.677918    
     22290   1316.647      -5553.724      -5292.4824      2867.069       50610.854      75.886257    
     22300   1319.7659     -5554.7029     -5292.8424      3170.9633      50630.979      76.079521    
     22310   1338.6966     -5558.6543     -5293.0377      3317.0511      50651.457      76.267495    
     22320   1318.1714     -5554.649      -5293.105       3657.0528      50672.503      76.464292    
     22330   1308.2854     -5552.6294     -5293.0468      3814.6834      50694.432      76.672501    
     22340   1314.7149     -5553.6852     -5292.8269      3518.573       50717.29       76.906262    
     22350   1322.5952     -5554.8864     -5292.4645      3132.1056      50740.606      77.16805     
     22360   1314.591      -5552.8235     -5291.9898      3267.2344      50763.925      77.440177    
     22370   1320.0764     -5553.3149     -5291.3929      3184.8159      50787.064      77.707188    
     22380   1338.1237     -5556.1985     -5290.6956      3035.8861      50809.764      77.952055    
     22390   1352.9748     -5558.4027     -5289.9531      2850.2695      50832.005      78.158711    
     22400   1355.1656     -5558.1119     -5289.2277      3135.9935      50854.213      78.331154    
     22410   1349.2809     -5556.2362     -5288.5196      3689.3084      50876.83       78.492883    
     22420   1347.7685     -5555.2522     -5287.8356      3856.4846      50900.026      78.664606    
     22430   1364.5784     -5557.8973     -5287.1454      3426.9692      50923.596      78.866366    
     22440   1383.9378     -5561.0991     -5286.506       2672.8116      50947.061      79.102783    
     22450   1363.6213     -5556.5116     -5285.9496      2571.0595      50970.059      79.370223    
     22460   1378.6506     -5559.0348     -5285.4908      2360.5926      50992.662      79.642561    
     22470   1346.4578     -5552.2533     -5285.0968      2749.2757      51014.818      79.904887    
     22480   1359.8274     -5554.5623     -5284.753       2683.6493      51036.733      80.136168    
     22490   1370.4024     -5556.3281     -5284.4207      2659.79        51058.486      80.341844    
     22500   1336.6661     -5549.3478     -5284.1341      3116.492       51080.191      80.547705    
     22510   1348.7845     -5551.4821     -5283.8639      3080.489       51102.169      80.768055    
     22520   1376.8966     -5556.75       -5283.554       2804.4333      51124.126      81.001939    
     22530   1411.7824     -5563.4539     -5283.336       2549.2488      51145.385      81.241426    
     22540   1398.4642     -5560.7955     -5283.3202      2613.5166      51165.84       81.485137    
     22550   1386.9322     -5558.6935     -5283.5063      2549.1797      51185.784      81.736533    
     22560   1401.1815     -5561.8726     -5283.8581      2003.3159      51205.299      81.993501    
     22570   1393.9225     -5561.0288     -5284.4546      1953.6352      51224.012      82.236953    
     22580   1351.21       -5553.3417     -5285.2423      2248.8183      51241.88       82.450977    
     22590   1347.4636     -5553.5109     -5286.1548      1966.6621      51259.104      82.634282    
     22600   1369.1323     -5558.8359     -5287.1805      1418.3491      51275.229      82.801684    
     22610   1343.2599     -5554.8977     -5288.3757      1639.0903      51289.597      82.970591    
     22620   1330.693      -5553.7247     -5289.6962      1839.731       51302.175      83.130844    
     22630   1322.4986     -5553.4819     -5291.0793      1689.9307      51313.126      83.283107    
     22640   1289.7379     -5548.3198     -5292.4173      1694.2208      51322.403      83.443084    
     22650   1263.7917     -5544.3618     -5293.6074      1769.5587      51329.971      83.601774    
     22660   1259.2705     -5544.4006     -5294.5433      1750.2398      51336.066      83.747593    
     22670   1285.3263     -5550.2531     -5295.2259      1463.4526      51341.041      83.888843    
     22680   1324.634      -5558.5745     -5295.7481      1182.5677      51344.701      84.025218    
     22690   1344.615      -5563.0327     -5296.2418      1102.3543      51346.549      84.160619    
     22700   1318.56       -5558.3474     -5296.7262      1548.595       51346.392      84.28307     
     22710   1304.8364     -5556.0557     -5297.1574      1802.4399      51344.213      84.392858    
     22720   1291.1756     -5553.6691     -5297.4813      1982.2405      51339.667      84.488462    
     22730   1284.6515     -5552.5345     -5297.6413      2010.7455      51332.64       84.563322    
     22740   1299.3493     -5555.4749     -5297.6653      1911.3311      51323.028      84.606601    
     22750   1326.328      -5560.7476     -5297.5851      1946.8089      51310.638      84.63458     
     22760   1319.7445     -5559.3051     -5297.4489      2256.3743      51295.462      84.66025     
     22770   1320.5968     -5559.2432     -5297.2179      2314.4409      51277.895      84.694104    
     22780   1314.1388     -5557.6095     -5296.8655      2267.3964      51258.466      84.733597    
     22790   1286.8724     -5551.7007     -5296.3668      2448.0671      51237.261      84.748833    
     22800   1311.1869     -5555.7264     -5295.5682      2319.34        51214.414      84.713228    
     22810   1343.308      -5560.9142     -5294.3826      2284.6249      51189.99       84.625508    
     22820   1320.9263     -5554.8948     -5292.8041      3054.9667      51164.082      84.509545    
     22830   1311.0388     -5550.95       -5290.8211      3338.7672      51137.247      84.401823    
     22840   1337.1351     -5553.7625     -5288.4557      2948.3491      51109.727      84.344608    
     22850   1365.2843     -5556.9119     -5286.0199      2417.7666      51081.244      84.328454    
     22860   1377.144      -5557.1115     -5283.8664      2017.1931      51051.555      84.312998    
     22870   1386.5555     -5557.3125     -5282.2         1800.6488      51020.593      84.281407    
     22880   1400.3728     -5558.8927     -5281.0387      1900.0725      50988.332      84.235238    
     22890   1382.5659     -5554.6187     -5280.2978      2549.4571      50955.195      84.182256    
     22900   1372.2838     -5552.1617     -5279.881       3250.1067      50922.023      84.146832    
     22910   1374.6074     -5552.3892     -5279.6474      3588.1936      50889.42       84.142511    
     22920   1407.2738     -5558.8839     -5279.6606      3558.3568      50857.256      84.141788    
     22930   1403.7816     -5558.4503     -5279.9199      3606.9135      50825.266      84.128623    
     22940   1390.547      -5556.3677     -5280.4632      3556.2516      50793.381      84.08902     
     22950   1390.3234     -5557.0873     -5281.2272      3185.5421      50761.354      84.017277    
     22960   1394.721      -5558.948      -5282.2154      2963.134       50728.971      83.919792    
     22970   1356.1828     -5552.4382     -5283.3521      3344.9364      50696.611      83.823135    
     22980   1339.7653     -5550.3398     -5284.5112      3654.081       50665.043      83.772486    
     22990   1347.7804     -5553.0959     -5285.677       3640.2907      50634.696      83.779903    
     23000   1343.7923     -5553.4772     -5286.8495      3922.4818      50605.438      83.798502    
     23010   1327.684      -5551.4062     -5287.9747      4362.4435      50576.991      83.786341    
     23020   1322.5236     -5551.4502     -5289.0426      4414.6011      50549.309      83.755083    
     23030   1315.0394     -5550.9342     -5290.0116      4162.0069      50522.486      83.726172    
     23040   1317.5992     -5552.3258     -5290.8953      4018.5974      50496.766      83.711265    
     23050   1299.745      -5549.5598     -5291.6718      4369.4727      50472.332      83.712716    
     23060   1285.0618     -5547.2831     -5292.3084      4530.6127      50449.042      83.728975    
     23070   1322.7591     -5555.2965     -5292.8422      4090.0271      50426.553      83.755851    
     23080   1332.7732     -5557.8234     -5293.3821      3764.823       50404.411      83.799814    
     23090   1308.2897     -5553.4882     -5293.9047      4013.1889      50382.467      83.855103    
     23100   1335.5078     -5559.4193     -5294.4354      3879.2182      50361.054      83.912009    
     23110   1337.2146     -5560.3206     -5294.998       3930.2918      50340.412      83.969619    
     23120   1324.5154     -5558.4137     -5295.6109      4105.9159      50320.925      84.007584    
     23130   1310.2574     -5556.2084     -5296.2345      4292.0349      50302.736      84.021558    
     23140   1319.8641     -5558.7385     -5296.8586      4237.2766      50285.565      84.054781    
     23150   1331.7677     -5561.7568     -5297.515       4208.0754      50268.962      84.113576    
     23160   1312.8269     -5558.6591     -5298.1754      4185.5168      50252.842      84.166708    
     23170   1335.3442     -5563.8347     -5298.8833      3748.222       50237.428      84.20537     
     23180   1329.015      -5563.351      -5299.6553      3842.3902      50222.764      84.26748     
     23190   1324.5192     -5563.2605     -5300.4569      4461.0756      50209.067      84.371346    
     23200   1336.8841     -5566.5535     -5301.2965      4754.793       50196.436      84.502617    
     23210   1347.3827     -5569.5956     -5302.2556      4614.8471      50184.862      84.650326    
     23220   1328.3329     -5566.8113     -5303.251       4623.2408      50174.559      84.799048    
     23230   1326.459      -5567.4727     -5304.2842      4220.2398      50165.815      84.922161    
     23240   1314.9263     -5566.2078     -5305.3076      4079.6913      50158.196      85.02288     
     23250   1284.6658     -5561.1412     -5306.2451      4291.5879      50151.296      85.125551    
     23260   1271.5682     -5559.3186     -5307.0213      4575.8472      50145.231      85.232926    
     23270   1291.7754     -5563.9409     -5307.6342      4464.3729      50140.009      85.339929    
     23280   1309.1378     -5567.8989     -5308.1472      4242.1958      50135.31       85.43588     
     23290   1315.551      -5569.6542     -5308.63        4000.3982      50130.796      85.533761    
     23300   1322.6243     -5571.527      -5309.0994      3737.2409      50126.023      85.650287    
     23310   1329.3125     -5573.3617     -5309.6071      3588.9238      50120.61       85.774167    
     23320   1303.6442     -5568.7917     -5310.1301      4041.0973      50114.727      85.895367    
     23330   1279.1874     -5564.4283     -5310.6192      4775.353       50108.787      86.01661     
     23340   1256.058      -5560.1931     -5310.9732      5170.2171      50103.256      86.111185    
     23350   1279.2767     -5564.989      -5311.1622      4549.4856      50098.505      86.146407    
     23360   1305.9874     -5570.4122     -5311.2856      3767.9881      50094.323      86.140589    
     23370   1288.82       -5567.1306     -5311.4103      3569.4744      50090.153      86.141104    
     23380   1295.4911     -5568.5438     -5311.4998      3226.7413      50085.638      86.167177    
     23390   1288.3159     -5567.187      -5311.5667      3099.8494      50080.411      86.198176    
     23400   1272.8109     -5564.1643     -5311.6204      3197.0857      50074.305      86.209713    
     23410   1244.3176     -5558.4749     -5311.5844      3641.8911      50067.532      86.21576     
     23420   1254.4735     -5560.3096     -5311.4041      3958.1866      50060.624      86.231198    
     23430   1284.5345     -5565.9573     -5311.0872      3780.8955      50054.085      86.251353    
     23440   1295.0062     -5567.6913     -5310.7435      3785.6172      50047.647      86.271612    
     23450   1282.4953     -5564.874      -5310.4086      3909.6787      50040.874      86.317159    
     23460   1281.5114     -5564.3258     -5310.0556      3938.8757      50033.753      86.402937    
     23470   1276.2913     -5562.895      -5309.6605      4052.5003      50026.446      86.500951    
     23480   1299.3745     -5567.0658     -5309.2513      4001.6026      50019.182      86.564997    
     23490   1316.5251     -5570.0522     -5308.8348      4140.1979      50012.078      86.598299    
     23500   1313.7765     -5569.1851     -5308.513       4389.9128      50005.243      86.626982    
     23510   1325.685      -5571.3237     -5308.2888      4453.6817      49998.779      86.680495    
     23520   1310.4105     -5568.1586     -5308.1544      4798.761       49992.518      86.745935    
     23530   1292.3284     -5564.5364     -5308.1199      5018.3616      49986.751      86.802378    
     23540   1269.7776     -5560.0302     -5308.0881      5003.9568      49981.936      86.847461    
     23550   1265.8314     -5559.1641     -5308.005       4619.2014      49978.2        86.905758    
     23560   1268.4979     -5559.5413     -5307.8531      4302.1118      49975.281      86.965895    
     23570   1279.4165     -5561.4672     -5307.6126      4201.8741      49972.905      87.025149    
     23580   1300.9314     -5565.4567     -5307.3332      4207.206       49970.891      87.103866    
     23590   1286.691      -5562.3197     -5307.0218      4349.7621      49969.256      87.19144     
     23600   1289.8783     -5562.6211     -5306.6908      4226.2434      49968.242      87.260822    
     23610   1310.3376     -5566.2686     -5306.2788      3780.0109      49968.06       87.301396    
     23620   1350.1634     -5573.7693     -5305.8775      3490.2692      49968.447      87.324684    
     23630   1336.8641     -5570.8268     -5305.5738      3962.4226      49969.076      87.336039    
     23640   1322.8226     -5567.885      -5305.4181      4325.4304      49970.361      87.332842    
     23650   1330.9787     -5569.4762     -5305.391       4245.4126      49973          87.336318    
     23660   1349.0687     -5573.2485     -5305.574       4078.5864      49977.407      87.375585    
     23670   1329.1498     -5569.7805     -5306.0582      4479.8046      49983.761      87.459308    
     23680   1302.9709     -5565.3322     -5306.8041      4888.7649      49992.176      87.594612    
     23690   1324.7718     -5570.6268     -5307.7731      4907.7432      50002.592      87.777868    
     23700   1321.6281     -5571.2384     -5309.0085      5039.0303      50014.83       87.975338    
     23710   1296.6536     -5567.6986     -5310.424       5230.0138      50028.914      88.168547    
     23720   1298.9419     -5569.6542     -5311.9255      4694.9354      50044.863      88.359228    
     23730   1299.6799     -5571.3461     -5313.471       4169.1754      50062.208      88.543673    
     23740   1306.1611     -5574.1597     -5314.9986      3989.8409      50080.512      88.728995    
     23750   1299.2715     -5574.2977     -5316.5037      3974.48        50099.742      88.929293    
     23760   1271.1206     -5570.1028     -5317.8942      3983.1723      50119.977      89.163167    
     23770   1247.1744     -5566.5476     -5319.0903      3610.3637      50141.019      89.413271    
     23780   1243.1623     -5566.7281     -5320.0669      3125.3012      50162.464      89.646361    
     23790   1238.9143     -5566.6487     -5320.8303      2997.145       50183.93       89.867983    
     23800   1228.89       -5565.2465     -5321.4171      3275.9361      50205.217      90.084477    
     23810   1223.8599     -5564.6565     -5321.8252      3585.1874      50226.398      90.274429    
     23820   1239.4067     -5567.974      -5322.058       3507.1393      50247.633      90.443052    
     23830   1260.1897     -5572.236      -5322.1963      3237.6013      50268.826      90.598945    
     23840   1247.3021     -5569.7457     -5322.2631      3255.3579      50289.985      90.741316    
     23850   1261.5944     -5572.5978     -5322.2794      3094.6726      50311.169      90.882114    
     23860   1260.2135     -5572.2949     -5322.2505      3024.8108      50332.214      91.04791     
     23870   1266.771      -5573.5536     -5322.2081      3009.8773      50352.889      91.231981    
     23880   1292.2082     -5578.5549     -5322.1623      2800.69        50372.85       91.417433    
     23890   1275.3056     -5575.2092     -5322.1703      2709.498       50391.838      91.60726     
     23900   1254.3981     -5571.1047     -5322.2142      2662.8228      50409.777      91.80257     
     23910   1244.7388     -5569.2004     -5322.2264      2729.6609      50426.683      91.998775    
     23920   1255.7676     -5571.3501     -5322.1878      2678.6634      50442.54       92.190473    
     23930   1265.5948     -5573.2354     -5322.1232      2666.7126      50457.355      92.371239    
     23940   1272.4124     -5574.5244     -5322.0596      2545.0935      50471.287      92.514223    
     23950   1271.8647     -5574.3512     -5321.995       2625.0304      50484.378      92.609454    
     23960   1255.1739     -5571.0293     -5321.9848      2893.1011      50496.689      92.68674     
     23970   1226.5193     -5565.2743     -5321.9153      3152.6256      50508.566      92.792321    
     23980   1233.459      -5566.511      -5321.7751      2984.8865      50520.513      92.935196    
     23990   1223.5124     -5564.2679     -5321.5056      2930.9952      50532.79       93.0992      
     24000   1230.0358     -5565.1523     -5321.0956      2846.1103      50545.198      93.271082    
     24010   1241.7778     -5566.9281     -5320.5416      2894.2559      50557.336      93.422627    
     24020   1236.6277     -5565.2347     -5319.8701      3222.5139      50569.143      93.538104    
     24030   1232.1133     -5563.5513     -5319.0823      3599.6765      50580.833      93.630723    
     24040   1247.8419     -5565.7551     -5318.1654      3617.1238      50592.723      93.712247    
     24050   1283.5378     -5571.8276     -5317.1554      3203.9223      50604.855      93.78804     
     24060   1297.8769     -5573.6887     -5316.1714      2985.2726      50616.933      93.890758    
     24070   1290.8104     -5571.4299     -5315.3147      2949.9164      50628.875      94.034325    
     24080   1302.2637     -5572.9607     -5314.5729      2514.9163      50640.754      94.190153    
     24090   1319.7166     -5575.856      -5314.0053      2181.1993      50652.345      94.353874    
     24100   1305.0575     -5572.5729     -5313.6308      2226.4087      50663.319      94.525365    
     24110   1319.8096     -5575.3425     -5313.4734      1916.9003      50673.323      94.676315    
     24120   1319.1999     -5575.2803     -5313.5321      1861.1533      50682.038      94.806532    
     24130   1310.6655     -5573.892      -5313.8372      2018.5594      50689.389      94.9474      
     24140   1300.105      -5572.3418     -5314.3823      2344.2917      50695.525      95.092912    
     24150   1282.944      -5569.6813     -5315.1268      2631.1522      50700.641      95.210997    
     24160   1270.1629     -5568.0366     -5316.0181      2620.3957      50705.127      95.300714    
     24170   1274.9429     -5569.9984     -5317.0315      2114.3076      50709.234      95.379641    
     24180   1284.7388     -5573.0815     -5318.171       1620.0567      50712.835      95.471385    
     24190   1267.0506     -5570.8429     -5319.4419      1533.4545      50715.704      95.57334     
     24200   1251.0417     -5568.9697     -5320.7451      1629.9273      50717.624      95.662105    
     24210   1235.163      -5567.0497     -5321.9757      1921.442       50718.163      95.738193    
     24220   1217.7103     -5564.6675     -5323.0563      2188.5212      50717.265      95.806579    
     24230   1225.0481     -5567.0087     -5323.9416      2118.661       50715.214      95.854658    
     24240   1247.0981     -5572.0994     -5324.6572      2068.8419      50712.115      95.884598    
     24250   1253.9602     -5574.0861     -5325.2824      2196.7132      50707.995      95.901381    
     24260   1258.7534     -5575.6106     -5325.8559      2229.4969      50702.939      95.909713    
     24270   1253.6703     -5575.1104     -5326.3642      2187.1875      50697.061      95.920833    
     24280   1257.3808     -5576.3163     -5326.8339      2092.3329      50690.456      95.96765     
     24290   1249.5647     -5575.2045     -5327.2729      2233.1399      50683.306      96.068409    
     24300   1236.9047     -5573.0647     -5327.6451      2437.4875      50675.987      96.204408    
     24310   1230.8726     -5572.1667     -5327.944       2319.9417      50668.743      96.341869    
     24320   1231.5763     -5572.545      -5328.1827      2039.3489      50661.267      96.460131    
     24330   1232.7635     -5572.957      -5328.3591      1622.8934      50653.144      96.529277    
     24340   1237.3837     -5574.0121     -5328.4974      1375.9427      50644.133      96.543915    
     24350   1234.6652     -5573.592      -5328.6168      1556.8433      50633.931      96.531045    
     24360   1221.8239     -5571.1315     -5328.7041      2022.2812      50622.531      96.513584    
     24370   1245.5907     -5575.9208     -5328.7777      1988.274       50610.113      96.497196    
     24380   1249.1206     -5576.6741     -5328.8307      1988.4205      50596.688      96.494773    
     24390   1269.7211     -5580.887      -5328.9561      1975.4261      50582.189      96.515624    
     24400   1281.2628     -5583.4087     -5329.1878      2238.6335      50566.434      96.559426    
     24410   1269.7888     -5581.5146     -5329.5704      2753.9467      50549.517      96.58656     
     24420   1247.0153     -5577.4885     -5330.0628      2861.264       50531.774      96.569076    
     24430   1231.4225     -5574.8976     -5330.5657      2714.2879      50513.29       96.539634    
     24440   1242.8802     -5577.691      -5331.0858      2496.1286      50493.987      96.516267    
     24450   1242.0456     -5578.0627     -5331.6231      2758.4854      50473.936      96.508422    
     24460   1224.7213     -5575.173      -5332.1707      3015.3762      50453.472      96.514739    
     24470   1220.9128     -5574.9452     -5332.6986      2738.5081      50432.656      96.532246    
     24480   1237.4099     -5578.7267     -5333.2068      2169.5107      50411.194      96.567904    
     24490   1219.1878     -5575.6289     -5333.7246      1897.5231      50388.63       96.625727    
     24500   1209.8979     -5574.2853     -5334.2242      1943.6072      50364.65       96.697527    
     24510   1209.9402     -5574.7324     -5334.663       2339.1101      50339.403      96.769212    
     24520   1211.8135     -5575.4678     -5335.0266      2781.4863      50313.425      96.808877    
     24530   1215.6164     -5576.54       -5335.3443      3007.6805      50287.124      96.806569    
     24540   1227.1426     -5579.1244     -5335.6417      2662.7354      50260.477      96.777036    
     24550   1233.3879     -5580.698      -5335.9762      2318.7764      50233.102      96.724548    
     24560   1217.8098     -5577.9642     -5336.3333      2372.9682      50204.842      96.6804      
     24570   1217.9201     -5578.3477     -5336.6949      2314.0709      50175.893      96.69147     
     24580   1230.2478     -5581.1737     -5337.0749      2072.1384      50146.57       96.74706     
     24590   1236.375      -5582.833      -5337.5185      2296.5077      50117.107      96.807485    
     24600   1231.7764     -5582.4639     -5338.0618      2890.222       50087.855      96.86516     
     24610   1226.2886     -5582.0405     -5338.7273      3258.5165      50059.328      96.927599    
     24620   1226.5977     -5582.9044     -5339.5299      3115.684       50031.893      96.96818     
     24630   1224.1433     -5583.3867     -5340.4992      2913.3256      50005.622      96.985501    
     24640   1215.7547     -5582.8715     -5341.6483      2774.4827      49980.453      96.985565    
     24650   1208.8192     -5582.8235     -5342.9764      2499.7435      49956.023      96.959448    
     24660   1184.7031     -5579.4426     -5344.3806      2736.8036      49931.994      96.913029    
     24670   1171.9936     -5578.2872     -5345.7469      2831.7826      49908.549      96.860768    
     24680   1165.6735     -5578.2719     -5346.9855      3027.4937      49885.721      96.819841    
     24690   1174.6197     -5581.1158     -5348.0545      3364.3729      49863.482      96.791238    
     24700   1169.1204     -5580.9031     -5348.9329      3897.6843      49841.891      96.767164    
     24710   1173.0007     -5582.3536     -5349.6135      4213.0218      49820.945      96.740131    
     24720   1189.1159     -5586.0721     -5350.1345      4095.9967      49800.503      96.714892    
     24730   1214.6555     -5591.5642     -5350.5592      3857.2875      49780.433      96.679357    
     24740   1228.4658     -5594.7122     -5350.967       3772.8202      49760.736      96.626143    
     24750   1205.7657     -5590.6091     -5351.368       3784.7826      49741.647      96.582386    
     24760   1212.1296     -5592.2589     -5351.755       3335.1258      49723.425      96.573217    
     24770   1193.2878     -5588.851      -5352.0856      3126.4285      49706.008      96.592878    
     24780   1183.0167     -5587.0774     -5352.3499      3281.1413      49689.2        96.613464    
     24790   1195.8431     -5589.7939     -5352.5215      3315.5965      49672.874      96.608194    
     24800   1214.1974     -5593.5458     -5352.6316      3395.4459      49657.021      96.58902     
     24810   1215.6286     -5593.96       -5352.7618      3609.9789      49641.757      96.590516    
     24820   1194.8162     -5589.9283     -5352.8597      4031.1279      49627.298      96.613065    
     24830   1186.8037     -5588.4016     -5352.9228      4197.7009      49614.131      96.622604    
     24840   1166.4178     -5584.3286     -5352.8946      4265.4182      49602.452      96.590847    
     24850   1154.9759     -5581.894      -5352.7303      4263.5192      49592.138      96.534931    
     24860   1143.0175     -5579.1702     -5352.3791      4368.8818      49583.035      96.506231    
     24870   1139.6632     -5577.9192     -5351.7937      4658.3123      49575.152      96.516338    
     24880   1179.5473     -5584.9863     -5350.9473      4527.8804      49568.609      96.548907    
     24890   1216.3888     -5591.2386     -5349.8897      4274.3488      49563.21       96.587848    
     24900   1231.1956     -5593.0419     -5348.755       4138.7344      49558.736      96.620507    
     24910   1230.2383     -5591.7144     -5347.6175      4297.5282      49555.149      96.645696    
     24920   1231.4992     -5590.8735     -5346.5264      4380.4591      49552.578      96.663019    
     24930   1221.0346     -5587.7607     -5345.49        4358.8109      49551.034      96.661319    
     24940   1211.5935     -5584.9017     -5344.5042      4197.9982      49550.546      96.642356    
     24950   1184.1792     -5578.4919     -5343.5338      4345.5428      49551.275      96.633849    
     24960   1188.5835     -5578.3715     -5342.5395      4329.7356      49553.355      96.667179    
     24970   1217.0777     -5583.0084     -5341.5228      4087.6711      49556.559      96.740318    
     24980   1215.6792     -5581.7834     -5340.5753      4308.1559      49560.633      96.818034    
     24990   1214.6238     -5580.7496     -5339.7509      4500.2712      49565.481      96.904199    
     25000   1243.822      -5585.8715     -5339.0794      4128.0534      49571.021      97.019706    
     25010   1239.5508     -5584.5538     -5338.6092      3934.2         49577.107      97.158647    
     25020   1218.5124     -5580.1234     -5338.3531      4060.0512      49583.698      97.314154    
     25030   1204.0623     -5577.1135     -5338.2103      4210.9095      49590.693      97.481923    
     25040   1195.9944     -5575.4304     -5338.128       4503.1381      49597.764      97.65379     
     25050   1190.2085     -5574.2        -5338.0455      4705.0915      49604.779      97.837988    
     25060   1218.3799     -5579.7283     -5337.9843      4259.2399      49612.062      98.027206    
     25070   1238.9382     -5583.828      -5338.0049      3878.1352      49619.84       98.192076    
     25080   1240.5084     -5584.274      -5338.1394      3861.7539      49628.068      98.342869    
     25090   1245.796      -5585.6067     -5338.4229      3733.6626      49636.614      98.490628    
     25100   1265.6271     -5589.9639     -5338.8453      3294.0121      49644.934      98.612284    
     25110   1258.1675     -5589.0677     -5339.4293      3108.4302      49652.436      98.737272    
     25120   1249.6634     -5588.1237     -5340.1725      3346.6888      49659.147      98.874009    
     25130   1240.1669     -5587.1115     -5341.0446      3500.6708      49665.597      99.014687    
     25140   1241.6989     -5588.3774     -5342.0066      3372.7654      49672.142      99.167353    
     25150   1229.5143     -5587.002      -5343.0487      3118.5636      49678.667      99.337122    
     25160   1212.6053     -5584.7238     -5344.1255      2989.2149      49685.093      99.517714    
     25170   1174.2194     -5578.1096     -5345.1277      3169.4852      49691.745      99.715663    
     25180   1151.6098     -5574.4812     -5345.9853      3425.0366      49699.07       99.931552    
     25190   1159.5301     -5576.7242     -5346.6569      3335.5803      49707.393      100.13371    
     25200   1168.2588     -5578.9834     -5347.1841      3153.6857      49716.746      100.30328    
     25210   1155.1497     -5576.8121     -5347.6139      3397.1395      49726.822      100.44414    
     25220   1160.1016     -5578.0957     -5347.9149      3623.0324      49737.426      100.546      
     25230   1159.4603     -5578.1851     -5348.1315      4096.4013      49748.673      100.63511    
     25240   1146.612      -5575.7369     -5348.2327      4621.6976      49760.919      100.75814    
     25250   1171.338      -5580.6493     -5348.2391      4691.8475      49774.331      100.94089    
     25260   1182.5502     -5582.7832     -5348.1483      4479.0052      49788.791      101.15373    
     25270   1204.4023     -5587.0481     -5348.0774      3755.4685      49804.164      101.38245    
     25280   1199.6847     -5586.0934     -5348.0588      3350.3386      49820.132      101.60188    
     25290   1210.2403     -5588.2408     -5348.1118      3033.2733      49836.51       101.78731    
     25300   1214.5636     -5589.2432     -5348.2563      3077.9506      49853.153      101.95511    
     25310   1222.878      -5591.1672     -5348.5307      3232.3771      49870.039      102.11899    
     25320   1235.7084     -5594.1526     -5348.9704      3274.8756      49887.242      102.28552    
     25330   1233.8933     -5594.4587     -5349.6366      3268.8924      49904.658      102.45933    
     25340   1199.8798     -5588.5573     -5350.4839      3420.724       49921.928      102.64542    
     25350   1189.4103     -5587.4257     -5351.4296      3309.2839      49938.996      102.8574     
     25360   1196.2301     -5589.78       -5352.4308      3213.4149      49955.945      103.07631    
     25370   1185.6781     -5588.7473     -5353.4918      3361.5246      49972.773      103.26569    
     25380   1148.3693     -5582.3606     -5354.5077      3746.1066      49989.562      103.42293    
     25390   1153.9695     -5584.3583     -5355.3942      3316.3095      50006.742      103.52529    
     25400   1152.2266     -5584.7699     -5356.1516      2823.9135      50024.416      103.56929    
     25410   1159.0831     -5586.7687     -5356.79        2314.987       50042.312      103.60262    
     25420   1167.8886     -5589.0601     -5357.3342      1975.4611      50060.098      103.6697     
     25430   1155.6762     -5587.1016     -5357.7988      2119.2801      50077.318      103.76183    
     25440   1152.2724     -5586.8005     -5358.1732      2215.4463      50093.786      103.86606    
     25450   1161.0485     -5588.8224     -5358.4537      2057.9261      50109.326      103.9909     
     25460   1168.5799     -5590.5498     -5358.6868      1918.1391      50123.551      104.1208     
     25470   1156.91       -5588.4214     -5358.8739      2123.4493      50136.39       104.23834    
     25480   1168.2287     -5590.8289     -5359.0355      2171.754       50148.059      104.33734    
     25490   1159.1683     -5589.1454     -5359.1498      2363.2866      50158.542      104.42272    
     25500   1173.3951     -5592.0798     -5359.2614      2225.6858      50167.922      104.51819    
     25510   1175.809      -5592.6482     -5359.3508      2208.9837      50175.851      104.64272    
     25520   1176.1777     -5592.8459     -5359.4754      2275.4557      50181.95       104.78756    
     25530   1162.9269     -5590.3542     -5359.6129      2524.3373      50186.465      104.92814    
     25540   1148.1002     -5587.5363     -5359.7367      2684.834       50189.994      105.05629    
     25550   1142.4691     -5586.4783     -5359.796       2480.2865      50193.023      105.1742     
     25560   1145.8797     -5587.1466     -5359.7877      2294.8109      50195.567      105.27684    
     25570   1143.1916     -5586.5288     -5359.7032      2590.1261      50197.535      105.36818    
     25580   1143.5778     -5586.4427     -5359.5405      3108.3541      50199.181      105.4644     
     25590   1138.0801     -5585.0984     -5359.287       3640.9156      50201.191      105.56804    
     25600   1157.2219     -5588.5316     -5358.9222      3601.8246      50204.179      105.69753    
     25610   1202.8034     -5597.1562     -5358.5028      2993.1382      50208.083      105.85518    
     25620   1209.669      -5598.1421     -5358.1264      2647.0999      50212.255      106.00777    
     25630   1203.4434     -5596.6458     -5357.8654      2415.5275      50216.345      106.14039    
     25640   1200.7756     -5595.9811     -5357.73        2197.8024      50219.954      106.23006    
     25650   1184.5803     -5592.7317     -5357.694       2150.2344      50222.424      106.26607    
     25660   1169.8761     -5589.8851     -5357.765       2201.6531      50223.507      106.26825    
     25670   1159.1836     -5587.8812     -5357.8826      2353.1002      50223.551      106.27111    
     25680   1167.4205     -5589.6885     -5358.0555      2198.9454      50222.964      106.30655    
     25690   1167.1748     -5589.8698     -5358.2856      1854.7931      50221.728      106.36652    
     25700   1174.4802     -5591.6576     -5358.6239      1382.4741      50219.557      106.42549    
     25710   1185.8009     -5594.3851     -5359.1053      1163.7216      50216.073      106.49065    
     25720   1176.9805     -5593.2971     -5359.7673      1483.5036      50210.81       106.57005    
     25730   1169.4462     -5592.6145     -5360.5796      1787.3882      50203.532      106.66709    
     25740   1160.188      -5591.7023     -5361.5044      1991.5652      50194.45       106.75121    
     25750   1149.9742     -5590.6743     -5362.503       2077.1947      50183.849      106.78101    
     25760   1150.8763     -5591.8704     -5363.52        2099.777       50171.759      106.74595    
     25770   1149.2801     -5592.5709     -5364.5373      2460.9819      50158.191      106.66039    
     25780   1153.28       -5594.3313     -5365.504       2742.6051      50143.621      106.55069    
     25790   1162.7804     -5597.1877     -5366.4755      2755.063       50128.691      106.46515    
     25800   1148.0597     -5595.1952     -5367.4037      2633.9827      50113.879      106.42957    
     25810   1159.7693     -5598.4318     -5368.3169      2067.2683      50099.027      106.42595    
     25820   1142.915      -5595.9789     -5369.2082      1919.0634      50083.298      106.41903    
     25830   1110.7407     -5590.3799     -5369.993       1975.9011      50066.205      106.38816    
     25840   1106.0411     -5590.0767     -5370.6223      1955.5273      50047.754      106.35324    
     25850   1104.6873     -5590.2598     -5371.074       1953.3515      50028.156      106.32787    
     25860   1100.8339     -5589.787      -5371.3658      2017.1585      50007.789      106.29504    
     25870   1119.5156     -5593.6512     -5371.5233      1962.2995      49986.764      106.21494    
     25880   1107.3857     -5591.2738     -5371.5526      2188.1111      49965.051      106.08519    
     25890   1095.7212     -5588.8619     -5371.4552      2475.9033      49942.634      105.9522     
     25900   1091.369      -5587.7571     -5371.2138      2774.8167      49919.376      105.8634     
     25910   1089.9595     -5587.0408     -5370.7772      3028.545       49895.485      105.80455    
     25920   1109.2549     -5590.2374     -5370.1454      3084.8312      49871.543      105.76312    
     25930   1123.2728     -5592.2483     -5369.3749      3165.3795      49848.095      105.73817    
     25940   1136.3536     -5593.9739     -5368.5051      3235.4645      49825.536      105.69593    
     25950   1147.818      -5595.3677     -5367.6242      3145.408       49803.803      105.62739    
     25960   1147.6064     -5594.4738     -5366.7722      3230.0156      49782.668      105.56571    
     25970   1161.3413     -5596.4037     -5365.9769      3286.4162      49762.114      105.52575    
     25980   1174.636      -5598.3398     -5365.2752      3397.0665      49742.173      105.51044    
     25990   1139.6782     -5590.8157     -5364.6872      3928.4709      49723.047      105.52669    
     26000   1108.9863     -5584.1931     -5364.1543      4337.4171      49705.205      105.57076    
     26010   1086.3313     -5579.0995     -5363.5558      4559.3646      49688.937      105.62878    
     26020   1080.5671     -5577.2366     -5362.8366      4587.4021      49674.053      105.70744    
     26030   1118.7433     -5583.9642     -5361.9895      4096.1546      49660.271      105.80207    
     26040   1140.531      -5587.3978     -5361.1001      3911.4823      49647.191      105.88724    
     26050   1156.0378     -5589.6661     -5360.2917      3878.0531      49634.645      105.92536    
     26060   1164.6816     -5590.6882     -5359.5987      3990.4966      49622.956      105.90901    
     26070   1182.1683     -5593.6366     -5359.0775      4151.9318      49612.425      105.86686    
     26080   1196.0794     -5596.0869     -5358.7676      4222.949       49602.82       105.84365    
     26090   1189.6315     -5594.7188     -5358.6788      4024.8213      49593.762      105.8376     
     26100   1188.1347     -5594.5485     -5358.8055      3562.9449      49585.101      105.84428    
     26110   1156.2147     -5588.4844     -5359.0748      3376.3959      49576.781      105.86274    
     26120   1135.4206     -5584.6923     -5359.4085      3543.2271      49568.776      105.88491    
     26130   1131.9739     -5584.325      -5359.7251      3775.8909      49561.449      105.89216    
     26140   1138.6618     -5585.9282     -5360.0014      4145.7824      49555.075      105.89311    
     26150   1171.8324     -5592.8331     -5360.3248      4096.7479      49549.756      105.89801    
     26160   1188.2115     -5596.4982     -5360.74        3843.9453      49545.386      105.90687    
     26170   1205.6619     -5600.58       -5361.3594      3409.9371      49541.701      105.92612    
     26180   1202.6352     -5600.8187     -5362.1987      3320.7901      49538.381      105.96001    
     26190   1180.5012     -5597.4309     -5363.2026      3407.0957      49535.449      105.9925     
     26200   1165.8141     -5595.575      -5364.2607      3485.471       49533.133      106.03382    
     26210   1159.3371     -5595.3398     -5365.3108      3395.4171      49531.336      106.10413    
     26220   1143.7453     -5593.2191     -5366.2837      3483.0192      49529.737      106.16962    
     26230   1136.9332     -5592.7332     -5367.1493      3606.0343      49528.178      106.21298    
     26240   1131.1444     -5592.3179     -5367.8826      3722.566       49526.563      106.26223    
     26250   1132.5339     -5593.2045     -5368.4935      3476.4944      49524.854      106.32896    
     26260   1143.547      -5595.9265     -5369.0304      2893.3107      49522.771      106.39671    
     26270   1142.3267     -5596.192      -5369.538       2549.5883      49519.891      106.45436    
     26280   1130.2408     -5594.2833     -5370.0274      2652.3422      49516.149      106.50958    
     26290   1117.1179     -5592.1139     -5370.4617      3111.9986      49511.833      106.55515    
     26300   1119.4248     -5592.9521     -5370.8422      3541.8908      49507.292      106.59926    
     26310   1119.5755     -5593.3044     -5371.1646      3721.5599      49502.813      106.65637    
     26320   1123.2763     -5594.3474     -5371.4733      3786.6983      49498.736      106.72831    
     26330   1124.5833     -5594.8982     -5371.7648      3668.5502      49495.269      106.80256    
     26340   1126.9363     -5595.6628     -5372.0625      3600.0246      49492.32       106.87394    
     26350   1132.7792     -5597.1302     -5372.3706      3380.7303      49489.866      106.9412     
     26360   1133.0364     -5597.5331     -5372.7224      3013.639       49487.8        106.98741    
     26370   1121.9371     -5595.7148     -5373.1065      3016.1899      49485.911      107.00394    
     26380   1124.3759     -5596.611      -5373.5187      2917.2037      49484.065      107.01496    
     26390   1120.6317     -5596.2755     -5373.9261      2896.7617      49482.153      107.03062    
     26400   1140.4421     -5600.6616     -5374.3816      2734.6092      49480.066      107.03521    
     26410   1142.1634     -5601.5259     -5374.9043      2881.6308      49477.649      107.01503    
     26420   1142.1587     -5602.1554     -5375.5347      3227.4308      49474.887      106.99757    
     26430   1130.5492     -5600.5543     -5376.2372      3703.6342      49472.305      107.02394    
     26440   1131.4548     -5601.5017     -5377.0049      4006.5471      49470.788      107.09627    
     26450   1127.0845     -5601.4603     -5377.8306      4084.5244      49470.761      107.20143    
     26460   1116.0028     -5600.0951     -5378.6641      4054.412       49472.239      107.33497    
     26470   1109.4864     -5599.6124     -5379.4744      3949.3086      49475.371      107.4878     
     26480   1132.0421     -5604.876      -5380.2626      3576.6267      49480.241      107.64669    
     26490   1140.8622     -5607.449      -5381.0856      3296.9446      49486.359      107.81277    
     26500   1123.5853     -5604.8613     -5381.9259      3241.0438      49493.007      107.98662    
     26510   1117.6964     -5604.5186     -5382.7516      3040.0428      49499.933      108.16049    
     26520   1091.1392     -5599.9907     -5383.4931      3045.4418      49507.104      108.33546    
     26530   1089.577      -5600.3035     -5384.1158      3065.4839      49514.51       108.51656    
     26540   1086.1549     -5600.1094     -5384.6007      3106.0031      49521.987      108.68941    
     26550   1078.9369     -5599.032      -5384.9554      3280.4163      49529.197      108.8222     
     26560   1083.493      -5600.1665     -5385.186       3221.6158      49536.057      108.90058    
     26570   1094.4581     -5602.4865     -5385.3303      3252.1531      49542.637      108.95411    
     26580   1096.958      -5603.0592     -5385.407       3247.8731      49548.934      109.02269    
     26590   1107.564      -5605.2275     -5385.471       3157.8359      49554.893      109.10345    
     26600   1103.2464     -5604.423      -5385.5231      2946.0823      49560.528      109.18044    
     26610   1106.1025     -5605.0481     -5385.5815      2718.3352      49565.934      109.22818    
     26620   1096.25       -5603.1526     -5385.6409      2674.4802      49571.374      109.25291    
     26630   1086.8934     -5601.3197     -5385.6645      2508.8258      49577.069      109.28202    
     26640   1110.7546     -5606.0468     -5385.6571      1955.7957      49582.812      109.32916    
     26650   1107.1909     -5605.3411     -5385.6585      1688.859       49587.988      109.37566    
     26660   1099.7289     -5603.885      -5385.6831      1668.3912      49592.256      109.41027    
     26670   1102.3237     -5604.4358     -5385.719       1728.2105      49595.6        109.44777    
     26680   1091.0969     -5602.2316     -5385.7423      1978.199       49598.115      109.48279    
     26690   1109.0518     -5605.8226     -5385.7709      2006.4425      49599.959      109.51581    
     26700   1116.1153     -5607.2677     -5385.8144      2040.2165      49601.361      109.56498    
     26710   1120.3241     -5608.2224     -5385.9341      1979.1648      49602.511      109.63052    
     26720   1100.8303     -5604.5413     -5386.1208      2050.7795      49603.281      109.69979    
     26730   1086.5631     -5601.91       -5386.3204      2208.7359      49603.618      109.76814    
     26740   1083.3812     -5601.4677     -5386.5093      2281.6849      49603.601      109.82989    
     26750   1062.949      -5597.5419     -5386.6376      2541.4268      49603.26       109.8685     
     26760   1071.6957     -5599.3374     -5386.6976      2467.5964      49602.653      109.89929    
     26770   1085.5616     -5602.0635     -5386.6725      2356.1351      49601.762      109.95408    
     26780   1120.8517     -5609.02       -5386.627       2281.3205      49600.616      110.05482    
     26790   1109.0684     -5606.7041     -5386.6491      2758.4498      49599.245      110.17415    
     26800   1097.9154     -5604.5852     -5386.7431      2925.2807      49597.747      110.27187    
     26810   1116.6383     -5608.4707     -5386.9137      2589.0591      49596.051      110.34469    
     26820   1103.2121     -5606.079      -5387.1859      2651.3967      49593.92       110.4431     
     26830   1096.4849     -5605.1528     -5387.5945      2953.9138      49591.43       110.55264    
     26840   1105.3758     -5607.4713     -5388.1489      3043.6458      49588.748      110.61745    
     26850   1111.571      -5609.4463     -5388.8947      2801.7433      49585.958      110.65284    
     26860   1119.3774     -5612.0035     -5389.903       2418.3416      49583.083      110.69953    
     26870   1119.9304     -5613.397      -5391.1867      2141.3555      49579.989      110.76863    
     26880   1088.389      -5608.6062     -5392.6542      2392.8196      49576.607      110.84744    
     26890   1065.1786     -5605.4586     -5394.1119      2789.5779      49573.158      110.90447    
     26900   1039.3428     -5601.6167     -5395.3962      3161.1856      49569.852      110.92837    
     26910   1029.958      -5600.762      -5396.4035      3100.7339      49566.817      110.93625    
     26920   1042.2572     -5603.9652     -5397.1665      2540.1919      49563.911      110.95364    
     26930   1041.0222     -5604.2761     -5397.7224      2289.1982      49560.628      110.98648    
     26940   1035.856      -5603.6199     -5398.0912      2288.4116      49556.559      111.03791    
     26950   1042.7628     -5605.2037     -5398.3047      2511.4503      49551.488      111.12161    
     26960   1041.839      -5605.0803     -5398.3645      2800.9131      49545.441      111.2321     
     26970   1062.6041     -5609.1552     -5398.3193      2476.3607      49538.474      111.35211    
     26980   1075.4862     -5611.5981     -5398.2063      2012.5843      49530.466      111.46215    
     26990   1073.2665     -5611.0188     -5398.0674      1831.5747      49521.199      111.52902    
     27000   1069.965      -5610.2095     -5397.9131      1961.6579      49510.62       111.53901    
     27010   1070.7949     -5610.1824     -5397.7213      2151.6706      49498.83       111.50817    
     27020   1077.2021     -5611.2385     -5397.5062      2352.3893      49485.766      111.45287    
     27030   1074.715      -5610.5131     -5397.2742      2589.8224      49471.562      111.3808     
     27040   1085.2805     -5612.3599     -5397.0247      2514.5832      49456.551      111.31362    
     27050   1103.2743     -5615.6968     -5396.7913      2268.7739      49440.834      111.28236    
     27060   1099.9436     -5614.8768     -5396.6323      2280.3082      49424.268      111.27857    
     27070   1083.4305     -5611.5106     -5396.5425      2396.124       49406.959      111.27938    
     27080   1064.3048     -5607.6368     -5396.4635      2511.5299      49389.238      111.27436    
     27090   1071.1609     -5608.9127     -5396.3791      2453.5035      49371.142      111.25486    
     27100   1076.5027     -5609.8535     -5396.26        2629.8856      49352.413      111.22715    
     27110   1085.949      -5611.608      -5396.1402      2897.7881      49333.099      111.20705    
     27120   1091.9527     -5612.7052     -5396.0461      3146.1621      49313.532      111.19078    
     27130   1086.2848     -5611.519      -5395.9846      3261.384       49294.123      111.16594    
     27140   1078.4954     -5609.9839     -5395.9949      3193.9957      49275.122      111.14351    
     27150   1049.5956     -5604.2538     -5395.999       3390.744       49256.527      111.13629    
     27160   1057.9127     -5605.8772     -5395.9722      3241.7027      49238.459      111.12958    
     27170   1061.2668     -5606.4353     -5395.8648      3285.6754      49220.942      111.13355    
     27180   1079.376      -5609.8832     -5395.7195      3489.4572      49204.219      111.15742    
     27190   1085.9807     -5611.0525     -5395.5784      3931.2998      49188.655      111.17391    
     27200   1083.4541     -5610.4362     -5395.4634      4425.9341      49174.586      111.17483    
     27210   1094.739      -5612.6199     -5395.408       4308.0082      49162.29       111.18406    
     27220   1082.5863     -5610.2344     -5395.4337      4110.2152      49151.781      111.22724    
     27230   1067.1326     -5607.2563     -5395.5219      3894.5076      49143.015      111.30303    
     27240   1075.3537     -5609.0153     -5395.6497      3612.6966      49135.712      111.39627    
     27250   1088.9248     -5611.8889     -5395.8306      3412.8841      49129.559      111.50412    
     27260   1090.2761     -5612.4672     -5396.1408      3509.5876      49124.376      111.62455    
     27270   1074.027      -5609.6664     -5396.564       3934.8185      49120.199      111.73738    
     27280   1061.5248     -5607.6859     -5397.0642      4322.4393      49117.258      111.82234    
     27290   1080.5442     -5612.0339     -5397.6385      4243.6087      49115.819      111.89936    
     27300   1096.5186     -5615.8938     -5398.3288      3874.3409      49115.965      111.98869    
     27310   1094.8026     -5616.4281     -5399.2036      3458.509       49117.425      112.07559    
     27320   1067.4607     -5611.9991     -5400.1996      3462.7288      49119.793      112.15386    
     27330   1067.8821     -5613.1194     -5401.2363      3477.0173      49122.901      112.23533    
     27340   1081.0304     -5616.7991     -5402.3072      3283.1786      49126.678      112.34888    
     27350   1070.9648     -5615.8945     -5403.3998      3030.8065      49131.172      112.50133    
     27360   1060.5341     -5614.875      -5404.4498      2786.4228      49136.318      112.66475    
     27370   1059.3379     -5615.603      -5405.4152      2723.783       49141.799      112.81759    
     27380   1060.8617     -5616.78       -5406.2899      2755.6192      49147.443      112.95548    
     27390   1049.5851     -5615.3174     -5407.0647      2974.5912      49153.317      113.06536    
     27400   1048.834      -5615.8381     -5407.7344      3025.8208      49159.615      113.14736    
     27410   1059.0705     -5618.4547     -5408.32        2968.3612      49166.408      113.2301     
     27420   1049.3675     -5617.0635     -5408.8539      3142.7602      49173.699      113.32484    
     27430   1025.9784     -5612.8773     -5409.3085      3479.4776      49181.769      113.44332    
     27440   1021.2664     -5612.2756     -5409.6418      3565.9346      49190.743      113.58416    
     27450   1024.9244     -5613.2062     -5409.8465      3584.2138      49200.351      113.74015    
     27460   1016.1869     -5611.5568     -5409.9307      3616.1503      49210.343      113.90637    
     27470   1033.0093     -5614.8842     -5409.9203      3231.2407      49220.784      114.08137    
     27480   1059.5679     -5620.0847     -5409.8513      2546.9079      49231.844      114.26994    
     27490   1072.1127     -5622.5156     -5409.7931      2286.4943      49243.127      114.4746     
     27500   1066.2128     -5621.3617     -5409.8098      2343.1731      49254.101      114.66677    
     27510   1058.3828     -5619.8712     -5409.8729      2619.5668      49264.516      114.85033    
     27520   1067.8153     -5621.8521     -5409.9822      2748.7758      49274.196      115.05705    
     27530   1067.7291     -5622.0015     -5410.1487      3012.4434      49283.112      115.27567    
     27540   1056.5892     -5620.036      -5410.3936      3197.3194      49291.765      115.48386    
     27550   1052.8051     -5619.5651     -5410.6735      2904.9027      49300.582      115.67854    
     27560   1054.5407     -5620.2209     -5410.985       2326.0707      49309.408      115.86822    
     27570   1048.1692     -5619.3113     -5411.3395      1971.864       49317.9        116.03548    
     27580   1020.8656     -5614.2506     -5411.6963      2273.2922      49325.968      116.16726    
     27590   998.94651     -5610.1967     -5411.9914      2685.4229      49333.688      116.2638     
     27600   1011.5448     -5612.8733     -5412.1683      2706.5635      49341.064      116.33076    
[...]
     48200   875.99814     -5613.4061     -5439.5956      28.454935      54024.939      251.91078    
     48210   882.63613     -5615.6821     -5440.5545     -105.76068      54058.024      252.10493    
     48220   886.37308     -5617.3546     -5441.4855     -19.484083      54090.457      252.29632    
     48230   884.29648     -5617.8263     -5442.3692      201.49531      54122.611      252.49097    
     48240   890.39558     -5619.8613     -5443.1941      293.37236      54155.349      252.68853    
     48250   891.96836     -5620.9464     -5443.9671      255.29114      54189.046      252.88825    
     48260   877.41844     -5618.7583     -5444.6659      302.84878      54223.569      253.09402    
     48270   865.25552     -5616.9199     -5445.2408      200.43798      54258.986      253.30973    
     48280   868.37156     -5617.9541     -5445.6567     -139.59558      54294.757      253.52999    
     48290   869.02317     -5618.3525     -5445.9259     -451.48957      54329.39       253.73528    
     48300   872.09488     -5619.0948     -5446.0587     -663.25709      54361.463      253.89931    
     48310   886.2592      -5621.9312     -5446.0846     -731.00561      54390.046      254.00889    
     48320   887.30852     -5622.1113     -5446.0566     -553.28848      54414.934      254.07679    
     48330   872.51574     -5619.1014     -5445.9818     -167.41542      54436.97       254.13799    
     48340   869.58637     -5618.3643     -5445.8259      135.85874      54457.832      254.23848    
     48350   868.73287     -5617.9233     -5445.5543      308.41448      54478.918      254.4034     
     48360   864.6423      -5616.7039     -5445.1464      513.90986      54501.126      254.61991    
     48370   881.88406     -5619.5815     -5444.6031      349.04512      54525.166      254.87232    
     48380   895.66716     -5621.662      -5443.9488     -11.947908      54550.289      255.14428    
     48390   890.25914     -5619.8811     -5443.2409     -132.52227      54575.053      255.40506    
     48400   880.93168     -5617.2839     -5442.4945     -165.47198      54598.829      255.62793    
     48410   870.54387     -5614.3967     -5441.6684     -89.012433      54621.492      255.80433    
     48420   867.61669     -5612.8971     -5440.7495      0.1138479      54643.358      255.94907    
     48430   872.37287     -5612.8253     -5439.734       53.177259      54664.854      256.09885    
     48440   873.52209     -5611.9834     -5438.6641      168.60633      54686.295      256.28112    
     48450   883.61147     -5612.9326     -5437.6114      219.80974      54708.134      256.50485    
     48460   897.54029     -5614.7186     -5436.6338      222.13282      54730.623      256.76293    
     48470   888.46327     -5612.0845     -5435.8006      392.54827      54753.851      257.02843    
     48480   872.4072      -5608.196      -5435.098       556.90756      54778.552      257.27425    
     48490   881.4852      -5609.3719     -5434.4727      391.35843      54805.33       257.4737     
     48500   889.09838     -5610.3062     -5433.8963      185.44005      54833.475      257.61656    
     48510   893.73184     -5610.7273     -5433.3981      28.621407      54862.018      257.71468    
     48520   886.14535     -5608.7794     -5432.9555     -21.774332      54890.276      257.78638    
     48530   883.38801     -5607.8185     -5432.5416     -38.353959      54918.051      257.84887    
     48540   893.18232     -5609.3492     -5432.1291     -224.26803      54945.157      257.92209    
     48550   898.44245     -5609.9967     -5431.7329     -364.95334      54970.791      258.02784    
     48560   886.29893     -5607.2172     -5431.3628     -204.60691      54994.455      258.1662     
     48570   878.05226     -5605.1938     -5430.9757     -84.54902       55016.798      258.32225    
     48580   890.15754     -5607.1619     -5430.5419     -200.26256      55038.344      258.48252    
     48590   897.7706      -5608.2034     -5430.0728     -406.83227      55058.632      258.63332    
     48600   911.53925     -5610.4746     -5429.6122     -682.55565      55076.665      258.78058    
     48610   918.54556     -5611.4509     -5429.1983     -736.21901      55091.336      258.92764    
     48620   923.70156     -5612.1456     -5428.87       -757.34856      55102.306      259.06406    
     48630   925.12399     -5612.202      -5428.6442     -719.87856      55109.547      259.18922    
     48640   922.76772     -5611.6157     -5428.5254     -700.88417      55113.297      259.30612    
     48650   911.27802     -5609.3112     -5428.5005     -719.89916      55113.635      259.41393    
     48660   895.16447     -5606.1317     -5428.5183     -687.58725      55110.567      259.50439    
     48670   899.46628     -5606.9971     -5428.5301     -857.43866      55104.192      259.57897    
     48680   910.91848     -5609.283      -5428.5437     -1104.6031      55093.813      259.64171    
     48690   911.56353     -5609.469      -5428.6017     -1189.2217      55078.425      259.68663    
     48700   906.44807     -5608.5601     -5428.7078     -1188.2082      55057.622      259.71159    
     48710   902.27038     -5607.8741     -5428.8508     -980.01672      55031.523      259.71203    
     48720   891.26495     -5605.8362     -5428.9965     -487.07719      55001.258      259.68326    
     48730   887.17481     -5605.1437     -5429.1155     -82.279623      54968.98       259.62263    
     48740   887.08494     -5605.1876     -5429.1773      114.63457      54936.594      259.55358    
     48750   904.28129     -5608.6322     -5429.2098      58.086197      54905.042      259.4892     
     48760   916.0707      -5611.0243     -5429.2627      30.268882      54874.123      259.41748    
     48770   907.13547     -5609.3591     -5429.3705      191.88079      54843.759      259.35014    
     48780   912.85333     -5610.6639     -5429.5408      165.65742      54814.541      259.31012    
     48790   920.90307     -5612.5023     -5429.782      -16.073615      54786.382      259.30828    
     48800   917.49354     -5612.1892     -5430.1454     -123.88463      54758.53       259.34319    
     48810   904.70792     -5610.1263     -5430.6193     -97.108896      54730.469      259.38736    
     48820   893.22314     -5608.3887     -5431.1604     -52.406809      54702.252      259.42195    
     48830   887.52217     -5607.8328     -5431.7357     -38.812445      54674.052      259.44737    
     48840   886.9523      -5608.3096     -5432.3255     -137.29074      54645.9        259.45164    
     48850   892.53954     -5610.0231     -5432.9304     -333.43521      54617.363      259.42234    
     48860   900.50629     -5612.2489     -5433.5756     -535.78815      54587.536      259.36562    
     48870   905.05483     -5613.8617     -5434.2859     -629.35105      54555.544      259.29621    
     48880   890.94285     -5611.8333     -5435.0574     -475.42082      54521.026      259.22226    
     48890   881.32636     -5610.6958     -5435.828      -311.72514      54484.628      259.16604    
     48900   877.25545     -5610.616      -5436.5559     -174.52826      54447.142      259.12684    
     48910   869.42037     -5609.7147     -5437.2093     -93.852227      54409.2        259.06815    
     48920   871.01257     -5610.5878     -5437.7664     -157.81215      54371.138      258.98006    
     48930   880.33354     -5612.9092     -5438.2384     -278.11565      54332.705      258.88376    
     48940   881.47753     -5613.5442     -5438.6464     -287.90424      54293.403      258.80181    
     48950   883.81907     -5614.363      -5439.0007     -320.24304      54253.15       258.73506    
     48960   890.1179      -5615.929      -5439.3168     -398.20852      54211.813      258.68166    
     48970   881.40615     -5614.4821     -5439.5985     -320.03801      54169.117      258.64216    
     48980   874.45738     -5613.323      -5439.8181     -163.34682      54125.431      258.61323    
     48990   872.40779     -5613.0509     -5439.9527      6.910398       54081.427      258.57774    
     49000   866.23796     -5611.8461     -5439.9721      374.18724      54037.949      258.52253    
     49010   875.46234     -5613.5654     -5439.8612      688.86418      53996.562      258.46001    
     49020   888.48178     -5615.915      -5439.6275      886.87921      53958.697      258.40941    
     49030   894.52525     -5616.7928     -5439.3062      959.5263       53925.225      258.3803     
     49040   899.70179     -5617.4312     -5438.9174      887.10458      53896.412      258.3712     
     49050   909.37463     -5618.9041     -5438.4711      654.60416      53871.803      258.37426    
     49060   916.88246     -5619.9144     -5437.9918      382.74839      53850.343      258.38102    
     49070   908.90025     -5617.8307     -5437.4919      377.8366       53830.943      258.3852     
     49080   902.38431     -5616.0004     -5436.9544      503.64187      53813.468      258.38748    
     49090   903.89962     -5615.688      -5436.3414      621.08309      53798.396      258.40419    
     49100   894.74024     -5613.1685     -5435.6392      994.60709      53786.391      258.45194    
     49110   898.301       -5613.0685     -5434.8327      1178.5487      53778.875      258.52497    
     49120   914.61316     -5615.3939     -5433.9216      1117.6801      53776.655      258.63218    
     49130   925.41057     -5616.5903     -5432.9756      913.53099      53779.446      258.7766     
     49140   923.37118     -5615.2753     -5432.0652      660.77927      53786.394      258.95702    
     49150   921.76959     -5614.1093     -5431.217       478.97409      53796.371      259.15464    
     49160   932.47204     -5615.4639     -5430.4481      386.4433       53808.491      259.33768    
     49170   934.68826     -5615.2463     -5429.7908      465.14372      53822.387      259.48501    
     49180   938.88255     -5615.5602     -5429.2724      451.42318      53838.275      259.59386    
     49190   945.51235     -5616.5142     -5428.911       374.4663       53856.116      259.6749     
     49200   946.01337     -5616.4296     -5428.727       408.73057      53875.651      259.75191    
     49210   932.44273     -5613.739      -5428.729       573.58863      53897.031      259.8716     
     49220   928.83386     -5613.1725     -5428.8785      587.32218      53920.894      260.05913    
     49230   932.27639     -5614.1426     -5429.1656      441.22702      53947.255      260.2923     
     49240   918.57812     -5611.8409     -5429.5819      491.11005      53975.623      260.53834    
     49250   915.4945      -5611.7505     -5430.1033      576.31648      54006.173      260.77027    
     49260   922.18862     -5613.7137     -5430.7383      589.83538      54039.215      260.97913    
     49270   905.79314     -5611.1993     -5431.477       797.76063      54074.977      261.16656    
     49280   896.62639     -5610.1934     -5432.2898      819.87714      54114.209      261.3354     
     49290   891.03159     -5609.9103     -5433.1168      708.90705      54157.053      261.5062     
     49300   887.15848     -5609.9546     -5433.9296      492.0572       54202.997      261.69809    
     49310   894.14085     -5612.1145     -5434.7042      108.10689      54250.977      261.91925    
     49320   903.99456     -5614.838      -5435.4725     -241.49134      54299.291      262.16478    
     49330   887.10434     -5612.2419     -5436.2277     -240.51017      54346.449      262.42957    
     49340   869.69211     -5609.4792     -5436.9199     -94.9443        54392.356      262.70862    
     49350   871.18567     -5610.342      -5437.4863     -41.210061      54437.607      262.98959    
     49360   881.97653     -5612.9476     -5437.9509     -12.191714      54482.475      263.25758    
     49370   866.06578     -5610.1549     -5438.3151      226.33755      54527.204      263.50941    
     49380   854.79904     -5608.1528     -5438.5485      275.83005      54572.739      263.75387    
     49390   859.41751     -5609.1313     -5438.6106      7.4766205      54619.237      264.00809    
     49400   864.79209     -5610.0879     -5438.5008     -307.69372      54665.559      264.27694    
     49410   874.43175     -5611.7593     -5438.2595     -604.67309      54710.199      264.54679    
     49420   867.51016     -5610.0187     -5437.8922     -599.07443      54751.908      264.81332    
     49430   865.80673     -5609.1969     -5437.4084     -372.77288      54790.697      265.0699     
     49440   874.51763     -5610.3127     -5436.7959     -78.490341      54827.601      265.31091    
     49450   882.87605     -5611.2411     -5436.0658      80.908035      54863.9        265.54133    
     49460   890.23853     -5611.8966     -5435.2605      62.933579      54900.311      265.76047    
     49470   896.77365     -5612.3412     -5434.4085     -149.66434      54936.735      265.96711    
     49480   886.69976     -5609.4774     -5433.5435     -241.77069      54972.337      266.16006    
     49490   887.4338      -5608.7574     -5432.6779     -511.64339      55006.508      266.32522    
     49500   887.94464     -5607.9961     -5431.8152     -810.71827      55038.032      266.44395    
     49510   881.38043     -5605.8776     -5430.9991     -837.07107      55065.658      266.51139    
     49520   879.20527     -5604.6984     -5430.2514     -731.2204       55089.217      266.53412    
     49530   886.50089     -5605.4843     -5429.5898     -594.53895      55109.195      266.54026    
     49540   883.1775      -5604.267      -5429.0319     -354.77254      55126.328      266.57347    
     49550   883.88714     -5603.959      -5428.5831     -298.24349      55141.596      266.66561    
     49560   891.56556     -5605.1104     -5428.211      -436.72705      55155.279      266.79593    
     49570   896.55607     -5605.7981     -5427.9085     -617.25346      55166.802      266.92044    
     49580   896.61651     -5605.5677     -5427.6662     -662.23519      55175.426      267.00689    
     49590   888.88295     -5603.8202     -5427.4531     -611.25062      55180.924      267.0488     
     49600   886.82112     -5603.1969     -5427.2389     -615.32199      55183.47       267.06033    
     49610   896.20437     -5604.8291     -5427.0093     -730.78298      55183.014      267.05016    
     49620   895.2228      -5604.3951     -5426.7701     -698.57387      55179.156      267.03       
     49630   901.68191     -5605.4436     -5426.537      -669.30022      55171.975      267.01219    
     49640   899.66147     -5604.8192     -5426.3135     -460.33013      55161.749      267.00023    
     49650   898.94134     -5604.4603     -5426.0975     -348.74653      55149.308      267.00938    
     49660   910.99441     -5606.6393     -5425.8849     -362.60388      55135.258      267.05841    
     49670   918.61836     -5607.9822     -5425.7151     -315.5046       55119.624      267.13448    
     49680   920.45675     -5608.2451     -5425.6133     -276.47774      55102.565      267.18305    
     49690   921.78512     -5608.4824     -5425.5871     -135.55556      55084.365      267.17177    
     49700   925.2656      -5609.2266     -5425.6406      37.840013      55065.679      267.1117     
     49710   935.25868     -5611.3792     -5425.8104      131.90012      55047.253      267.01995    
     49720   925.55343     -5609.7524     -5426.1094      348.1639       55029.662      266.9104     
     49730   917.7059      -5608.6274     -5426.5414      354.58894      55013.733      266.81079    
     49740   905.09146     -5606.6305     -5427.0474      289.126        54999.574      266.74585    
     49750   892.56874     -5604.6852     -5427.5868      113.0337       54986.848      266.71568    
     49760   893.70912     -5605.4432     -5428.1185     -145.18847      54974.724      266.69256    
     49770   893.89616     -5606.0076     -5428.6458     -248.18908      54962.099      266.65417    
     49780   879.69422     -5603.6924     -5429.1485     -95.243769      54948.489      266.61244    
     49790   867.8833      -5601.7698     -5429.5693      67.917756      54934.537      266.57017    
     49800   872.22232     -5602.9325     -5429.8711      133.16239      54921.033      266.52373    
     49810   878.92078     -5604.4512     -5430.0607      111.30394      54908.271      266.48484    
     49820   883.08778     -5605.3854     -5430.1681      80.411695      54896.179      266.45818    
     49830   893.44759     -5607.4882     -5430.2154     -84.549822      54884.511      266.44361    
     49840   903.49035     -5609.5082     -5430.2428     -161.53939      54872.628      266.44792    
     49850   900.74669     -5608.9948     -5430.2737     -173.04386      54860.159      266.47741    
     49860   893.88022     -5607.665      -5430.3064     -179.84524      54847.033      266.51496    
     49870   900.55712     -5609.0076     -5430.3241     -281.46122      54833.138      266.54068    
     49880   906.90333     -5610.2897     -5430.3471     -301.67557      54818.114      266.54319    
     49890   908.58813     -5610.6746     -5430.3977     -279.41001      54801.886      266.51315    
     49900   911.60894     -5611.3751     -5430.4989     -167.79297      54784.56       266.43932    
     49910   897.65443     -5608.7552     -5430.6478      275.22129      54766.802      266.33551    
     49920   887.92282     -5606.9832     -5430.8065      743.8529       54750.545      266.23507    
     49930   887.8762      -5607.1066     -5430.9392      1005.1509      54737.902      266.16509    
     49940   885.99174     -5606.8246     -5431.0311      1026.8817      54730.045      266.15231    
     49950   893.38453     -5608.3528     -5431.0925      813.54665      54726.993      266.20496    
     49960   888.34001     -5607.3948     -5431.1354      643.97191      54727.821      266.29433    
     49970   871.64594     -5604.067      -5431.12        571.57818      54731.731      266.3697     
     49980   889.75302     -5607.5603     -5431.0206      83.153925      54738.071      266.38688    
     49990   898.34309     -5609.0925     -5430.8484     -349.02414      54744.732      266.33876    
     50000   886.17392     -5606.4576     -5430.628      -431.66059      54749.846      266.25715    
Loop time of 6617.67 on 1 procs for 20000 steps with 1536 atoms

Performance: 0.261 ns/day, 91.912 hours/ns, 3.022 timesteps/s, 4.642 katom-step/s
127.0% CPU use with 1 MPI tasks x 1 OpenMP threads

MPI task timing breakdown:
Section |  min time  |  avg time  |  max time  |%varavg| %total
---------------------------------------------------------------
Pair    | 6503.9     | 6503.9     | 6503.9     |   0.0 | 98.28
Bond    | 0.0074196  | 0.0074196  | 0.0074196  |   0.0 |  0.00
Neigh   | 5.5867     | 5.5867     | 5.5867     |   0.0 |  0.08
Comm    | 0.66516    | 0.66516    | 0.66516    |   0.0 |  0.01
Output  | 105.81     | 105.81     | 105.81     |   0.0 |  1.60
Modify  | 1.5392     | 1.5392     | 1.5392     |   0.0 |  0.02
Other   |            | 0.1489     |            |       |  0.00

Nlocal:           1536 ave        1536 max        1536 min
Histogram: 1 0 0 0 0 0 0 0 0 0
Nghost:           2378 ave        2378 max        2378 min
Histogram: 1 0 0 0 0 0 0 0 0 0
Neighs:              0 ave           0 max           0 min
Histogram: 1 0 0 0 0 0 0 0 0 0
FullNghs:        43816 ave       43816 max       43816 min
Histogram: 1 0 0 0 0 0 0 0 0 0

Total # of neighbors = 43816
Ave neighs/atom = 28.526042
Ave special neighs/atom = 0
Neighbor list builds = 2000
Dangerous builds = 2000
unfix           3

write_data      structure.end.data
System init for write_data ...
write_restart   structure.end
System init for write_restart ...
                    
Total wall time: 2:53:19
