LAMMPS (29 Sep 2021 - Update 3)
OMP_NUM_THREADS environment is not set. Defaulting to 1 thread. (src/comm.cpp:98)
  using 1 OpenMP thread(s) per MPI task
Reading data file ...
  orthogonal box = (0.0000000 0.0000000 0.0000000) to (15.972433 15.972433 31.944866)
  1 by 2 by 4 MPI processor grid
  reading atoms ...
  432 atoms
Finding 1-2 1-3 1-4 neighbors ...
  special bond factors lj:    0        0        0       
  special bond factors coul:  0        0        0       
     0 = max # of 1-2 neighbors
     0 = max # of 1-3 neighbors
     0 = max # of 1-4 neighbors
     1 = max # of special neighbors
  special bonds CPU = 0.002 seconds
  read_data CPU = 0.017 seconds
Neighbor list info ...
  update every 1 steps, delay 10 steps, check yes
  max neighbors/atom: 2000, page size: 100000
  master list distance cutoff = 6.22
  ghost atom cutoff = 6.22
  binsize = 3.11, bins = 6 6 11
  1 neighbor lists, perpetual/occasional/extra = 1 0 0
  (1) pair quip, perpetual
      attributes: full, newton on
      pair build: full/bin
      stencil: full/bin/3d
      bin: standard
Setting up Verlet run ...
  Unit style    : metal
  Current step  : 0
  Time step     : 0.001
Per MPI rank memory allocation (min/avg/max) = 8.918 | 8.919 | 8.920 Mbytes
Step Temp PotEng TotEng Press Volume c_msd[4] 
       0          300   -3319.1122   -3302.3989   -3418.7666    8149.7297            0 
      10    382.37022   -3323.7187   -3302.4164   -8381.6016    8147.3906 0.0057172663 
      20    606.91873   -3336.5134   -3302.7013    -12974.64    8135.9838  0.023896882 
      30    826.84806   -3350.0807    -3304.016   -12015.332    8110.7856  0.055725822 
      40      887.685   -3356.0204   -3306.5665    -5263.572    8073.1013   0.09726146 
      50    787.60472   -3352.6409   -3308.7625    3859.9688    8030.2809   0.13980056 
      60    623.61652   -3344.9999   -3310.2576    10574.112    7991.8967   0.17627025 
      70    506.29122   -3339.5863   -3311.3802    14092.655    7965.0053   0.20414482 
      80    505.46905   -3340.5912    -3312.431    14887.707    7953.0963   0.22320978 
      90    578.10957   -3345.9671     -3313.76    14151.228    7956.8836   0.23386256 
     100     640.4194   -3351.2037   -3315.5252    11720.946    7975.4051   0.23637373 
     110    662.87205   -3354.5422   -3317.6129    7398.0448    8005.9803   0.23214866 
     120    628.14308   -3354.7033   -3319.7087    3455.3161    8044.1919   0.22509604 
     130    578.14283   -3353.7819    -3321.573    455.67052    8085.7388   0.21756582 
     140    544.17598   -3353.5149   -3323.1982   -2417.5469    8127.1202   0.21118651 
     150    508.53966     -3352.95   -3324.6187   -5066.7139    8165.0917   0.20879573 
     160    487.81936   -3353.0496   -3325.8727   -7575.7348    8196.6361   0.21160023 
     170    488.99529   -3354.3232   -3327.0807   -8935.6028    8219.1016   0.21924049 
     180    485.02205   -3355.3555   -3328.3344   -8594.2214    8231.1733   0.23087142 
     190    463.09815   -3355.4026   -3329.6029   -7375.4524    8233.4059   0.24418314 
     200    445.38267   -3355.6446   -3330.8318   -7010.8062    8227.2575   0.25567179 
     210    443.79485   -3356.7782   -3332.0539   -7107.1046    8213.4481      0.26387 
     220    428.15519   -3357.1202   -3333.2672   -6433.0166    8192.2743   0.27062623 
     230    408.95342   -3357.1805   -3334.3973   -4448.4926    8164.8762   0.27680766 
     240    408.84777   -3358.2199   -3335.4426   -2401.6746    8133.5845   0.28130902 
     250    420.68217   -3359.8872   -3336.4506   -439.69343    8100.8714   0.28370447 
     260    427.17667   -3361.2436   -3337.4451    1938.6611     8069.065   0.28462928 
     270    424.24638   -3362.0461   -3338.4108    3995.1381    8040.6397   0.28383913 
     280    420.26149   -3362.7759   -3339.3626    4965.7462    8017.5494   0.28070738 
     290     412.0319   -3363.2697   -3340.3149    5192.5478    8000.5951   0.27577569 
     300    390.32679   -3362.9863   -3341.2407    5297.6108    7989.8008   0.26990809 
     310    376.20407   -3363.0703   -3342.1116    4409.0499    7984.9048   0.26296321 
     320    375.39618   -3363.8685   -3342.9547    2446.3069    7984.7076   0.25574975 
     330    373.81244   -3364.6053   -3343.7798    955.18787    7987.1415   0.25009995 
     340     371.7904   -3365.2981   -3344.5852    -162.9666    7990.5137   0.24646771 
     350    372.45071   -3366.1275   -3345.3779   -832.53842    7993.6408   0.24380227 
     360    371.82027   -3366.8788   -3346.1643   -1336.1657    7995.8104   0.24104039 
     370    367.66473   -3367.4271   -3346.9441    -2051.328     7996.468   0.23815423 
     380    352.53676   -3367.3345   -3347.6943   -2418.8845    7994.9776   0.23598109 
     390    335.23946   -3367.0658   -3348.3893   -2308.5448    7991.0422    0.2347628 
     400    327.32153   -3367.2651   -3349.0296   -2102.4354    7984.8267   0.23390855 
     410    335.69358   -3368.3482   -3349.6463   -1905.8932    7976.6036   0.23291666 
     420    341.89128   -3369.3117   -3350.2645   -981.06089    7966.7138   0.23236199 
     430    328.93257   -3369.1846   -3350.8594    458.52237    7956.1542   0.23246923 
     440    318.86374   -3369.1692    -3351.405    1606.2507    7946.3703   0.23226815 
     450    306.83998   -3369.0029   -3351.9085    2139.6606    7938.4789   0.23208426 
     460    286.36372   -3368.3006    -3352.347    2376.4391    7933.0277   0.23170879 
     470    292.08833   -3369.0113   -3352.7387    1260.3163    7930.0671   0.22954396 
     480    304.95709   -3370.1115    -3353.122   -185.34407    7928.4661    0.2269068 
     490    296.76869   -3370.0266   -3353.4933   -667.59901    7926.7988   0.22607678 
     500     287.9987   -3369.8756   -3353.8309   -541.40083    7924.5419   0.22680141 
     510    295.32456   -3370.6043   -3354.1514   -612.64562    7921.7539   0.22806718 
     520    293.48499   -3370.8171   -3354.4668   -544.38291    7918.4172   0.22984876 
     530    292.64295   -3371.0766   -3354.7731   -851.00311    7914.5557   0.23134966 
     540    292.13161   -3371.3435   -3355.0685   -1343.4591    7909.8793   0.23248355 
     550    279.25996    -3370.896   -3355.3381    -1404.792    7903.9418    0.2336875 
     560    267.85056   -3370.4859   -3355.5637   -991.80274      7896.71   0.23442747 
     570    270.10465   -3370.7961   -3355.7483   -440.49487    7888.6004   0.23437452 
     580    271.70666   -3371.0332   -3355.8962    532.52033    7880.2365   0.23418987 
     590    272.14575   -3371.1695    -3356.008    1443.3869    7872.5721   0.23408176 
     600    273.24631   -3371.3114   -3356.0886    1963.8115    7866.4967    0.2339473 
     610    277.62442   -3371.6138    -3356.147    1962.4699    7862.4911   0.23406309 
     620    283.32956   -3371.9741   -3356.1894    1531.6437    7860.5257   0.23506224 
     630    290.10929   -3372.3793    -3356.217    825.05417    7860.1316   0.23752816 
     640    289.32869   -3372.3462   -3356.2274    378.84248    7860.6167   0.24159794 
     650    280.91426   -3371.8698   -3356.2198    710.58764    7861.5721   0.24626827 
     660    276.34911   -3371.5871   -3356.1913    1075.6967     7863.251   0.24991185 
     670    279.18143   -3371.6951   -3356.1416    842.50035    7865.9571   0.25188074 
     680    276.55784   -3371.4803   -3356.0729    746.17979    7869.5104   0.25314976 
     690    269.52306   -3371.0002   -3355.9847    1026.2536    7873.8308   0.25418016 
     700    274.24287    -3371.149   -3355.8706    598.36067    7879.0823   0.25412869 
     710    281.92463    -3371.432   -3355.7256   -174.82725    7884.8554   0.25314097 
     720    279.53062   -3371.1298   -3355.5569   -801.07894    7890.4022   0.25202035 
     730    288.22154   -3371.4262   -3355.3691   -1545.6652    7895.0503   0.25089333 
     740    303.09691   -3372.0502   -3355.1644   -1593.6052     7898.116   0.25109487 
     750    295.35964   -3371.4158   -3354.9609   -104.36523    7899.6467   0.25427954 
     760    280.38423   -3370.3863   -3354.7657    1416.4639    7901.0569    0.2592325 
     770    292.98692   -3370.8849   -3354.5622    1086.7512    7903.7411   0.26375629 
     780     302.3291   -3371.1871    -3354.344    565.27641    7907.5297   0.26823124 
     790     290.3282   -3370.3064   -3354.1319    793.97808    7911.9556   0.27257316 
     800    286.10159   -3369.8643   -3353.9252    772.74985    7917.1545   0.27471463 
     810    295.54453   -3370.1723   -3353.7072    65.390071    7923.0571   0.27426188 
     820    302.68052   -3370.3404   -3353.4777   -503.86596    7929.0001   0.27305232 
     830    304.02149   -3370.1861   -3353.2488   -597.24425    7934.4168   0.27259705 
     840    308.31938   -3370.2003   -3353.0235   -611.39485    7939.1668   0.27330905 
     850    309.92718   -3370.0719   -3352.8055   -487.36508    7943.2445   0.27540788 
     860    305.55955   -3369.6283   -3352.6052    2.9628289    7946.8185   0.27814517 
     870    303.09756   -3369.3052   -3352.4193    244.35055    7950.3556   0.27995948 
     880     308.8982   -3369.4426   -3352.2336   -44.358693    7954.0713   0.28050113 
     890    311.34653   -3369.3923   -3352.0468   -76.902987    7957.7333   0.28119142 
     900    310.18507   -3369.1465   -3351.8657    315.31972    7961.3267   0.28272759 
     910    311.36877   -3369.0425   -3351.6958    648.83838    7965.2088   0.28452165 
     920    312.39141   -3368.9498   -3351.5461    1023.6451     7969.735   0.28583279 
     930     303.3253   -3368.3189   -3351.4203    1463.5328    7975.3191   0.28594921 
     940    306.08364   -3368.3627   -3351.3105    904.81643    7982.3294   0.28389148 
     950    316.70778   -3368.8508   -3351.2066   -324.47809    7990.1984   0.28101011 
     960    316.78326   -3368.7665   -3351.1182   -1217.2841    7997.7013   0.27935326 
     970    318.13496    -3368.777   -3351.0534   -1866.5505    8003.8732   0.27865915 
     980    322.72865    -3368.995   -3351.0154   -2367.9613    8008.0151   0.27873312 
     990    323.19978   -3369.0159   -3351.0101   -2693.3068    8009.5978   0.27963079 
    1000    318.27898   -3368.7686   -3351.0369   -2792.8266    8008.3113   0.28066988 
    1010    317.77766   -3368.7906   -3351.0868   -2270.0176    8004.1332   0.28123697 
    1020    313.98454    -3368.643   -3351.1505   -1023.4951    7997.6676   0.28189658 
    1030    299.20312   -3367.8828   -3351.2139    78.027209    7990.1865   0.28294651 
    1040    297.33439   -3367.8306   -3351.2657    128.92091    7982.7916   0.28292498 
    1050    312.71239   -3368.7384   -3351.3168   -314.93793    7975.5893   0.28133177 
    1060    312.64345   -3368.7925   -3351.3748    297.48639    7968.2617   0.27975791 
    1070    304.49777   -3368.3959    -3351.432    1558.4164     7961.419   0.27821106 
    1080    302.38793   -3368.3326   -3351.4862    1927.7543    7956.2371   0.27542869 
    1090    305.99438   -3368.5974   -3351.5501      1025.32    7953.0442   0.27099093 
    1100    313.81083   -3369.1173   -3351.6345   -80.754189    7950.9634   0.26590734 
    1110    316.50978   -3369.3789   -3351.7458   -504.55522    7948.9052      0.26169 
    1120     312.9894   -3369.3217   -3351.8847   -558.12607    7946.3735   0.25831032 
    1130    305.59057   -3369.0643   -3352.0395   -345.17295    7943.3296   0.25462846 
    1140    314.02284   -3369.7041   -3352.2095   -824.40772    7939.8963   0.24966895 
    1150     326.9332   -3370.6239   -3352.4101   -1306.6194    7935.6608   0.24468976 
    1160    317.00081   -3370.3014   -3352.6409    -997.2875    7930.2023   0.24160345 
    1170    306.60861   -3369.9589   -3352.8774   -637.95444    7923.7921   0.23987126 
    1180    312.46149   -3370.5233   -3353.1157   -558.92484    7916.7929   0.23891938 
    1190    312.94217   -3370.7928   -3353.3584     122.0363     7909.384   0.23980839 
    1200    303.72343   -3370.5191   -3353.5983    1583.8352    7902.2972   0.24268671 
    1210    295.81232   -3370.3081    -3353.828    3018.7807    7896.9718   0.24634795 
    1220    296.06157   -3370.5432   -3354.0492    3256.8385    7894.7584   0.24963277 
    1230    305.29463   -3371.2759   -3354.2676    2254.9413    7895.8327   0.25218489 
    1240    303.39647   -3371.3838   -3354.4812    1257.8438    7899.2267   0.25475546 
    1250    293.59759    -3371.035   -3354.6784    651.74573    7903.9125   0.25722629 
    1260    297.36904   -3371.4297    -3354.863   -197.50231    7909.1611   0.25847894 
    1270    298.92915   -3371.7005   -3355.0468   -752.50857     7914.146    0.2587323 
    1280     280.3938   -3370.8417   -3355.2206    -529.8922    7918.3454   0.25853868 
    1290    271.75847   -3370.5081   -3355.3681   -559.10957    7921.8945   0.25715294 
    1300    278.43958   -3371.0042    -3355.492   -1034.4349    7924.7574   0.25521523 
    1310      275.623   -3370.9512   -3355.5959   -954.61349    7926.5494   0.25465891 
    1320    266.76952   -3370.5358   -3355.6738   -385.70088    7927.3641   0.25526924 
    1330    270.41284    -3370.785     -3355.72   -334.02857     7927.707   0.25502806 
    1340    282.91657   -3371.5005   -3355.7389   -603.35284    7927.6693   0.25327495 
    1350    288.01338   -3371.7874   -3355.7419   -776.28842    7927.0035   0.25135508 
    1360     285.8783   -3371.6623   -3355.7357    -325.3164    7925.6092   0.25023055 
    1370    283.53221   -3371.5131   -3355.7172    20.541344    7923.8867   0.24958671 
    1380    275.75985   -3371.0399   -3355.6771    181.11638    7922.2055   0.24892906 
    1390    271.54389   -3370.7353   -3355.6073    239.19342    7920.7526   0.24773885 
    1400    283.19958   -3371.2834    -3355.506   -349.50579    7919.5018   0.24617625 
    1410    297.30225   -3371.9448   -3355.3818   -581.06864    7917.9328   0.24574864 
    1420    293.45711   -3371.5989   -3355.2501    383.64921    7915.9074   0.24751544 
    1430    284.30909   -3370.9557   -3355.1165    1842.1112     7914.385   0.25057645 
    1440    274.70794   -3370.2785   -3354.9742    2742.0065    7914.7572   0.25307782 
    1450    277.54459   -3370.2799   -3354.8176    3036.8197    7917.9384    0.2529969 
    1460    294.13816   -3371.0267     -3354.64    2194.9255    7924.1364   0.25026347 
    1470    297.49519   -3371.0205   -3354.4467    1018.0325    7932.5325   0.24736135 
    1480    293.05942   -3370.5751   -3354.2484   -334.17301    7941.8629   0.24589171 
    1490    290.76183   -3370.2402   -3354.0415   -1782.7849    7950.7235    0.2460242 
    1500    285.60267   -3369.7369   -3353.8257   -2498.5386    7957.6903   0.24733817 
    1510    289.39414   -3369.7267   -3353.6042   -2728.0242     7961.992   0.24839673 
    1520    295.92242   -3369.8609   -3353.3747   -2790.7487    7963.3785   0.24872426 
    1530    289.43446   -3369.2685   -3353.1438   -2411.2668    7961.8574   0.24945625 
    1540    295.30984   -3369.3644   -3352.9123   -2316.1193    7957.7815   0.25075178 
    1550    308.66715   -3369.8722    -3352.676   -1936.5264    7951.3497   0.25265871 
    1560    307.48726   -3369.5765    -3352.446   -558.12924    7943.0674   0.25514662 
    1570    309.07157   -3369.4437    -3352.225     921.1471    7934.3109   0.25726605 
    1580    316.43938   -3369.6401   -3352.0109    2039.0828    7926.6107   0.25880847 
    1590    325.31087   -3369.9379   -3351.8145    2540.2122    7921.0905   0.25974666 
    1600    326.95852   -3369.8656   -3351.6503    2324.4484    7918.2138   0.26012932 
    1610    315.37727   -3369.0929   -3351.5228    2272.7626     7917.828   0.25955427 
    1620     311.3798   -3368.7691   -3351.4218    1925.3356    7919.7871   0.25667135 
    1630    324.00551   -3369.3882   -3351.3375    843.79984    7923.6589   0.25179203 
    1640    320.69605    -3369.141   -3351.2746   -41.905168    7928.3998   0.24767531 
    1650    303.00351   -3368.1144   -3351.2338   -205.24012    7933.1283   0.24536921 
    1660     303.6015   -3368.1138   -3351.1999   -491.40102    7937.5929   0.24354587 
    1670    321.08608   -3369.0582   -3351.1701   -1229.9728    7941.4521   0.24208188 
    1680    328.00928   -3369.4359   -3351.1621   -1323.0427    7944.0489   0.24208871 
    1690    318.51207   -3368.9319   -3351.1873   -220.58098    7945.3587   0.24329104 
    1700    306.94946   -3368.3342   -3351.2337    777.80343     7946.425   0.24403216 
    1710     310.8788   -3368.6109   -3351.2915    296.35613    7948.1652   0.24310545 
    1720    318.17872   -3369.0885   -3351.3624    -817.9002    7950.1495   0.24150588 
    1730    317.41597   -3369.1377   -3351.4541   -1181.9376    7951.3419   0.24085421 
    1740    314.10114   -3369.0661   -3351.5672   -1314.4981    7951.2979   0.24158605 
    1750    308.48218   -3368.8832   -3351.6973   -1302.3115    7949.8768   0.24367077 
    1760    294.31631   -3368.2262   -3351.8295   -499.03399    7947.1908   0.24638955 
    1770    292.25786   -3368.2338   -3351.9518   -72.970627    7943.9473   0.24778428 
    1780       303.18   -3368.9597   -3352.0692   -96.084625    7940.6136   0.24691983 
    1790     311.1211   -3369.5271   -3352.1942   -288.83487    7937.1848   0.24480361 
    1800    302.29257    -3369.171   -3352.3299    316.16569    7933.5597   0.24315124 
    1810    290.53111   -3368.6464   -3352.4606    1038.4271    7930.3062   0.24205382 
    1820    303.18061   -3369.4766    -3352.586    773.94179    7928.0708   0.24104398 
    1830    315.58057   -3370.3031   -3352.7218    724.72631    7926.6902   0.24172422 
    1840    306.02225   -3369.9179    -3352.869     1487.808    7926.1607   0.24510445 
    1850    299.58487   -3369.7056   -3353.0154    1509.1034    7927.1149    0.2494093 
    1860    305.62574   -3370.1873   -3353.1605    855.81311    7929.5955   0.25285505 
    1870    306.62751   -3370.3923   -3353.3097    400.57213    7932.9858   0.25537202 
    1880    299.65667   -3370.1571   -3353.4629    229.44617    7936.8063   0.25693028 
    1890    291.16998   -3369.8317   -3353.6103   -58.359627    7940.8494   0.25693944 
    1900    292.48188   -3370.0416   -3353.7471   -630.54246    7944.7947   0.25532848 
    1910    295.49754   -3370.3405    -3353.878   -1201.8788    7948.0624   0.25367035 
    1920    289.30329   -3370.1187   -3354.0013   -1538.1707     7950.075    0.2534388 
    1930    286.19059   -3370.0574   -3354.1134   -1723.4622    7950.4866   0.25432585 
    1940    284.11333   -3370.0403    -3354.212   -1652.8058    7949.0981    0.2557605 
    1950    281.09072   -3369.9532   -3354.2933   -886.62395    7946.0552   0.25714804 
    1960    286.68625   -3370.3291   -3354.3574    -582.1517    7942.0412   0.25765755 
    1970    298.06709   -3371.0193   -3354.4136   -539.10971    7937.4221   0.25756676 
    1980    300.86479   -3371.2298   -3354.4683   -402.37291    7932.2776   0.25795117 
    1990    294.69233   -3370.9372   -3354.5195   -62.521982    7926.7607   0.25897432 
    2000    290.93904    -3370.768   -3354.5594    453.06485    7921.2156   0.25980776 
    2010    287.51845   -3370.5981   -3354.5802    1167.8206    7916.1856   0.25982001 
    2020    289.20408    -3370.695   -3354.5831    1347.5558    7912.3445   0.25856987 
    2030    292.34093   -3370.8633   -3354.5766    1203.9605    7909.9085   0.25638198 
    2040    294.15187   -3370.9557   -3354.5682    977.47243    7908.7332    0.2542843 
    2050    285.33818    -3370.452   -3354.5555    701.36808    7908.5829   0.25334033 
    2060    279.27746   -3370.0886   -3354.5298    218.22863    7909.1494   0.25305593 
    2070    289.31904   -3370.6032   -3354.4849   -334.88493     7909.945    0.2526597 
    2080    297.61398   -3371.0063   -3354.4259   -390.27228    7910.4377   0.25255139 
    2090    291.86989   -3370.6199   -3354.3595    346.63795    7910.6047   0.25265728 
    2100    291.47223   -3370.5236   -3354.2853    353.32572    7911.0638   0.25159853 
    2110    304.09667   -3371.1445   -3354.2029   -507.14684    7911.8146   0.24961672 
    2120    306.49865   -3371.1967   -3354.1213   -500.63799     7912.128   0.24925205 
    2130    293.92932   -3370.4218   -3354.0466     260.4961     7911.975   0.25143798 
    2140    288.50395   -3370.0434   -3353.9705    934.32149     7912.092   0.25483539 
    2150    287.20973   -3369.8841   -3353.8833    1240.0051    7913.1598   0.25840967 
    2160    287.36331   -3369.7927   -3353.7833    1360.6587    7915.5262   0.26123647 
    2170      294.341   -3370.0686   -3353.6705    934.94278    7919.2802   0.26252537 
    2180    301.86792   -3370.3659   -3353.5485    198.35527    7924.0064   0.26240085 
    2190    305.49833   -3370.4449   -3353.4252   -531.14504    7928.9642   0.26090604 
    2200    311.59296   -3370.6658   -3353.3067   -1331.9613    7933.3602    0.2582102 
    2210    307.72785   -3370.3432   -3353.1994   -1440.5367    7936.4313   0.25570567 
    2220    289.18004   -3369.2144   -3353.1039   -677.96922    7938.0851   0.25403593 
    2230     286.6304    -3368.973   -3353.0045   -845.27134    7938.9278   0.25231344 
    2240    296.61157   -3369.4129   -3352.8883   -1925.9402    7938.7962    0.2513144 
    2250    299.02556   -3369.4228   -3352.7638    -2212.355    7936.7168   0.25260424 
    2260    297.72325   -3369.2241   -3352.6376    -902.7467    7932.4559   0.25533335 
    2270    304.13831   -3369.4515   -3352.5076    655.60601    7927.2489    0.2571229 
    2280    307.77511   -3369.5248   -3352.3783    1535.1308    7922.6561   0.25708195 
    2290    307.32844   -3369.3795   -3352.2579    1809.4584    7919.6182   0.25545662 
    2300     311.9691   -3369.5284   -3352.1483    1106.8406    7918.3734   0.25259404 
    2310    323.30336   -3370.0652   -3352.0536    51.544072    7918.2498   0.24992795 
    2320    320.64739   -3369.8483   -3351.9847   -245.05461    7918.2599   0.24958403 
    2330     307.9302   -3369.0979   -3351.9428    363.28027    7918.1097   0.25145639 
    2340    311.51927   -3369.2704   -3351.9153    650.57423     7918.312    0.2539772 
    2350    322.79141   -3369.8827   -3351.8996    971.25386     7919.207   0.25753212 
    2360    315.15217   -3369.4624   -3351.9049    2055.2101     7921.209    0.2629005 
    2370    305.20728   -3368.9332   -3351.9297    2365.3749    7925.3166   0.26786296 
    2380    309.43166   -3369.2014   -3351.9627    1104.9169    7931.8049   0.27001394 
    2390    310.47161   -3369.2945   -3351.9978   -648.18749    7939.4605    0.2700464 
    2400    308.83049   -3369.2456   -3352.0403   -1660.0811    7946.5638   0.26971886 
    2410    309.06051   -3369.3148   -3352.0967   -1953.4048    7952.0037   0.27027847 
    2420    297.83947   -3368.7578   -3352.1648   -1094.8515    7955.5374   0.27190764 
    2430     292.5489    -3368.531   -3352.2328   -546.39181    7957.9162   0.27257425 
    2440    301.43519   -3369.0894   -3352.2961   -1248.3202    7959.6107   0.27104797 
    2450    299.75906   -3369.0594   -3352.3595   -2106.2183    7959.9868   0.26860719 
    2460     292.5138   -3368.7185   -3352.4222   -2627.7606    7958.1632   0.26655953 
    2470    305.85241   -3369.5269   -3352.4875   -2669.8965    7953.5719   0.26550946 
    2480    315.79818   -3370.1584   -3352.5649   -1426.7787    7946.2364    0.2667521 
    2490    302.83661   -3369.5192   -3352.6479    771.66911    7937.4297   0.26958946 
    2500    300.66914    -3369.471   -3352.7203    2129.2763    7929.2987   0.27010777 
    2510    323.83367   -3370.8441    -3352.803     2023.089    7923.2189    0.2668564 
    2520    318.55022   -3370.6616   -3352.9148    2006.6465    7919.2517   0.26296253 
    2530    295.14867   -3369.4825   -3353.0394    2019.5545    7917.3821    0.2593458 
    2540    296.00397   -3369.6503   -3353.1596    973.82121    7917.5253   0.25436511 
    2550    304.90514   -3370.2657   -3353.2791   -229.39168    7918.6872   0.24890339 
    2560    300.42905   -3370.1406   -3353.4034   -575.79073    7919.7034   0.24502972 
    2570    294.22023   -3369.9198   -3353.5284   -128.18044    7920.2014   0.24296606 
    2580    292.28276   -3369.9324    -3353.649    373.43102    7920.5773   0.24159144 
    2590    292.33438   -3370.0485   -3353.7622    98.217847     7921.283   0.23949307 
    2600    294.18888   -3370.2539   -3353.8643   -998.39972    7922.0295   0.23617665 
    2610    302.16722   -3370.7947   -3353.9606   -2055.5654    7921.7345   0.23266159 
    2620    302.90558   -3370.9385   -3354.0633   -2151.8595    7919.3599   0.23090457 
    2630    288.98483   -3370.2629   -3354.1632   -1080.1695    7914.8131    0.2315612 
    2640    287.45075    -3370.259   -3354.2448    44.266864    7909.1131   0.23271355 
    2650    300.88682   -3371.0766   -3354.3138    477.41794    7903.3518   0.23329006 
    2660    303.45547   -3371.2859     -3354.38    936.36618    7898.0427   0.23423108 
    2670    292.45619   -3370.7353   -3354.4422    1836.5892    7893.7252   0.23550329 
    2680     287.2999   -3370.5034   -3354.4976    2381.3798    7891.2659   0.23603739 
    2690    288.92132   -3370.6423   -3354.5461     2187.742    7891.2313    0.2356487 
    2700    292.08934   -3370.8603   -3354.5877    1386.3531    7893.4387   0.23457902 
    2710    295.89417   -3371.1067   -3354.6221    602.24275    7897.1226   0.23329605 
    2720    298.95208   -3371.3069   -3354.6519    113.92506    7901.5004    0.2329296 
    2730    291.88804   -3370.9366   -3354.6752    196.59502    7906.1083   0.23432786 
    2740    286.02875   -3370.6221   -3354.6872    578.45313    7911.0016   0.23653547 
    2750    286.61459   -3370.6537   -3354.6861    694.00311    7916.5217   0.23813218 
    2760    286.99033   -3370.6608   -3354.6722   -57.167892    7922.7589   0.23811292 
    2770     290.2408   -3370.8131   -3354.6434   -1862.7693     7928.911   0.23607386 
    2780    292.46622    -3370.895   -3354.6014   -3418.3334    7933.1859   0.23323968 
    2790    290.84395   -3370.7584   -3354.5552   -3634.3744    7934.0187   0.23134924 
    2800    291.79897   -3370.7647   -3354.5082   -2980.4992    7931.0772   0.23097084 
    2810    290.32249   -3370.6285   -3354.4543   -1577.3717    7925.0285   0.23183212 
    2820    289.83318   -3370.5333   -3354.3864    73.532938     7917.276   0.23315145 
    2830    288.32217   -3370.3626   -3354.2999    1195.6897    7909.4625   0.23439703 
    2840    291.61093   -3370.4446   -3354.1986    1482.5007    7902.7544   0.23520506 
    2850    294.67749   -3370.5032   -3354.0864    1268.0235    7897.4962   0.23574073 
    2860    292.20403   -3370.2466   -3353.9676    1037.3765    7893.5048   0.23638211 
    2870    291.01321   -3370.0558   -3353.8432    1239.5228    7890.5989    0.2373233 
    2880    299.01091   -3370.3721   -3353.7139    1556.9166    7888.9694    0.2387374 
    2890    299.05811   -3370.2468   -3353.5859    2162.8836    7888.9974   0.24079388 
    2900    292.17644   -3369.7402   -3353.4628    2513.5327     7891.287   0.24189491 
    2910    313.60882   -3370.8075    -3353.336    1135.7874    7896.0889   0.24025526 
    2920    332.92245   -3371.7565    -3353.209   -804.36719    7902.1202   0.23837179 
    2930    319.06767   -3370.8875   -3353.1119   -1503.9339    7907.5178   0.23884829 
    2940    296.36865   -3369.5542   -3353.0432   -1259.6766    7911.4831    0.2405973 
    2950    293.65273   -3369.3363   -3352.9766   -909.44236    7914.1986   0.24187805 
    2960    307.59925   -3370.0369   -3352.9002   -1102.8664    7915.9282   0.24302382 
    2970    313.13403   -3370.2676   -3352.8226   -652.20397    7916.6036   0.24532297 
    2980    319.89224   -3370.5808   -3352.7592   -103.70216    7916.5964   0.24839828 
    2990    317.62158   -3370.4126   -3352.7175    1012.3792    7916.5443   0.25189209 
    3000    294.92145   -3369.1244    -3352.694    2429.7388    7917.6056   0.25487149 
    3010    286.36317   -3368.6297   -3352.6761    2773.3607    7921.1652   0.25522892 
    3020    301.00826   -3369.4229   -3352.6534    1599.4873    7927.5718   0.25312344 
    3030     311.6099   -3369.9878   -3352.6277    371.38825     7935.769    0.2512478 
    3040    311.85454   -3369.9857   -3352.6119    16.138783    7944.5678   0.25114747 
    3050    309.39153   -3369.8451   -3352.6086   -226.17328    7953.5141   0.25207893 
    3060    310.14714   -3369.8913   -3352.6127   -992.11033    7962.3082   0.25261754 
    3070    310.25827   -3369.9049   -3352.6201   -2384.2119    7970.1041   0.25214787 
    3080    307.69925   -3369.7762   -3352.6339   -3891.6101    7975.4315   0.25120537 
    3090    305.69838   -3369.6949   -3352.6641    -4291.925    7976.7813   0.25045084 
    3100    303.66783   -3369.6308   -3352.7131   -3715.3743    7973.6443   0.25020036 
    3110    302.89189   -3369.6475    -3352.773   -2591.8763    7966.5446   0.25078977 
    3120    298.99113   -3369.4911    -3352.834   -1232.0235    7956.6083   0.25250926 
    3130    291.29197   -3369.1128   -3352.8845   -3.8450033    7945.2179   0.25516576 
    3140    294.30079   -3369.3191   -3352.9233     945.8999    7933.6789   0.25771195 
    3150    300.62179   -3369.7033   -3352.9553    1403.0086     7922.962   0.25929262 
    3160    308.41101   -3370.1682   -3352.9863    1803.5737    7913.6096   0.25979237 
    3170    317.76446   -3370.7263   -3353.0232    1960.8513    7906.0205   0.25948216 
    3180    321.17183   -3370.9703   -3353.0774    1928.0919    7900.3947   0.25911171 
    3190    318.86907   -3370.9227   -3353.1581    2111.7011     7896.755   0.25900408 
    3200    309.33165   -3370.4981   -3353.2649    2884.6665     7895.336   0.25888819 
    3210    291.19929   -3369.6065   -3353.3835    3639.5916     7896.926   0.25776252 
    3220    283.90009   -3369.3148   -3353.4984    3054.7417    7902.2454   0.25396429 
    3230     293.4072   -3369.9451   -3353.5991    874.93549    7910.7151   0.24744422 
    3240    303.69937   -3370.6025    -3353.683   -1725.6537    7920.1929   0.24028157 
    3250    302.17094   -3370.5942     -3353.76   -3542.7385    7928.0537    0.2350403 
    3260    295.88342   -3370.3244   -3353.8404   -4031.7785    7932.3868   0.23269243 
    3270    291.75429   -3370.1794   -3353.9255   -3575.4026    7932.5797   0.23245903 
    3280    292.60923   -3370.3123   -3354.0107   -2867.6687    7929.0048   0.23297657 
    3290     299.0918   -3370.7578    -3354.095   -2165.0298    7922.3416   0.23355875 
    3300    304.91042   -3371.1684   -3354.1815   -1030.3717    7913.3409   0.23459089 
    3310    295.36684   -3370.7175   -3354.2623     840.4789    7903.2218   0.23649491 
    3320    282.58321   -3370.0636   -3354.3206    2545.5963    7893.8564   0.23784265 
    3330    293.74064   -3370.7261   -3354.3615    3012.4873    7886.9218   0.23680901 
    3340    298.10236   -3371.0063   -3354.3987    2867.0704    7882.9996    0.2343362 
    3350     290.4194   -3370.6157   -3354.4361    2293.6747    7882.0059   0.23129409 
    3360    291.83215   -3370.7259   -3354.4676    769.30156    7883.3186   0.22763086 
    3370    299.08843   -3371.1542   -3354.4917   -467.70662    7885.4845   0.22436632 
    3380    297.01443   -3371.0601   -3354.5131   -460.31467    7887.3351   0.22272959 
    3390    292.26324   -3370.8127   -3354.5304   -225.11535    7888.7444   0.22240486 
    3400    288.39591   -3370.6043   -3354.5374   -89.044726    7889.9227   0.22238026 
    3410    282.18851   -3370.2537   -3354.5327   -10.928316    7891.0368    0.2216697 
    3420     281.7532   -3370.2115   -3354.5147   -480.17033    7892.1123   0.21922966 
    3430    293.20441   -3370.8188   -3354.4841   -1310.2305    7892.6729   0.21549705 
    3440    299.72798   -3371.1443   -3354.4461   -1882.0542    7891.8831   0.21304814 
    3450    293.79805   -3370.7713   -3354.4034   -1169.7225    7889.2372   0.21382454 
    3460    292.97155   -3370.6739   -3354.3521    351.41833    7885.4046   0.21735518 
    3470    292.35009   -3370.5756   -3354.2884    2075.3931    7881.8916   0.22223396 
    3480    290.42729   -3370.3929   -3354.2128    3646.2822    7880.4949   0.22642629 
    3490    306.20959   -3371.1946   -3354.1353    3681.0763    7882.7494   0.22839974 
    3500    312.93659   -3371.4996   -3354.0655    3090.8503    7888.8556   0.22969696 
    3510    292.50275   -3370.3039   -3354.0082    2850.1732    7898.3547   0.23134752 
    3520    282.68467   -3369.6991   -3353.9505    1756.8726    7910.9179   0.23174151 
    3530    290.91437   -3370.0712    -3353.864    -442.1126     7925.428   0.23091959 
    3540     291.4712   -3369.9779   -3353.7397   -2244.7045     7939.732    0.2310421 
    3550    290.42655   -3369.7735   -3353.5935   -3390.4443    7951.9072   0.23241759 
    3560    303.73136   -3370.3588   -3353.4376   -4233.8179     7960.663   0.23400062 
    3570    309.57096   -3370.5377   -3353.2911   -4343.1937    7965.0765   0.23605883 
    3580    301.74099   -3369.9836   -3353.1733   -3490.9397    7965.0016   0.23844732 
    3590     294.1035   -3369.4609   -3353.0761   -2612.7016    7961.2062    0.2400479 
    3600    296.49429      -3369.5    -3352.982   -2011.6453    7954.5646   0.24070213 
    3610    301.50032   -3369.6798   -3352.8829   -1332.5454    7945.7233   0.24179901 
    3620    312.68095   -3370.2019   -3352.7821   -375.31815    7935.4061   0.24466877 
    3630    306.31341   -3369.7454   -3352.6804    1291.5197    7924.6605    0.2497351 
    3640    292.02888   -3368.8425   -3352.5733    2854.1338    7915.1698   0.25466432 
    3650    302.08453   -3369.2903   -3352.4609    2484.5046    7908.4173   0.25674731 
    3660    313.41527   -3369.8148   -3352.3541    1540.1775    7904.1671   0.25718937 
    3670     309.6326    -3369.514    -3352.264    1539.2649    7901.5783   0.25762323 
    3680    312.38865   -3369.5949   -3352.1914    1853.3501    7900.6091    0.2570995 
    3690    317.13536   -3369.8049   -3352.1369    1771.7116    7901.5191   0.25534123 
    3700    314.71531   -3369.6385   -3352.1054    1903.1643    7904.3357    0.2532899 
    3710    310.71807   -3369.4041   -3352.0936    1806.1169    7909.1833   0.25146835 
    3720    315.77738   -3369.6887   -3352.0964    900.54162    7915.9212   0.24970744 
    3730    319.96574   -3369.9403   -3352.1147   -79.502185    7923.6778   0.24828634 
    3740    312.07676    -3369.537   -3352.1508   -128.28408    7931.5505   0.24754302 
    3750    307.59169   -3369.3369   -3352.2007    73.477097    7939.4024   0.24643463 
    3760    313.26336   -3369.7146   -3352.2624    9.5143521    7947.4077   0.24404488 
    3770    315.21189   -3369.9045   -3352.3437   -693.62952    7955.4544   0.24071078 
    3780    301.57711   -3369.2429   -3352.4417   -1495.9947    7962.8482   0.23733282 
    3790    294.51602   -3368.9502   -3352.5424   -2301.8177    7968.7252   0.23403142 
    3800    301.69785   -3369.4495   -3352.6416   -2853.5472    7972.2204   0.23150925 
    3810    299.91284   -3369.4536   -3352.7451   -2386.0599    7972.8001   0.23132581 
    3820    287.40732   -3368.8582   -3352.8464   -1202.2703    7970.9093   0.23294278 
    3830    286.24283   -3368.8811   -3352.9342   -609.36414    7967.6583   0.23366313 
    3840    299.82705   -3369.7156   -3353.0119    -794.3609    7963.6593   0.23236738 
    3850    303.49595    -3369.997   -3353.0889   -896.14701    7958.7954   0.23065643 
    3860    296.21442   -3369.6723   -3353.1698   -780.96988    7952.9591   0.22969706 
    3870    299.10925   -3369.9139   -3353.2501   -738.28032    7946.2328    0.2293561 
    3880    305.32597   -3370.3395   -3353.3294   -368.73048    7938.7049   0.23003226 
    3890    303.44624   -3370.3144   -3353.4091    578.97708    7930.7909   0.23189205 
    3900    303.72329   -3370.4128    -3353.492    1516.9852    7923.4275   0.23361014 
    3910    301.17361   -3370.3609   -3353.5822    2185.1591    7917.5821   0.23431355 
    3920    296.75163   -3370.2107   -3353.6783    2142.0205    7913.9311   0.23398763 
    3930    301.16329   -3370.5589   -3353.7808    1245.2066    7912.4233    0.2333181 
    3940    302.18928   -3370.7245   -3353.8892    854.03168    7912.2688   0.23372022 
    3950    298.06883   -3370.6071   -3354.0013    1046.5542    7913.0719   0.23533312 
    3960    294.70264   -3370.5292    -3354.111    914.93336    7914.9655   0.23706115 
    3970    295.95061   -3370.7042   -3354.2164    422.88324    7917.8095   0.23844464 
    3980    293.24078   -3370.6552   -3354.3184     273.7556    7921.1617   0.23984399 
    3990    286.65964   -3370.3831    -3354.413    596.23402    7924.9053    0.2409656 
    4000    285.17761   -3370.3812   -3354.4937    800.71214    7929.3094   0.24099885 
    4010    282.10647   -3370.2717   -3354.5553    569.03282    7934.5748   0.23996277 
    4020    278.04826   -3370.0817   -3354.5913   -107.72982    7940.4911   0.23801288 
    4030    286.40162    -3370.557   -3354.6013   -1712.7985    7946.2715   0.23536133 
    4040     298.4403   -3371.2233   -3354.5969   -3365.7623     7950.288    0.2335974 
    4050    293.56996   -3370.9505   -3354.5954   -3519.9709    7950.9091    0.2345208 
    4060    285.71183   -3370.5119   -3354.5946   -2541.8772    7947.8851    0.2372831 
    4070    292.98051    -3370.902   -3354.5797   -1483.9222    7942.1454   0.23986113 
    4080    303.29342   -3371.4472   -3354.5504   -951.55497    7934.7199   0.24194782 
    4090    304.42634   -3371.4752   -3354.5152    -508.4422     7926.204   0.24464906 
    4100    299.61709   -3371.1677   -3354.4757    280.56429    7917.1037   0.24872747 
    4110    290.59911   -3370.6111   -3354.4215      1198.66    7908.2206   0.25366513 
    4120     294.7716   -3370.7676   -3354.3455    1509.2459    7900.4526   0.25795578 
    4130     309.0954   -3371.4666   -3354.2466     1614.489    7894.1537   0.26165868 
    4140    300.85273   -3370.8881   -3354.1273    3067.4837    7889.6219   0.26572293 
    4150    282.38955   -3369.7238   -3353.9915    4446.9497    7888.2505    0.2677601 
    4160    287.13491   -3369.8265   -3353.8299    3724.5353     7891.328   0.26488109 
    4170    306.01245   -3370.6718   -3353.6235    1425.6993    7898.2117   0.25859591 
    4180    305.88232   -3370.4239   -3353.3829   -419.33065    7906.7395   0.25289074 
    4190    302.62689   -3369.9975   -3353.1378    -1449.854    7915.0268   0.24918882 
    4200    316.23465   -3370.5173   -3352.8995   -1783.0073    7921.9595   0.24725518 
    4210     319.9635   -3370.5143   -3352.6888   -1418.9536    7927.1735   0.24764707 
    4220     311.7813   -3369.8914   -3352.5217   -1224.2098    7930.9511   0.24956158 
    4230    317.54805   -3370.0813   -3352.3903   -1529.2182     7933.433   0.25111618 
    4240    322.55938   -3370.2595   -3352.2894    -1732.454     7934.342   0.25228798 
    4250     316.0778   -3369.8327   -3352.2237   -1419.5332    7933.4854   0.25391338 
    4260    307.77697   -3369.3311   -3352.1845   -628.73407    7931.1548   0.25588185 
    4270    308.30721   -3369.3333   -3352.1572    436.98515    7928.1645    0.2572328 
    4280    319.22609   -3369.9228   -3352.1383    991.25228    7925.5453   0.25745814 
    4290    324.64233   -3370.2241   -3352.1379     1366.963    7923.9416   0.25718084 
    4300    319.73585   -3369.9791   -3352.1663    1280.9898    7923.7218   0.25688922 
    4310    313.34437   -3369.6751   -3352.2183    681.00717    7924.8038   0.25658596 
    4320     308.7953   -3369.4884    -3352.285    229.27351    7926.6389   0.25647563 
    4330    305.47454    -3369.381   -3352.3626    390.65744    7928.8025   0.25671588 
    4340    304.02825   -3369.3882   -3352.4504    717.11589      7931.44   0.25630307 
    4350     306.1328   -3369.6005   -3352.5455    457.85788    7934.8375    0.2537064 
    4360    309.44337   -3369.8862   -3352.6467   -623.59818    7938.6951    0.2488606 
    4370    302.96735   -3369.6285   -3352.7498   -2027.5878    7941.9248   0.24353907 
    4380    299.18212   -3369.5239   -3352.8562   -3286.5816    7943.0455   0.23959694 
    4390    288.68882   -3369.0488   -3352.9656   -3159.5592    7940.8261     0.238314 
    4400    282.52174   -3368.8044   -3353.0648   -2361.3218    7935.2819   0.23882871 
    4410     300.4994   -3369.8939   -3353.1527   -1825.0668    7927.1161   0.24002474 
    4420    318.52404    -3370.991   -3353.2457   -645.70361    7916.9539   0.24286913 
    4430    308.06737   -3370.5042   -3353.3414    1537.5355    7906.0741   0.24771076 
    4440    295.55376   -3369.8925   -3353.4268    3062.5606    7896.6022   0.25205492 
    4450    299.81345   -3370.2135   -3353.5105    3349.3629    7890.0989   0.25376739 
    4460    302.67687   -3370.4632   -3353.6007    2752.9388    7886.9412   0.25268957 
    4470    310.65889   -3371.0088   -3353.7016    1770.7426    7886.5907   0.24932332 
    4480    306.69333   -3370.9005   -3353.8143    1367.3543    7888.1425   0.24549387 
    4490    286.63824   -3369.8939    -3353.925      1866.94    7891.2544   0.24209181 
    4500    288.21796   -3370.0811   -3354.0241    1562.6791    7896.2974   0.23822687 
    4510    299.43985   -3370.7966   -3354.1144    410.42212    7902.9833   0.23503081 
    4520    293.56595   -3370.5518   -3354.1969   -204.91902    7910.2841   0.23397438 
    4530    287.19573   -3370.2663   -3354.2663   -468.36101    7917.5341    0.2335771 
    4540    292.67863   -3370.6245    -3354.319   -1307.5328     7924.355   0.23211103 
    4550    293.93094    -3370.735   -3354.3598   -2177.1407    7929.9157   0.23045952 
    4560    287.91718   -3370.4321   -3354.3919   -2720.3168    7933.3027   0.23006856 
    4570    289.95925   -3370.5706   -3354.4166   -3155.2736    7933.8405   0.23138515 
    4580    286.53201   -3370.3956   -3354.4325   -2468.2633    7931.1369   0.23478324 
    4590    280.29448   -3370.0478   -3354.4323   -625.60947    7925.8927   0.23899141 
    4600    282.78144   -3370.1614   -3354.4073    1034.0324    7919.8941   0.24177805 
    4610    292.94093   -3370.6829   -3354.3628    1656.7042    7914.8039    0.2424372 
    4620    292.88483   -3370.6263   -3354.3093    1570.5713    7911.3224   0.24185645 
    4630     287.8563   -3370.2868     -3354.25    1179.5124    7909.4249   0.24049217 
    4640    294.21576   -3370.5714   -3354.1803    -46.18792    7908.6634   0.23882546 
    4650    299.30186   -3370.7733   -3354.0988   -1255.9342    7907.8518   0.23870673 
    4660    304.03375   -3370.9503   -3354.0122   -1534.7035    7905.7836   0.24118127 
    4670    303.90685   -3370.8532   -3353.9222   -278.21699    7902.2052   0.24577564 
    4680    308.48958   -3371.0133    -3353.827    1482.3118    7898.3115   0.25046347 
    4690    312.38546   -3371.1309   -3353.7276    2686.2614    7895.8506   0.25378221 
    4700    303.87974   -3370.5591   -3353.6296    3590.8273    7896.1654   0.25516562 
    4710     298.0926    -3370.136   -3353.5289    3531.0093    7900.1871   0.25349274 
    4720    298.21806    -3370.017   -3353.4029    2054.7732    7907.8801   0.24869324 
    4730    301.43299   -3370.0164   -3353.2232    319.42387    7917.8894   0.24236581 
    4740    317.68797    -3370.669   -3352.9703   -1430.3468    7928.4159   0.23659657 
    4750    321.88829    -3370.584   -3352.6513   -2098.1169    7937.7391   0.23391875 
    4760    306.77196   -3369.4054   -3352.3148   -1897.8592    7945.0821   0.23458295 
    4770    311.68482   -3369.3507   -3351.9864   -1871.7098    7950.5191   0.23644005 
    4780    330.43387    -3370.087   -3351.6782   -2301.0606    7953.9958    0.2392702 
    4790    326.88572   -3369.6453   -3351.4341   -2167.8044    7955.1517   0.24385826 
    4800    315.38581     -3368.84   -3351.2696   -1839.2908    7954.0379   0.24872518 
    4810    309.66796   -3368.4069    -3351.155   -1645.7877    7950.9249   0.25247773 
    4820    313.99763   -3368.5597   -3351.0665    -1420.341    7946.0158   0.25540753 
    4830    322.72505   -3368.9808   -3351.0014   -936.72401     7939.546   0.25865084 
    4840    322.12389   -3368.9116   -3350.9658    190.85117      7932.05   0.26253248 
    4850    315.16521   -3368.5131   -3350.9549     1695.037    7924.6819   0.26556148 
    4860    315.21901   -3368.5224   -3350.9612    2636.9344    7918.9495   0.26567211 
    4870    319.43949   -3368.7858   -3350.9895    2262.4249    7915.8054   0.26229426 
    4880    320.40404   -3368.8946   -3351.0446     941.4574    7914.9183   0.25665598 
    4890    321.03145   -3369.0095   -3351.1245   -610.32405    7914.9854   0.25070959 
    4900    319.69075   -3369.0364   -3351.2261   -1185.4879     7914.518   0.24634913 
    4910    321.02362   -3369.2316    -3351.347   -942.36634    7912.8586   0.24437628 
    4920    322.00617   -3369.4276   -3351.4882     202.6523    7910.2756   0.24453935 
    4930    309.13372   -3368.8641   -3351.6419    1696.4057    7907.9051   0.24546978 
    4940    293.76575    -3368.157    -3351.791    2027.9111    7907.1842    0.2444913 
    4950    295.78035   -3368.4039   -3351.9256    452.12984    7908.4164   0.24036683 
    4960     306.5356   -3369.1273   -3352.0499   -1584.8833    7910.1035   0.23550646 
    4970    306.94635   -3369.2726   -3352.1723   -2396.7767    7910.2594   0.23327414 
    4980    299.90913   -3369.0014   -3352.2931   -1967.6056     7907.997   0.23441509 
    4990    293.58076   -3368.7582   -3352.4025   -1091.2557    7903.6628   0.23732651 
    5000    293.74927   -3368.8618   -3352.4967    -760.3917    7898.0599   0.23957593 
Loop time of 3785.28 on 8 procs for 5000 steps with 432 atoms

Performance: 0.114 ns/day, 210.293 hours/ns, 1.321 timesteps/s
94.7% CPU use with 8 MPI tasks x 1 OpenMP threads

MPI task timing breakdown:
Section |  min time  |  avg time  |  max time  |%varavg| %total
---------------------------------------------------------------
Pair    | 2593       | 3099.8     | 3778.4     | 669.6 | 81.89
Bond    | 0.00068951 | 0.0013485  | 0.002032   |   1.1 |  0.00
Neigh   | 0.073756   | 0.087209   | 0.12061    |   4.9 |  0.00
Comm    | 6.102      | 603.26     | 1032.5     |1211.3 | 15.94
Output  | 0.29208    | 0.30583    | 0.40115    |   6.5 |  0.01
Modify  | 0.34456    | 81.784     | 323.65     |1544.1 |  2.16
Other   |            | 0.02806    |            |       |  0.00

Nlocal:        54.0000 ave          74 max          42 min
Histogram: 1 1 1 3 0 1 0 0 0 1
Nghost:        650.000 ave         662 max         630 min
Histogram: 1 0 0 0 1 0 3 1 1 1
Neighs:         0.00000 ave           0 max           0 min
Histogram: 8 0 0 0 0 0 0 0 0 0
FullNghs:      3101.25 ave        4486 max        2310 min
Histogram: 1 1 1 3 0 1 0 0 0 1

Total # of neighbors = 24810
Ave neighs/atom = 57.430556
Ave special neighs/atom = 0.0000000
Neighbor list builds = 500
Dangerous builds = 500
System init for write_data ...
Total wall time: 1:03:11
