LAMMPS data file via write_data, version 29 Sep 2021, timestep = 5000

432 atoms
3 atom types

0.057581895008455675 15.91485089243315 xlo xhi
0.10691832160070636 15.86551446584079 ylo yhi
0.1692519105433714 31.775613664339538 zlo zhi

Masses

1 35.45
2 39.0983
3 6.94

Atoms # full

6 0 1 0 3.02774026388076 2.9310004923813544 2.9058259173174 0 0 0
2 0 2 0 0.18737848888901415 2.6490649551732566 2.5177508639473687 0 0 0
4 0 3 0 3.097544297183887 2.91203719716271 0.3671896711456915 0 0 0
3 0 3 0 2.8377171600488627 0.21275352043400791 3.49310594830228 0 0 0
5 0 1 0 2.5625435632103657 0.10715687919433137 0.5708945625012658 0 0 0
151 0 1 0 5.248803340694411 0.36646485029825604 3.227471316699641 0 0 0
146 0 3 0 5.3925996615990535 2.8574858802247967 2.9330784070861378 0 0 0
152 0 1 0 5.354763664715006 2.6011154840597723 0.49171957511817077 0 0 0
150 0 1 0 7.873632119585925 2.9554987929128442 2.812683797523955 0 0 0
147 0 3 0 7.838142893380874 0.44548067613426023 3.2403954785264624 0 0 0
148 0 3 0 7.769389049675364 3.0167409799304776 0.29160457482714575 0 0 0
290 0 3 0 10.198565502919333 2.894092610585251 2.8918495287641433 0 0 0
295 0 1 0 10.099537938942143 0.6559847238461061 3.2837577719342796 0 0 0
289 0 3 0 10.114962674815533 0.49017450820835706 0.5935797790475363 0 0 0
293 0 1 0 12.453991164392372 0.24013227510582855 0.31418408704042866 0 0 0
296 0 1 0 10.22628151415049 2.949160290457295 0.2584861992549577 0 0 0
294 0 1 0 13.165580157536592 2.762913167431976 2.530986485648973 0 0 0
51 0 3 0 2.7221126132565865 5.385092153044254 2.8807101703184554 0 0 0
53 0 1 0 2.8878446760565524 5.525595822083696 0.4471065012833316 0 0 0
55 0 1 0 0.2413798944885041 5.43533951353897 2.7147136696581136 0 0 0
54 0 1 0 2.6324929853372505 7.870870748745047 2.83722060022154 0 0 0
199 0 1 0 5.227630701562981 5.187079450964944 2.910150281002784 0 0 0
193 0 3 0 5.232996557704809 5.448779078238681 0.5214839930216447 0 0 0
200 0 1 0 5.0347856795703105 7.97317981761071 0.2408008091659986 0 0 0
197 0 1 0 7.655655166491162 5.511622748031781 0.47752134626776055 0 0 0
195 0 3 0 7.825182675429774 5.265644512602041 2.8816351429331175 0 0 0
337 0 3 0 10.328136748144784 5.362753622138621 0.2871127490242438 0 0 0
344 0 1 0 10.635367400761673 7.601880679806595 0.3325458295599649 0 0 0
343 0 1 0 10.36561446453781 5.190689938365449 2.723209315069813 0 0 0
339 0 2 0 12.93668158387752 5.644530732952597 2.4751254028288505 0 0 0
342 0 1 0 13.667883699466882 7.951027419939893 3.3027609260291957 0 0 0
14 0 1 0 2.156247577347168 3.064056056854597 8.031572222316285 0 0 0
13 0 1 0 2.6791521010516726 0.3228161109752452 6.016681227139691 0 0 0
12 0 3 0 2.831990334033963 3.0024359793923274 5.42932968354567 0 0 0
16 0 1 0 0.27414281709353083 2.560513419412636 5.651787146194376 0 0 0
153 0 3 0 5.194329974235941 0.5226983785884372 5.879217493739467 0 0 0
160 0 1 0 5.413283103590549 2.919146474993437 5.371757146289363 0 0 0
157 0 1 0 7.820957567099015 0.5328859963790393 5.7391276235807975 0 0 0
156 0 3 0 8.115491256238743 2.882477827674708 5.63568448689325 0 0 0
304 0 1 0 10.562785719412298 2.6479788914196107 5.738580063224745 0 0 0
297 0 3 0 10.3567638615486 0.3146834006227681 5.602415249196114 0 0 0
301 0 1 0 12.917596830943237 0.18201087770698898 6.165857705382638 0 0 0
300 0 2 0 13.328640080146476 2.8219962414457775 5.391623100562726 0 0 0
57 0 2 0 0.205765797715403 5.370161461553242 5.416323656439009 0 0 0
61 0 1 0 2.9537666534333766 5.311887491197433 5.663212952046657 0 0 0
60 0 3 0 2.7297711460796603 7.849667356550371 5.337542316646341 0 0 0
207 0 1 0 5.317592780164622 5.972780024451909 7.945029819303238 0 0 0
201 0 3 0 5.412467237195028 5.322017183848747 5.388108149384404 0 0 0
208 0 1 0 5.174092563171935 7.971089553500758 5.19247661131286 0 0 0
205 0 1 0 8.247409189087747 5.075138436038138 5.440284245312194 0 0 0
204 0 2 0 7.880339511594269 7.694718998486394 5.692761712371146 0 0 0
345 0 3 0 10.76440151066063 5.021007786933273 5.7165350195091325 0 0 0
349 0 1 0 12.981543372546906 5.584043051612659 5.601648591174094 0 0 0
20 0 3 0 2.203723324725184 2.681187713964303 11.031511251068268 0 0 0
21 0 1 0 2.401385638126548 0.21096833666932602 10.951590210766764 0 0 0
11 0 3 0 2.3551232849401775 0.21751860838470305 8.36829619895095 0 0 0
168 0 1 0 5.068844665670581 2.515862324030451 11.288370887480259 0 0 0
159 0 1 0 5.382594025176029 0.31062771206910544 8.72831104135697 0 0 0
154 0 2 0 5.009765641115063 2.9783035863090674 8.331541151456408 0 0 0
164 0 3 0 8.188432572045 2.68708168971535 11.08917424585289 0 0 0
158 0 1 0 8.1444520101491 2.908458381685794 8.29821572431525 0 0 0
155 0 3 0 7.773971263323442 0.32523561223806263 8.260736828444 0 0 0
165 0 1 0 7.8546716470334905 0.13385381209073385 10.969117293428504 0 0 0
303 0 1 0 10.29767051691216 0.2585271367809914 8.338326639988159 0 0 0
298 0 3 0 10.64364891065152 2.772299028533474 8.481221776942387 0 0 0
312 0 1 0 10.69800993691106 2.8369114332674927 10.885704665624402 0 0 0
305 0 3 0 10.52558290464253 0.32285639386115517 10.71883506432775 0 0 0
10 0 3 0 15.842601303952815 2.7236980532808897 8.249040358169504 -1 0 0
24 0 1 0 15.651986321768518 2.7219276771739063 10.701808007420212 -1 0 0
308 0 3 0 13.078939925778004 3.058686269832966 11.03710900994037 0 0 0
302 0 1 0 13.076661309127505 2.980420885332882 8.532825073153235 0 0 0
309 0 1 0 13.055451061000413 0.2765813047652885 10.812802848568841 0 0 0
299 0 3 0 13.292104822015387 0.5185413471926852 8.387481967107215 0 0 0
17 0 3 0 15.788563915477214 0.31042392952723535 10.600156032993162 -1 0 0
15 0 1 0 15.855396066329636 0.1208325731819535 8.266272556287982 -1 0 0
69 0 1 0 2.6525839644430063 5.227063089976329 10.728740320359995 0 0 0
72 0 1 0 0.25112168717886174 7.899894621824135 10.622399038404705 0 0 0
59 0 3 0 2.4138486320785537 5.477717815952459 8.135968814597383 0 0 0
209 0 2 0 5.598909234806239 5.611903096080794 10.727294053665725 0 0 0
206 0 1 0 8.419755097791509 7.773349923707679 8.385599269862185 0 0 0
203 0 3 0 8.36528008182751 5.283021734959153 8.593699393215584 0 0 0
213 0 1 0 8.38109798776987 5.143166601076058 11.019965097533348 0 0 0
353 0 3 0 10.677047666928798 5.3532685141205025 10.889784201742907 0 0 0
351 0 1 0 10.66532903752303 5.420009375817912 8.194901735284628 0 0 0
346 0 3 0 10.997794707921676 7.8980990027664975 8.307981227385127 0 0 0
356 0 3 0 13.448095330329616 7.873670535994119 10.796250938510136 0 0 0
63 0 1 0 15.817819905525417 5.588309703692404 8.25210037866666 -1 0 0
65 0 3 0 15.896699090904857 5.3676458389133535 10.624555371910468 -1 0 0
347 0 3 0 13.333824950727506 5.31855718992696 8.262801646523139 0 0 0
357 0 1 0 13.218898157265453 5.324537033504474 10.728168264489057 0 0 0
350 0 1 0 13.350262467064445 7.638907793801126 8.258877195414653 0 0 0
19 0 3 0 2.2841434542749526 0.32614735261358885 13.464348343353738 0 0 0
29 0 1 0 2.351441817747645 0.21557519967176783 15.823388102643936 0 0 0
22 0 1 0 2.297012933517035 2.792489768056774 13.358433278475365 0 0 0
28 0 3 0 2.5678469939389132 2.7676364190891327 15.665200784244991 0 0 0
162 0 3 0 5.511714228481889 2.73324883770159 13.568446386113024 0 0 0
167 0 1 0 5.195525596297629 0.29636524687971566 13.362319923511388 0 0 0
166 0 1 0 8.017694935214669 2.535120978204182 13.53356803451065 0 0 0
320 0 1 0 10.646695475916475 2.6468908212213287 15.697566418819628 0 0 0
306 0 3 0 10.719166955818483 2.6006081376940773 13.278762633432997 0 0 0
311 0 1 0 10.644870070141717 0.2687837530008048 13.26023505538766 0 0 0
307 0 3 0 13.070299818467815 0.17061820789590848 13.342455957612055 0 0 0
316 0 3 0 13.141387202862454 2.744165626643232 15.87523513780565 0 0 0
317 0 1 0 13.063363407930416 0.4477425881228666 15.954340686330688 0 0 0
25 0 3 0 15.695017194338366 0.3157231691359139 15.662229957422229 -1 0 0
18 0 3 0 15.574246210186516 2.858376020835185 13.335592610040914 -1 0 0
310 0 1 0 13.318281839739294 2.8879312114734277 13.28289420491656 0 0 0
23 0 1 0 15.663574148451547 0.3554065283928106 13.396440443786704 -1 0 0
77 0 1 0 2.7473153893800886 5.309309952274584 15.589096787375356 0 0 0
73 0 3 0 0.10437698422762184 5.347682347215706 15.84967909036957 0 0 0
80 0 1 0 0.2591790205837584 7.669520295142131 15.519329443609324 0 0 0
76 0 3 0 2.7103563770521024 7.607943104843818 15.254368308421583 0 0 0
67 0 3 0 2.8749231143778795 5.4114125580084105 13.248279110944768 0 0 0
215 0 1 0 5.517692298254801 5.2875483918791035 13.50101359879245 0 0 0
70 0 1 0 3.3469511298025343 7.676667662684735 12.964885268246965 0 0 0
210 0 3 0 5.715966274773837 7.924394970858744 13.214672833483288 0 0 0
217 0 3 0 5.368373769163993 5.3927492463802675 15.906125625143774 0 0 0
214 0 1 0 8.254050311182358 7.685260591945227 13.003131304115515 0 0 0
211 0 3 0 8.027197672482583 5.372935477003114 13.327552384244692 0 0 0
221 0 1 0 8.441499273200153 5.442690158633362 15.587696411836943 0 0 0
359 0 1 0 10.896276013508233 5.47415747768019 13.285835075170736 0 0 0
361 0 3 0 10.738171254798594 5.619297759316871 15.80227526508495 0 0 0
66 0 3 0 15.795799062266507 7.718338205459699 13.067205870716496 -1 0 0
365 0 1 0 13.488349155847937 5.369264282634262 15.798558846787413 0 0 0
355 0 3 0 13.103090155733668 5.256709726678436 13.481300113431944 0 0 0
71 0 1 0 15.898106310882492 5.41526369505048 13.220246542680824 -1 0 0
364 0 3 0 13.213979698696132 7.9800586625351215 15.69033942909822 0 0 0
30 0 1 0 2.7632578623055153 3.0287750641790465 18.393873778254246 0 0 0
26 0 3 0 0.32560239717814493 2.5767639001194738 18.46301868092617 0 0 0
27 0 2 0 2.8095281031256074 0.3705314240845672 18.802769006087125 0 0 0
32 0 1 0 0.10034209732630006 2.833160508171017 16.113480669065048 0 0 0
170 0 3 0 5.246730704667551 3.065366752782015 18.89990055386732 0 0 0
176 0 1 0 5.59067922728189 3.1283202306167284 16.055373379848955 0 0 0
169 0 2 0 5.490162783088631 0.27155953963398666 16.32318835312715 0 0 0
174 0 1 0 8.070772243728953 2.4330420272493942 18.35327961836584 0 0 0
172 0 3 0 8.304742946080287 2.9412665292187583 15.979170961883803 0 0 0
314 0 3 0 10.570731376289325 2.4670043511726374 18.749719680163764 0 0 0
319 0 1 0 10.647551628140313 0.21682723728408057 18.504060822353246 0 0 0
315 0 3 0 13.08759300312455 0.31360538237026236 18.2578350248806 0 0 0
31 0 1 0 15.707006325176499 0.2022776528135912 18.431091819247044 -1 0 0
318 0 1 0 13.01124318365581 2.9905701088257346 18.193469181121436 0 0 0
75 0 3 0 2.8516933234604473 5.503760168098611 18.381769571434205 0 0 0
78 0 1 0 3.1396942078527035 7.657795689640653 18.446669862603045 0 0 0
223 0 1 0 5.124515601232633 5.289708581819398 18.699814349674114 0 0 0
224 0 1 0 5.556942480623675 7.637218013186739 16.02271385446312 0 0 0
219 0 2 0 7.95709747270762 5.353346392830716 18.267736112106924 0 0 0
367 0 1 0 11.011964864064016 5.467769509230973 18.02892149279262 0 0 0
79 0 1 0 15.898955148759242 5.135876048772351 18.65744022423339 -1 0 0
363 0 3 0 13.626608048830118 5.3427799283524635 18.30185647684177 0 0 0
40 0 1 0 0.568394858155929 2.572518299388476 20.909440597951985 0 0 0
36 0 3 0 2.8581858999974195 2.8419914690986747 21.198060331085294 0 0 0
39 0 1 0 0.4556304783169748 0.44354353349817327 23.689750323236254 0 0 0
33 0 3 0 0.49130501206787197 0.1684498266532817 21.23383916267926 0 0 0
38 0 1 0 2.5350007307473863 2.9454020011478494 23.750468220960116 0 0 0
184 0 1 0 5.339819232000905 2.5555605600741313 21.156911662737222 0 0 0
182 0 1 0 8.339826543681014 2.422400370054586 23.74201367898017 0 0 0
180 0 3 0 7.903985021774677 2.327665824752616 21.03625565835796 0 0 0
328 0 1 0 10.518921157357353 2.3765457820137983 21.181933675968807 0 0 0
322 0 3 0 10.613019662874725 2.309616519452207 23.4762452782104 0 0 0
326 0 1 0 13.62627972703991 2.949331550452507 23.73915631508222 0 0 0
324 0 2 0 13.463013161890764 2.5763696629319335 20.81151236392276 0 0 0
83 0 3 0 2.8264598944965775 5.267874272205176 23.659813530149492 0 0 0
87 0 1 0 0.1758177468178952 5.302383311257441 23.679763940357326 0 0 0
85 0 1 0 3.017396531168987 5.27440710148579 21.182259381813118 0 0 0
81 0 3 0 0.49539602584812426 5.486841225122678 21.174766377482243 0 0 0
84 0 3 0 2.940135023943375 7.870998968143517 21.187294601540188 0 0 0
226 0 3 0 5.917032402582068 7.597850440789864 23.594637282967028 0 0 0
225 0 3 0 5.450949188144713 5.24038432738341 21.316759507781214 0 0 0
232 0 1 0 5.6008788790142505 7.895445270225798 21.216669089053013 0 0 0
231 0 1 0 5.548659067564008 5.344718196496055 23.775154882280056 0 0 0
230 0 1 0 8.276186590682062 7.586732834593562 23.333253388747217 0 0 0
227 0 3 0 8.17519705679656 4.837581394773509 23.620449639391758 0 0 0
229 0 1 0 7.724571839775712 4.744203020667801 21.27270357485937 0 0 0
370 0 3 0 10.7710879120085 7.864834357274612 23.198287108773044 0 0 0
376 0 1 0 10.958385314668318 7.945073890966749 20.720935294558657 0 0 0
369 0 2 0 10.612093837287176 5.2187590109397926 20.78912054112505 0 0 0
375 0 1 0 10.60363896223821 4.835056183229244 23.766069431644475 0 0 0
373 0 1 0 13.768587158200189 5.5617528086525905 21.153917182144276 0 0 0
371 0 3 0 13.51963610953976 5.297331749754472 23.45858026163146 0 0 0
44 0 3 0 2.534627251840711 2.8902865412463536 26.788700426550633 0 0 0
48 0 1 0 0.1620304017497369 2.8537339514884943 26.599791137545516 0 0 0
34 0 3 0 0.3272345998039475 2.7996110512306225 23.947093662843393 0 0 0
45 0 1 0 2.437733919609885 0.49859633434015743 26.45556796873403 0 0 0
192 0 1 0 5.467397931750134 2.816897776512302 26.894372972600074 0 0 0
178 0 2 0 5.489327782702452 2.5619443298312357 24.157131743925135 0 0 0
188 0 3 0 8.566948267735896 2.586182393002957 26.1400362985813 0 0 0
189 0 1 0 8.040294037460276 0.22874877183949094 26.264761063070367 0 0 0
336 0 1 0 11.057680772065934 2.4366353662534954 26.132370572508457 0 0 0
332 0 3 0 13.384663053907392 2.556196971845968 26.33590076933328 0 0 0
93 0 1 0 3.1168500919598228 5.038521892913983 26.327795728079074 0 0 0
92 0 2 0 2.387879810729773 7.681518218391569 26.744747610405952 0 0 0
86 0 1 0 3.0263691317636447 7.558982768163328 23.91045336528432 0 0 0
240 0 1 0 5.218319623316456 7.746718834957081 26.770843500393894 0 0 0
233 0 3 0 5.6176073718479 5.488661310911766 26.129634244536867 0 0 0
237 0 1 0 7.9713498575793755 4.960634064156629 26.162281350906746 0 0 0
236 0 2 0 8.19193899969988 7.755363033747679 26.08453842370507 0 0 0
377 0 3 0 11.045813305208476 5.0088232610812895 26.03214191120508 0 0 0
384 0 1 0 11.165276956247906 7.778729699012015 26.108115959743564 0 0 0
89 0 3 0 15.674775945858508 5.110199116422047 26.160091027649173 -1 0 0
381 0 1 0 13.400147859137043 5.34342974630281 25.846418709266523 0 0 0
380 0 3 0 13.489994512608893 7.775954519923881 25.988293629381396 0 0 0
43 0 3 0 2.444995652111302 0.4220524339583177 29.85144119335488 0 0 0
46 0 1 0 2.6978335676170233 2.4999116436086064 29.262194580035896 0 0 0
186 0 3 0 5.277290810642384 3.1573280316070007 29.26641050231106 0 0 0
190 0 1 0 7.65656890571805 2.741927912902456 29.36502249889493 0 0 0
335 0 1 0 10.536475499299415 0.521446679830995 28.895467086263665 0 0 0
292 0 3 0 12.472455959528357 2.964381543282267 31.722476801279953 0 0 -1
330 0 3 0 10.590899623793126 2.7626015083840407 28.797766171944787 0 0 0
331 0 2 0 13.295845395486472 0.41868328764573015 29.231291435817788 0 0 0
8 0 1 0 15.913546122655509 2.8261949264593564 31.22500547306325 -1 0 -1
334 0 1 0 13.133725037594834 3.204419618401554 28.469397717391672 0 0 0
42 0 3 0 15.645404021437999 3.000922622471113 28.8383157067086 -1 0 0
91 0 2 0 2.438606460452267 5.172504324893609 29.10941438872605 0 0 0
239 0 1 0 5.053930252210847 5.728781647533585 29.636228244151525 0 0 0
235 0 2 0 7.849251667903168 5.484758552082788 29.08106447087352 0 0 0
383 0 1 0 10.6224457874753 5.20113560159498 28.65220509739681 0 0 0
341 0 1 0 12.854782555168907 5.198718977481262 31.309550443200216 0 0 -1
49 0 2 0 15.795165614394314 5.829643615472787 31.53293493374533 -1 0 -1
95 0 1 0 15.526147409020256 5.367534302023017 28.609888919849567 -1 0 0
382 0 1 0 13.472396487492189 7.887301905112531 29.041864819995673 0 0 0
379 0 3 0 13.100899743114242 5.445437855300233 29.02403221555133 0 0 0
99 0 3 0 2.686232761305102 10.534727956091238 2.8535460551200704 0 0 0
103 0 1 0 0.46885138605070836 10.783160087679061 2.722196214494745 0 0 0
50 0 3 0 0.41602183453795527 8.193862696753204 2.792131495043828 0 0 0
52 0 3 0 2.7986073894429424 8.003369774065979 0.23607383358605025 0 0 0
97 0 3 0 0.3409486298545816 10.604542265301532 0.4426165108486034 0 0 0
101 0 1 0 2.79414136489447 10.443905142263379 0.17884797925089657 0 0 0
247 0 1 0 5.229869433216968 10.558755676611764 2.6570256097334988 0 0 0
194 0 3 0 5.148097982242171 8.103334169676906 2.6890665148480113 0 0 0
241 0 3 0 5.199459239627147 10.50961684854376 0.18809427577563376 0 0 0
198 0 1 0 7.624181419838976 8.223295949229751 2.701623283838473 0 0 0
243 0 3 0 7.761614448738848 10.55566983465431 2.696312389890377 0 0 0
196 0 3 0 7.7771821268323675 8.091141202377266 0.3934963928114962 0 0 0
245 0 1 0 8.054443769748886 10.755454115130732 0.3220358645629551 0 0 0
391 0 1 0 10.513801379841697 10.881233430328088 2.7793602436194074 0 0 0
338 0 2 0 10.508148619875444 8.054294794912291 3.3606317684555504 0 0 0
387 0 2 0 13.288737655693932 10.683575822256962 2.837990769354946 0 0 0
56 0 1 0 15.492519565672275 8.482738643297324 0.3603805117980209 -1 0 0
98 0 3 0 0.057841617672136074 13.44009965811058 2.400639266576345 0 0 0
102 0 1 0 2.591573285100961 13.309962880211202 2.79244387274164 0 0 0
7 0 1 0 0.16248941284464644 15.693194318014196 3.316155108211954 0 -1 0
100 0 3 0 2.837001617354033 12.982232091031523 0.21813939075419597 0 0 0
248 0 1 0 5.424468236930663 13.085805589787853 0.20317144916352717 0 0 0
242 0 2 0 5.603027911903286 13.261022000891835 3.2719226015990053 0 0 0
145 0 3 0 5.447154252017695 15.74807346231323 0.24701079572994245 0 -1 0
149 0 1 0 7.864116405530811 15.721677564180755 0.7983028661900918 0 -1 0
244 0 3 0 7.8963271551755 13.057756072706624 0.4647249230445725 0 0 0
246 0 1 0 8.155067003369895 12.99206009187515 2.7905825381437865 0 0 0
386 0 3 0 10.445275986779137 13.182305930522116 2.4253070681137654 0 0 0
390 0 1 0 13.509653099142184 13.314280577416223 1.9719175935186257 0 0 0
1 0 2 0 15.215211460427733 15.522175931819508 0.3509630473762033 -1 -1 0
291 0 2 0 12.865999926956459 15.787362691237732 3.286516284973392 0 -1 0
109 0 1 0 2.7321827888890646 10.3938726881889 5.252750565836548 0 0 0
105 0 3 0 0.3441312681373327 10.529698985965897 5.432588845067824 0 0 0
64 0 1 0 0.38101822837977734 8.279189546209064 5.644256171442494 0 0 0
62 0 1 0 2.687246042170938 8.025924148164131 7.988653798750818 0 0 0
255 0 1 0 4.98719579008799 10.48401304938481 7.903862315762614 0 0 0
249 0 3 0 5.185804175432856 10.191679022668332 5.112592831150982 0 0 0
253 0 1 0 7.696360067210217 10.50688600174841 5.17854777069335 0 0 0
399 0 1 0 10.622542922984476 11.541603646206788 7.517661690356204 0 0 0
352 0 1 0 10.975441526306206 8.483858673376467 6.049689523942672 0 0 0
393 0 3 0 10.217945232426505 10.614658132496444 5.2897175990551 0 0 0
397 0 1 0 13.773039925761395 10.326833498409364 5.490747544607419 0 0 0
395 0 2 0 13.297016789278935 10.391616608290803 8.02187680642917 0 0 0
348 0 3 0 13.742268811446774 8.07166054158565 5.567265903418613 0 0 0
108 0 2 0 2.7907288215800405 13.097472384915985 5.837067567159494 0 0 0
9 0 3 0 0.36796623277964946 15.616313466086165 5.767043933715179 0 -1 0
256 0 1 0 5.404777675312689 13.841351059727739 6.162191223073573 0 0 0
252 0 2 0 8.238795959031576 13.313609100935409 5.973660023340149 0 0 0
400 0 1 0 10.848955363234507 13.592426676610383 4.603903608510254 0 0 0
396 0 2 0 13.13741486330146 13.045930590986334 5.987798031050499 0 0 0
112 0 1 0 15.830193423485554 13.147406076774502 5.944097232026862 -1 0 0
117 0 1 0 2.9079047807298104 10.4871498840179 10.834112776318637 0 0 0
113 0 3 0 0.07621470656172724 10.643080140317288 10.715261659854525 0 0 0
107 0 3 0 2.6881383056807375 10.34476984138249 8.466923442393389 0 0 0
111 0 1 0 0.1569801882218863 10.530962837747058 8.416277756939147 0 0 0
68 0 3 0 2.6275198905196255 7.986822190977945 10.603691873633288 0 0 0
58 0 3 0 0.16062802923615938 8.023936892817694 8.089069414071783 0 0 0
202 0 3 0 5.153973935936946 8.15362421031774 8.296120477793595 0 0 0
257 0 3 0 5.456295249606914 10.685678058140248 10.899086809570484 0 0 0
216 0 1 0 5.864954735835721 8.315001360631747 10.84732937662328 0 0 0
261 0 1 0 8.417843691613195 10.49325597983507 10.74798883682789 0 0 0
212 0 3 0 8.215109678180724 8.272768933968791 10.715023566220914 0 0 0
251 0 2 0 7.754288039088679 10.598743120181332 8.087959264959204 0 0 0
401 0 3 0 10.739682236867118 10.7315355899703 10.803846467957468 0 0 0
360 0 1 0 11.02134471882415 8.351399552720356 10.626963941159712 0 0 0
405 0 1 0 13.35780975420381 10.819060761825995 10.884669344979224 0 0 0
110 0 1 0 2.610699729196731 13.545626585034046 8.7632888655158 0 0 0
116 0 3 0 2.8129292066351437 13.43102656885084 11.034999695218795 0 0 0
120 0 1 0 0.20600905424941762 13.020205403558847 10.917852965314776 0 0 0
264 0 1 0 5.202448053493876 13.014456937179766 10.80680022893811 0 0 0
250 0 3 0 5.05371390754538 13.70651965214305 8.79683825019519 0 0 0
161 0 3 0 5.4171111670263326 15.782814210024778 11.081942592659866 0 -1 0
254 0 1 0 8.02573906513236 13.493079618006874 8.742870952389618 0 0 0
260 0 3 0 8.078423776104872 13.272778404287749 11.08777296617594 0 0 0
408 0 1 0 10.814705957999276 13.176899987732842 10.995834382914548 0 0 0
394 0 3 0 10.928574871708753 13.66569845991387 8.66936161167234 0 0 0
106 0 3 0 15.912377934975584 13.276869439696263 8.461774210635115 -1 0 0
404 0 3 0 13.373585318340362 13.435734377070382 10.927532683717468 0 0 0
398 0 1 0 13.36700945679197 13.60223419214876 8.694698173909558 0 0 0
115 0 3 0 2.3518163461477766 10.519618764623765 13.01759346615873 0 0 0
125 0 1 0 2.8697728615612954 10.193255575955998 15.422291626838998 0 0 0
263 0 1 0 5.999306185466634 10.433717446647837 13.394305864044492 0 0 0
269 0 1 0 8.48249647595839 10.560741325923829 15.793444905921056 0 0 0
259 0 3 0 8.360389110787944 10.467722654660303 13.299892048980672 0 0 0
220 0 3 0 8.255549111225744 8.014859731805135 15.683554460955444 0 0 0
409 0 3 0 10.742727717615082 10.523194557403095 15.929514098278178 0 0 0
407 0 1 0 10.666366810048396 10.76895503256727 13.33719440720366 0 0 0
354 0 3 0 10.80076688854457 8.010414545948588 13.18757587515671 0 0 0
368 0 1 0 10.62152676642241 8.023028790892363 15.645424059967896 0 0 0
121 0 2 0 15.8747412213454 10.710781154263508 15.690244922525908 -1 0 0
358 0 1 0 13.207316569684437 8.110272274879069 13.256614210236195 0 0 0
413 0 1 0 13.131009546920163 10.805877327527721 15.591104854525039 0 0 0
119 0 1 0 15.904394013689924 10.206731035861374 13.05482129565564 -1 0 0
403 0 3 0 13.353944742137454 10.572528644311614 13.125861096689782 0 0 0
118 0 1 0 2.285994770767392 13.224104330893855 13.360126571968028 0 0 0
258 0 2 0 5.005584789671315 13.38894292771154 13.853459626081223 0 0 0
262 0 1 0 8.104085875156084 13.235869768915226 13.568718277256785 0 0 0
163 0 3 0 8.17309035736998 15.81477298466833 13.606943005842359 0 -1 0
416 0 1 0 10.547046709445791 13.251796479949274 15.8526833720038 0 0 0
402 0 3 0 10.631987567457484 13.276535673271727 13.4401696929913 0 0 0
128 0 1 0 15.735981908417934 13.62541261677476 15.889713915325833 -1 0 0
406 0 1 0 13.47948214552028 13.188239563261483 13.545466613890849 0 0 0
114 0 3 0 15.816301278799575 13.505965319839596 13.256694393174943 -1 0 0
412 0 3 0 13.168746814853218 13.039627083862246 15.933496558270502 0 0 0
123 0 2 0 2.8116725278091232 10.3575219145761 18.25041652552354 0 0 0
74 0 2 0 0.27975230965915354 8.151540406699223 18.267774803556016 0 0 0
271 0 1 0 5.778488438178183 10.45623665529709 18.853388394539685 0 0 0
218 0 3 0 5.543686921043662 8.014607904849328 18.55183965887187 0 0 0
265 0 2 0 5.615978869405456 10.317754311144256 16.09290223076062 0 0 0
267 0 3 0 8.115713758430763 10.492910684745755 18.53333772170543 0 0 0
222 0 1 0 7.93000163437882 8.16661970898997 18.234689404784483 0 0 0
415 0 1 0 10.959373620736493 10.77192257999084 18.218278408086796 0 0 0
362 0 3 0 10.976229313773437 8.045551994123063 18.26891648012392 0 0 0
127 0 1 0 15.588672804056232 10.887961767760281 18.608464853929625 -1 0 0
411 0 3 0 13.336364493699714 10.621835781106668 18.41202354008709 0 0 0
366 0 1 0 13.329337469311813 7.986846880262886 18.182013683265772 0 0 0
126 0 1 0 2.228930427015215 13.075838406974366 18.817525511930874 0 0 0
124 0 3 0 2.39067752945824 13.648351971547157 16.5941063271203 0 0 0
175 0 1 0 5.514512407313858 15.495069658362546 19.050615298920235 0 -1 0
266 0 3 0 5.683011496044598 13.215223775759934 18.810748226468192 0 0 0
272 0 1 0 4.719354844033162 13.40078100242755 16.71176875887911 0 0 0
270 0 1 0 7.911418728080767 12.886922323175348 18.56841461471891 0 0 0
173 0 1 0 8.302262814326864 15.499573893728517 16.22339052574022 0 -1 0
171 0 3 0 8.273449905845977 15.551308984694614 18.671463094680696 0 -1 0
268 0 3 0 8.36435908614798 12.955020313982104 16.01024919959674 0 0 0
410 0 3 0 10.67403244647373 13.338403891133446 18.459665676468525 0 0 0
313 0 3 0 10.7321911965185 15.69015376943715 16.061706988094784 0 -1 0
122 0 3 0 15.568228353281592 13.578958181682623 18.67059056569424 -1 0 0
414 0 1 0 13.219628973799475 13.301918674872066 18.374984005294316 0 0 0
133 0 1 0 2.989273391055178 10.585243872608014 21.14719564176064 0 0 0
88 0 1 0 0.6942838558341673 8.051001215520232 21.151673989522315 0 0 0
82 0 2 0 0.30032596880545914 8.140182809123509 23.83799770677264 0 0 0
279 0 1 0 5.709763378358456 10.234410882155661 23.613935407301007 0 0 0
273 0 3 0 5.429661795914419 10.548243958929088 21.20168066640442 0 0 0
228 0 3 0 7.9326555831032 8.19338796543991 21.211959926250813 0 0 0
277 0 1 0 8.285294042716792 10.584849326973906 21.020987214579137 0 0 0
275 0 3 0 7.9981569429158315 10.629297616098512 23.635669166214775 0 0 0
417 0 3 0 10.727429332512626 10.646485841586397 21.037750521563197 0 0 0
423 0 1 0 10.539001178714411 10.25439916931407 23.377211974320048 0 0 0
372 0 3 0 13.34832997523863 8.195389859356641 20.886587329213256 0 0 0
419 0 3 0 13.157262575984277 10.673562013786782 23.533121000561493 0 0 0
135 0 1 0 15.601850402370696 10.960679904088359 23.51981698074519 -1 0 0
129 0 3 0 15.812849482960713 11.087273580880012 20.95217554414286 -1 0 0
421 0 1 0 13.177233887236328 10.660490724714318 21.184293639663352 0 0 0
374 0 1 0 13.07771612629081 7.9902860119894665 23.568828692894286 0 0 0
130 0 3 0 0.0724116879105362 13.223405409792225 23.81220408021688 0 0 0
37 0 1 0 2.792126045031982 15.634286577442651 21.45529085524356 0 -1 0
134 0 1 0 2.67776062592521 13.218720682874157 23.544794423736498 0 0 0
132 0 3 0 3.0238666518983788 13.020119285017177 21.06141586282628 0 0 0
35 0 3 0 2.7572590693875103 15.841900050753136 23.805339605000775 0 -1 0
183 0 1 0 5.250648028814486 15.276048427632691 23.74206963159073 0 -1 0
177 0 3 0 5.490873011947917 15.597079784093243 21.376625909260248 0 -1 0
280 0 1 0 5.569706931170131 12.833324352993483 21.412035984044422 0 0 0
276 0 3 0 8.072819025539237 12.892466671942916 21.099242007295594 0 0 0
181 0 1 0 8.083009592011916 15.851655413273534 21.131229741391138 0 -1 0
321 0 3 0 10.45922192259325 15.610057005047139 21.097366064194404 0 -1 0
418 0 3 0 10.447386394673638 13.186186773435345 23.610423748815585 0 0 0
424 0 1 0 10.33712794127522 13.029590067959436 21.12314828189978 0 0 0
327 0 1 0 10.326313667378486 15.44196938369167 23.766975221201797 0 -1 0
323 0 2 0 13.365027105144453 15.803285412316953 23.436694648050896 0 -1 0
325 0 1 0 12.97356595652675 15.625745274275967 20.709094383591548 0 -1 0
136 0 1 0 15.57313990475675 13.707875347821425 21.185205734645223 -1 0 0
420 0 3 0 13.140173237495748 13.37292811000654 20.803230631446056 0 0 0
422 0 1 0 12.911631950857407 13.100062071352593 23.80654932663306 0 0 0
131 0 2 0 2.7028167062233392 10.40609528019559 23.925830637041592 0 0 0
141 0 1 0 2.410179080217876 10.598161324957346 26.7786496137616 0 0 0
281 0 3 0 5.581460821627027 10.291417382637796 26.447530870544107 0 0 0
285 0 1 0 7.841963636209707 10.439817791382076 26.56907530196618 0 0 0
425 0 2 0 10.652596675140096 10.762036858801125 26.213304909350455 0 0 0
137 0 3 0 15.561889219882735 10.776779290069314 26.5011395295045 -1 0 0
429 0 1 0 13.4457339013892 10.65678675392671 25.85356271564583 0 0 0
96 0 1 0 15.616974152347614 8.30911387489282 26.641075348345424 -1 0 0
140 0 2 0 2.6207051136147794 13.376882118139935 26.591957755805396 0 0 0
41 0 3 0 0.1713227253936534 15.783790789418504 26.094129853324574 0 -1 0
288 0 1 0 5.396645695543486 12.70629392167385 26.172009840954317 0 0 0
274 0 3 0 5.778134914976915 12.869713844038952 23.888037901082285 0 0 0
185 0 2 0 5.22392871330645 15.841342703439551 26.885936402124806 0 -1 0
284 0 3 0 7.974445650051308 12.975201168528475 26.642251817403682 0 0 0
179 0 3 0 8.184577169373217 15.439075780109533 23.967843356839943 0 -1 0
278 0 1 0 8.10009474976635 12.92177740435119 23.87713796135496 0 0 0
432 0 1 0 10.307099697306498 13.477029195211912 26.528464094477073 0 0 0
329 0 3 0 10.506346339713335 15.742432779006265 26.327527472232248 0 -1 0
144 0 1 0 15.681854456919003 13.326823438536028 26.351662746311206 -1 0 0
428 0 3 0 13.392049614269675 13.45980334102909 26.402598966351064 0 0 0
333 0 1 0 13.736750147739237 15.83941726348409 26.35944440184926 0 -1 0
139 0 3 0 2.4765075128478413 10.477030001404735 29.195961686513883 0 0 0
94 0 1 0 2.290730523130574 8.188169636031457 29.42046895837347 0 0 0
287 0 1 0 5.2614397697355475 10.44532999366535 29.56847990963825 0 0 0
234 0 3 0 5.035650718370478 8.122034381428751 29.405771873794592 0 0 0
283 0 3 0 7.622463422369785 10.697837009832924 29.287711207759564 0 0 0
238 0 1 0 7.781608283135716 8.318245222177062 29.43411236921306 0 0 0
378 0 2 0 10.604414222738841 8.092625649817517 29.07097217818044 0 0 0
389 0 1 0 12.609519434235464 10.42702766767373 31.48665681330234 0 0 -1
431 0 1 0 10.158604094048759 11.085299302564096 29.01230166855199 0 0 0