LAMMPS (29 Sep 2021 - Update 3)
OMP_NUM_THREADS environment is not set. Defaulting to 1 thread. (src/comm.cpp:98)
  using 1 OpenMP thread(s) per MPI task
Reading data file ...
  orthogonal box = (0.18117515 0.30658787 -1.7703124) to (16.151107 16.025694 34.434877)
  2 by 2 by 4 MPI processor grid
  reading atoms ...
  432 atoms
  reading velocities ...
  432 velocities
Finding 1-2 1-3 1-4 neighbors ...
  special bond factors lj:    0        0        0       
  special bond factors coul:  0        0        0       
     0 = max # of 1-2 neighbors
     0 = max # of 1-3 neighbors
     0 = max # of 1-4 neighbors
     1 = max # of special neighbors
  special bonds CPU = 0.001 seconds
  read_data CPU = 0.020 seconds
Neighbor list info ...
  update every 1 steps, delay 10 steps, check yes
  max neighbors/atom: 2000, page size: 100000
  master list distance cutoff = 6.22
  ghost atom cutoff = 6.22
  binsize = 3.11, bins = 6 6 12
  1 neighbor lists, perpetual/occasional/extra = 1 0 0
  (1) pair quip, perpetual
      attributes: full, newton on
      pair build: full/bin
      stencil: full/bin/3d
      bin: standard
Setting up Verlet run ...
  Unit style    : metal
  Current step  : 0
  Time step     : 0.001
Per MPI rank memory allocation (min/avg/max) = 8.883 | 8.892 | 8.898 Mbytes
Step Temp PotEng TotEng Press Volume c_msd[4] 
       0    300.21725   -3485.3401   -3468.6147    2550.7614    9088.6994            0 
      10    309.70373   -3485.8709    -3468.617    2660.2399    9088.9987 0.0052541703 
      20    309.21923   -3485.8523   -3468.6253    2717.3515    9090.0434  0.019558964 
      30     309.0634   -3485.8579   -3468.6396    2523.7897    9092.1838  0.038497545 
      40    308.82117    -3485.858   -3468.6532     2157.805     9095.492  0.057361741 
      50    313.13261   -3486.1086   -3468.6637    1779.7185    9099.7617  0.073161953 
      60    304.44731   -3485.6276   -3468.6665    2063.2569    9104.7433  0.085601333 
      70    293.73036   -3485.0155   -3468.6515    2571.7517    9110.3273  0.094658846 
      80     300.8722    -3485.366   -3468.6041      2144.71    9116.3463   0.10074754 
      90    307.48637   -3485.6459   -3468.5155     1537.198    9122.3104   0.10591299 
     100    311.35887   -3485.7347   -3468.3886    1372.6904      9127.72   0.11155714 
     110    309.93826   -3485.4901   -3468.2231    1495.8297    9132.3526   0.11778274 
     120    308.77349   -3485.2174   -3468.0152    1334.6461    9136.1526   0.12360071 
     130    314.94768   -3485.3089   -3467.7628    793.92603    9138.8798    0.1285848 
     140    312.90572   -3484.9102   -3467.4778    334.57069    9140.1526   0.13400854 
     150    300.42322   -3483.9265   -3467.1896    199.36562    9139.7776   0.14046478 
     160    293.60071   -3483.2709   -3466.9141    535.71177     9137.825    0.1467699 
     170    299.61572   -3483.3485   -3466.6566    939.27672    9134.4425   0.15195291 
     180    309.96917     -3483.69   -3466.4213    1232.6419    9129.8572   0.15651493 
     190    307.09493   -3483.3174   -3466.2088    1925.1695    9124.5092   0.16134344 
     200    303.99366   -3482.9446   -3466.0087    2534.9649    9118.9424   0.16545185 
     210    319.50745   -3483.6029   -3465.8028     2445.829    9113.3866   0.16729861 
     220    341.35842   -3484.6012   -3465.5838    2187.9002     9107.593   0.16745703 
     230    344.85551   -3484.5701   -3465.3578    2288.1603    9101.3682   0.16788421 
     240    337.39859    -3483.923   -3465.1262    2588.4332     9095.127   0.16921456 
     250    337.97536   -3483.7078   -3464.8788    2876.0643    9089.6588   0.17080461 
     260    337.34386   -3483.4056   -3464.6118    3529.0491     9085.557   0.17242948 
     270    339.49287   -3483.2422   -3464.3286    4327.3674    9083.2194   0.17383224 
     280    346.14102   -3483.3158   -3464.0319    4672.8233    9083.0411   0.17502971 
     290    348.17644   -3483.1256   -3463.7283    4707.3698    9085.0765   0.17618726 
     300    346.75834   -3482.7418   -3463.4235    4591.8053    9089.1147   0.17683452 
     310     349.7493    -3482.602    -3463.117    4317.7385    9094.9609    0.1764154 
     320    353.89336   -3482.5235   -3462.8077    3921.2933    9102.6068   0.17565505 
     330    347.28694   -3481.8491   -3462.5013    3928.8483    9112.1074   0.17605278 
     340    337.71651    -3481.012   -3462.1974     3999.646    9123.4412   0.17781279 
     350    348.07013   -3481.2688   -3461.8775    3368.8362    9136.3884   0.18027507 
     360    359.68847   -3481.5609   -3461.5222    1858.3881    9150.2924   0.18362633 
     370    365.13422   -3481.4822   -3461.1401    63.744258    9164.0913   0.18769777 
     380    375.12153   -3481.6411   -3460.7427   -989.66726    9176.6807   0.19210323 
     390    375.34728   -3481.2581   -3460.3471   -1271.2956    9187.5305   0.19693215 
     400    378.43459   -3481.0429   -3459.9599   -1026.5305    9196.6529   0.20166983 
     410    380.37545    -3480.763   -3459.5719   -610.20742     9204.119   0.20635301 
     420     375.1158    -3480.083   -3459.1849   -370.12129    9209.8547   0.21090304 
     430    364.16657   -3479.0865   -3458.7984   -180.83934    9213.7191   0.21448518 
     440    365.73398   -3478.7814   -3458.4059    -210.7895     9215.649   0.21612837 
     450    373.63886   -3478.8121   -3457.9962   -381.89357    9215.6741   0.21656462 
     460    383.78988   -3478.9579   -3457.5765    -413.2598    9213.8074    0.2171155 
     470    400.64912   -3479.4703   -3457.1497   -191.97442    9210.0824    0.2178593 
     480    418.07866   -3480.0107   -3456.7191     219.2924     9204.758   0.21853374 
     490    422.08057   -3479.8083   -3456.2937     890.5563    9198.4113   0.21995625 
     500    400.92034   -3478.2157   -3455.8799    2597.6836    9191.8749   0.22262164 
     510    387.27418   -3477.0446   -3455.4692    4091.9447    9186.1575   0.22508876 
     520    394.96807   -3477.0419   -3455.0378    4440.0785    9182.0045   0.22646349 
     530    416.82888   -3477.8007   -3454.5787    4143.7534    9179.7186   0.22743754 
     540    422.60086   -3477.6539   -3454.1103    4159.6215    9179.3314   0.22960641 
     550    419.26725   -3477.0131   -3453.6552    4455.8422    9180.9413   0.23245418 
     560    439.05048   -3477.6632   -3453.2032    4137.6089    9184.6678   0.23413106 
     570     456.0659   -3478.1535   -3452.7456    3916.5046    9190.3884   0.23569399 
     580    433.67354   -3476.4729   -3452.3124    4441.0968    9198.0987   0.23974266 
     590    417.24918   -3475.1509   -3451.9055     4348.623    9207.9627   0.24526469 
     600    435.64304   -3475.7484   -3451.4782    2939.1731    9219.8547   0.25023711 
     610     455.6235   -3476.3951   -3451.0118    1262.4753    9233.2326     0.255454 
     620     451.4889   -3475.6862   -3450.5333     31.40054    9247.4322   0.26236721 
     630    448.37075   -3475.0311   -3450.0518   -139.31727    9261.6836   0.27083698 
     640    455.90219   -3474.9589     -3449.56    568.58438    9275.4333   0.28042675 
     650    448.55783   -3474.0573   -3449.0677    1608.7452    9288.6636   0.29131461 
     660    437.57725   -3472.9573   -3448.5794    1928.5965    9301.5152   0.30216445 
     670    448.29299   -3473.0455   -3448.0706     1058.133    9313.8059   0.31096404 
     680    462.56378   -3473.3009    -3447.531   -292.57665    9325.0349   0.31758997 
     690     481.2414   -3473.7853   -3446.9748   -1512.7108    9334.5999   0.32230942 
     700    485.92937   -3473.4929   -3446.4212   -2189.1236    9341.9388   0.32605457 
     710    488.95062   -3473.1278   -3445.8878   -1991.3898    9346.7078   0.32989289 
     720    483.59546   -3472.3119   -3445.3703    -1011.473    9348.7862   0.33490095 
     730    492.08456   -3472.2783   -3444.8637    9.6192391    9348.3701   0.34142637 
     740     492.0871   -3471.7659   -3444.3511    1189.7621    9346.1222   0.35077396 
     750    477.05108   -3470.4214   -3443.8443    2280.1297    9342.8034   0.36094517 
     760    473.73656   -3469.7241   -3443.3317    2466.4401     9338.973   0.36747371 
     770     489.4772   -3470.0645   -3442.7951    2305.8116    9334.8685   0.36891694 
     780    513.61355    -3470.846    -3442.232    1944.4938    9330.6297   0.36685413 
     790    522.03994    -3470.749   -3441.6656     2203.926    9326.3687    0.3642543 
     800    522.62505   -3470.2279   -3441.1119    3166.2802    9322.4308   0.36404108 
     810    516.16762   -3469.3264   -3440.5701    4046.7817    9319.5452   0.36832521 
     820    505.74451   -3468.2137   -3440.0381    4573.0631    9318.3349   0.37617404 
     830     501.7393   -3467.4564   -3439.5039    4911.7206    9318.8512     0.384037 
     840      532.809   -3468.6313   -3438.9479    4381.6529    9320.7843   0.38907115 
     850    540.41284   -3468.4766   -3438.3696    3526.7543    9323.7971   0.39306016 
     860      541.312   -3467.9664   -3437.8093    2790.3329    9327.7853   0.39715234 
     870    547.05806   -3467.7293   -3437.2521    1812.8835    9332.4529   0.40206809 
     880     544.3421   -3467.0217   -3436.6958    1459.3867    9337.0943   0.40863586 
     890    529.56175   -3465.6507   -3436.1483    2363.8982    9341.3568   0.41695281 
     900    527.87137   -3465.0061   -3435.5978    3715.4614    9345.5033   0.42603467 
     910    548.24087    -3465.566   -3435.0229    4747.7124    9349.7261   0.43460803 
     920    570.41931   -3466.2034   -3434.4247    4735.9829    9353.9594   0.44245261 
     930    575.76882   -3465.9068   -3433.8301    4017.8926    9358.0742   0.44981304 
     940    582.24637   -3465.6872   -3433.2496    3018.6597    9361.8897   0.45598554 
     950    589.77872   -3465.5368   -3432.6796    2378.3168    9365.1942   0.46073914 
     960    600.95708    -3465.599    -3432.119    2238.1468     9368.077   0.46519801 
     970    609.52596    -3465.528   -3431.5707    2474.7083    9370.8692   0.47133391 
     980     625.2896   -3465.8707   -3431.0351    2847.3641    9373.6722   0.47990011 
     990     636.0315   -3465.9511   -3430.5171    3804.2397    9376.5026   0.49193857 
    1000    615.69518   -3464.3324   -3430.0313    5100.0475     9379.701   0.50743653 
    1010    610.97427   -3463.6063   -3429.5682    4571.3151    9383.9122   0.52302781 
    1020    626.67045   -3464.0042   -3429.0917    3283.2215    9389.1217    0.5378171 
    1030    619.62211   -3463.1269    -3428.607    3102.0224     9394.646    0.5548567 
    1040     599.1584   -3461.5075   -3428.1277    4261.1821    9400.1038    0.5742237 
    1050    603.38601   -3461.2529   -3427.6376     5456.382    9405.9194   0.59208391 
    1060     621.4526   -3461.7407   -3427.1189    5931.4638    9412.6937   0.60703768 
    1070    648.04267   -3462.6817   -3426.5785    5865.4164    9420.5226   0.62090255 
    1080    644.07769   -3461.9242   -3426.0419    6134.8414    9429.1461   0.63654258 
    1090    631.43313   -3460.7057   -3425.5278    6457.1092    9438.4608    0.6549628 
    1100    654.36699   -3461.4735    -3425.018    6473.8431    9448.7002   0.67643664 
    1110     672.2392   -3461.9547   -3424.5035    6551.7387    9460.1925   0.70021899 
    1120    663.75515   -3460.9911   -3424.0126    7214.2782    9472.9538   0.72461903 
    1130    645.53749   -3459.5097   -3423.5461    7064.6994    9486.9365   0.74983734 
    1140    651.19902   -3459.3525   -3423.0735    5943.1117    9501.9765   0.77668173 
    1150    653.65559   -3458.9955   -3422.5796    5106.9636    9517.7539   0.80722558 
    1160    649.63895   -3458.2712   -3422.0791    5185.5171    9534.0678   0.84215067 
    1170    657.19064   -3458.1867   -3421.5739    5543.3884    9551.1101   0.87982603 
    1180    663.02692   -3457.9994   -3421.0614    5715.1483    9569.2155   0.91962811 
    1190    656.36874   -3457.1142   -3420.5471    6139.1463    9588.3833   0.96029182 
    1200    677.35303   -3457.7724   -3420.0363    5716.7054     9608.835    0.9989003 
    1210    693.49995   -3458.1443   -3419.5086    5084.5902    9630.5716    1.0379152 
    1220    672.70243    -3456.466    -3418.989    4555.4764    9653.1214     1.081889 
    1230     675.3038   -3456.0893   -3418.4673    3237.0504    9675.9649     1.131105 
    1240    666.49228   -3455.0424   -3417.9114    2236.8062    9698.3538    1.1856698 
    1250    671.28522   -3454.7406   -3417.3425    1500.8891    9719.7479    1.2428761 
    1260    679.01792   -3454.5825   -3416.7536    1319.6921    9740.0644    1.3006876 
    1270    678.82931   -3453.9702   -3416.1519    1681.0295    9759.2312    1.3590415 
    1280    683.54546   -3453.6171    -3415.536    2089.4355    9776.9328    1.4165854 
    1290    691.84584   -3453.4495   -3414.9059     1873.935    9792.7653    1.4719875 
    1300    689.55062    -3452.689   -3414.2734    1608.7986    9806.4116     1.525493 
    1310      704.591   -3452.8922   -3413.6386    1116.0494    9817.7823    1.5755788 
    1320    722.64725   -3453.2651   -3413.0056    1116.2284    9826.8838    1.6189325 
    1330    710.00651    -3451.947   -3412.3917    1925.1652    9834.0093    1.6552348 
    1340    688.21186   -3450.1436   -3411.8026    2415.1518    9839.4198    1.6856382 
    1350    701.16142    -3450.265   -3411.2025    2593.6794    9843.0587    1.7087149 
    1360    720.67058   -3450.7296   -3410.5803    3090.6794    9845.2073    1.7252072 
    1370    744.72659   -3451.4414   -3409.9518    3598.7345    9846.4814    1.7403479 
    1380     757.7293   -3451.5483   -3409.3344    4153.7451    9847.3485    1.7608148 
    1390     760.2251   -3451.1011   -3408.7481    4027.2658    9848.1934    1.7896697 
    1400    738.87338    -3449.353   -3408.1895    3403.7978    9849.0179    1.8232659 
    1410    742.55958   -3449.0116   -3407.6428    2412.8712     9849.403    1.8523645 
    1420     761.7659    -3449.523   -3407.0841     2659.769    9848.9078    1.8741429 
    1430    778.62338      -3449.9    -3406.522    3522.3495    9848.0412    1.8920939 
    1440    777.88925   -3449.3141   -3405.9771    4518.3531    9847.9753    1.9075472 
    1450    794.69396   -3449.7273   -3405.4541    4780.2161     9849.522    1.9208544 
    1460    795.07689   -3449.2478   -3404.9532    4940.3281    9852.9991    1.9398553 
    1470    782.54182   -3448.0851   -3404.4888    5531.9634    9858.8113    1.9699482 
    1480    775.66903   -3447.2577   -3404.0443    6062.1071    9867.2687    2.0113424 
    1490    779.27457   -3447.0141   -3403.5998    6411.1119    9878.3282    2.0616812 
    1500    783.11061   -3446.7807   -3403.1528    6846.7658    9891.8923    2.1175832 
    1510    795.48997   -3447.0258   -3402.7082    6680.7976    9908.1077    2.1770098 
    1520    814.13272   -3447.6082    -3402.252    5741.2063    9926.7782     2.236972 
    1530    833.35159   -3448.2006   -3401.7736    4531.4894    9946.6851    2.2954994 
    1540    844.49995   -3448.3451   -3401.2971    2731.0289    9966.4067    2.3543405 
    1550    824.85392   -3446.8069   -3400.8533     1391.062    9985.3069    2.4136808 
    1560    785.13049    -3444.181   -3400.4405    1549.2605    10003.468    2.4719335 
    1570    773.44166    -3443.102   -3400.0127    1913.0059    10021.088    2.5310163 
    1580    804.92682   -3444.3778   -3399.5344    1406.7315    10038.121    2.5953186 
    1590    818.90242   -3444.6395   -3399.0176    1610.4931    10054.456    2.6656162 
    1600    832.77748   -3444.8894   -3398.4944    2103.1979    10070.204    2.7384092 
    1610    834.02275   -3444.4209   -3397.9566    2478.5199    10084.796    2.8087596 
    1620    836.45766   -3444.0261   -3397.4261    2417.5091    10097.481    2.8712769 
    1630    835.62951   -3443.4614   -3396.9076    2015.3697    10108.184    2.9250485 
    1640    834.95243   -3442.9152    -3396.399    2088.6958    10117.219    2.9684964 
    1650    817.15586   -3441.4141   -3395.8894    2309.0614    10124.517    3.0017767 
    1660    788.94587   -3439.3258   -3395.3727    2598.6973    10129.913    3.0272231 
    1670    836.79302   -3441.4349   -3394.8162    1719.5951    10133.513    3.0456922 
    1680    918.50795   -3445.3906   -3394.2195    591.66961    10134.591    3.0583868 
    1690    908.41852   -3444.2886   -3393.6796    1541.6588    10132.201    3.0688459 
    1700    874.47193   -3441.9433   -3393.2255    2891.0357    10127.213    3.0759869 
    1710    868.26716   -3441.1702   -3392.7981    3416.2311    10121.141    3.0741647 
    1720     862.0759   -3440.3936   -3392.3663    4344.0661    10115.123    3.0630676 
    1730    855.93346    -3439.608    -3391.923    5879.6654    10110.078    3.0498953 
    1740    866.08177   -3439.7161   -3391.4658    7007.2218    10106.771    3.0418578 
    1750      882.573    -3440.158   -3390.9889    7592.1932     10105.55    3.0423825 
    1760    902.23178   -3440.7806   -3390.5162    7412.7677    10106.335    3.0511357 
    1770    883.41907   -3439.2719   -3390.0556    6894.2463    10108.827    3.0662576 
    1780    866.30797   -3437.8751   -3389.6121    6580.4249    10113.036    3.0820585 
    1790    865.65997    -3437.381   -3389.1542    6273.9861    10119.267    3.0993691 
    1800    917.28994   -3439.7691   -3388.6659    5583.0079    10127.239    3.1204155 
    1810     925.0259   -3439.7078   -3388.1735    5543.7456    10136.257    3.1425071 
    1820    884.11476   -3436.9715   -3387.7165    5842.9107    10146.247    3.1651531 
    1830    890.09549   -3436.8517   -3387.2635    5209.1029    10157.135     3.188431 
    1840    890.48894   -3436.3948   -3386.7846    5095.0352    10168.626     3.208965 
    1850    893.70651   -3436.0841   -3386.2947    5048.5543    10180.765    3.2238174 
    1860    901.83395    -3436.031   -3385.7889    4374.5462    10193.628    3.2376297 
    1870    908.12615   -3435.8605   -3385.2677    3855.8061    10206.937    3.2591652 
    1880    923.70329    -3436.203   -3384.7425    3696.9585     10220.53    3.2934841 
    1890    946.49737   -3436.9568   -3384.2264     3368.772    10234.691    3.3400759 
    1900    943.59304   -3436.2945   -3383.7259    3365.4848    10249.284    3.3960023 
    1910    910.71494   -3433.9857   -3383.2488    4096.4662    10263.772    3.4572566 
    1920    909.32881   -3433.4356   -3382.7759    4223.8515    10278.046    3.5185549 
    1930    919.04464   -3433.4874   -3382.2864     3949.624    10292.504    3.5754559 
    1940    909.99418   -3432.4866   -3381.7898    3853.0288    10307.718    3.6253927 
    1950    912.61471   -3432.1206   -3381.2778    3700.3737    10324.042    3.6714236 
    1960    940.96965   -3433.1577   -3380.7352    3051.9329    10341.223    3.7215295 
    1970    945.41436   -3432.8529   -3380.1828    3050.7896    10358.853    3.7813688 
    1980    925.09539   -3431.1756   -3379.6375    2935.1939    10376.691    3.8512888 
    1990    933.78896   -3431.0846   -3379.0622    1736.5316     10393.71    3.9213017 
    2000    961.18625   -3432.0113   -3378.4625    674.85692    10408.526    3.9850636 
    2010    964.29179   -3431.5973   -3377.8755    437.23967    10420.646    4.0427392 
    2020    964.47997   -3431.0515   -3377.3193     980.8481    10430.248    4.0893438 
    2030    975.94829   -3431.1602    -3376.789    1394.6419    10437.848    4.1241323 
    2040    919.59556   -3427.5165   -3376.2848    2347.5923    10444.141    4.1539863 
    2050    879.36301   -3424.7667   -3375.7764    2741.7052    10449.923    4.1797367 
    2060    909.36475   -3425.8656   -3375.2039    2389.6794    10455.542    4.2006997 
    2070    925.65303   -3426.1341    -3374.565    2961.2263    10461.118    4.2171992 
    2080    925.04618   -3425.4416   -3373.9062    3838.6004    10466.972    4.2287204 
    2090    926.35142   -3424.8513   -3373.2432    3867.9292    10473.785    4.2376221 
    2100    947.47429   -3425.3538   -3372.5689    2743.0171    10481.799    4.2517157 
    2110    954.81669   -3425.0821   -3371.8882    2019.3845    10490.132    4.2758514 
    2120    966.82376   -3425.0863   -3371.2235    2136.4646    10497.946    4.3020875 
    2130    976.56793   -3424.9866   -3370.5809    2574.9959    10505.408     4.322484 
    2140    1011.4741   -3426.3112   -3369.9608    2071.4904    10513.045    4.3371164 
    2150    995.57994   -3424.8355   -3369.3707    1783.1295    10520.729    4.3576012 
    2160    992.95214   -3424.1364   -3368.8179    2038.3767    10528.357    4.3897818 
    2170    1037.5479   -3426.0698   -3368.2668    2315.1304    10536.017    4.4318141 
    2180    1049.4001   -3426.2031   -3367.7398    3603.1983    10543.665    4.4776493 
    2190    1016.7843   -3423.9071   -3367.2609    5104.2477    10551.606    4.5161317 
    2200    1029.4346   -3424.1584   -3366.8075    4816.7885    10560.419     4.544031 
    2210    1032.2888   -3423.8565   -3366.3465    3721.2734    10570.193    4.5716637 
    2220    1023.3267   -3422.9018   -3365.8911    3030.4875    10580.626    4.6103494 
    2230    1002.6998   -3421.2788   -3365.4173    2622.1666     10591.24    4.6601455 
    2240    1031.5921   -3422.3956   -3364.9244     1513.488    10602.015    4.7148867 
    2250    1040.6994   -3422.3771   -3364.3985    722.10545     10612.86    4.7712768 
    2260    1032.3587   -3421.3775   -3363.8636    111.30591    10623.221    4.8266257 
    2270    1070.2602   -3422.9411   -3363.3157   -380.32184    10632.431    4.8765056 
    2280    1079.5593   -3422.9156   -3362.7721   -90.818014    10639.471    4.9172054 
    2290    1062.6672   -3421.4727   -3362.2703    929.42422    10644.318    4.9448631 
    2300    1062.5757   -3420.9894   -3361.7921    1465.9308    10648.058    4.9634359 
    2310    1071.2643   -3421.0007   -3361.3194    1569.6636    10651.849    4.9822797 
    2320    1064.4089   -3420.1552   -3360.8558    1893.9281    10656.495    5.0108886 
    2330    1053.4518   -3419.0792   -3360.3902    2184.8407    10662.216    5.0463913 
    2340    1075.0966   -3419.8067   -3359.9119    2795.2465    10668.698    5.0799666 
    2350    1072.8509   -3419.1957    -3359.426    3576.3162    10675.808    5.1146066 
    2360    1033.8208   -3416.5366   -3358.9413    4654.9248    10683.757    5.1577418 
    2370    1062.4991   -3417.6294   -3358.4364    4487.1906    10693.074    5.2082169 
    2380    1108.1807   -3419.6439   -3357.9059     3821.775    10704.256    5.2647162 
    2390    1103.1578   -3418.8425   -3357.3844    3153.1064    10717.383    5.3373392 
    2400    1109.7918   -3418.7122   -3356.8845    1882.5093    10731.763     5.431147 
    2410    1128.8943   -3419.2881   -3356.3962    1464.4077    10746.289    5.5342298 
    2420    1107.0983   -3417.6148   -3355.9371    1642.6446    10760.677    5.6364702 
    2430     1116.496   -3417.6954   -3355.4941    1334.3839    10774.491    5.7346006 
    2440    1091.0005   -3415.8286   -3355.0478    880.87205    10786.838    5.8271719 
    2450    1089.6665   -3415.3117   -3354.6051    174.36961    10797.531    5.9140438 
    2460    1097.1708   -3415.2596    -3354.135   -11.442802    10806.781    5.9958204 
    2470    1113.3675   -3415.6755   -3353.6485    75.759518    10814.467    6.0735613 
    2480    1100.1544   -3414.4429    -3353.152    746.45743     10819.89    6.1509183 
    2490    1063.2846    -3411.889   -3352.6522    1719.3719    10822.828    6.2273057 
    2500    1079.7985   -3412.2785   -3352.1217    1647.9271    10824.107    6.2963587 
    2510    1082.8676   -3411.8729   -3351.5451    1629.7052    10824.631    6.3615143 
    2520    1073.4558   -3410.7482   -3350.9448    2308.0506    10825.142    6.4276345 
    2530    1085.3714   -3410.7894   -3350.3221    2820.9573    10826.355    6.4930404 
    2540    1119.5408   -3412.0502   -3349.6794    2488.6823    10828.072    6.5451178 
    2550    1140.7973   -3412.6037   -3349.0486    1135.9081    10829.496    6.5754752 
    2560      1118.56   -3410.7772    -3348.461     291.2592    10830.103     6.592559 
    2570    1096.0916   -3408.9759   -3347.9114    185.83312     10829.73     6.613525 
    2580    1078.1933   -3407.4302   -3347.3629     535.2478     10828.74    6.6411017 
    2590    1072.2677   -3406.5209   -3346.7837    1693.4568    10827.823    6.6633662 
    2600    1143.5411   -3409.8893   -3346.1813     2144.733    10828.179    6.6829113 
    2610    1162.8217   -3410.3597   -3345.5776    2911.3019    10830.917    6.7213163 
    2620    1168.1765   -3410.1193   -3345.0389    2439.1391    10836.914    6.7835156 
    2630    1162.5437   -3409.3052   -3344.5386     1898.046    10846.064    6.8522249 
    2640    1189.7562   -3410.3481   -3344.0654    1252.2778    10857.302    6.9177479 
    2650     1173.379   -3408.9925   -3343.6222    1695.3884    10870.158    6.9954476 
    2660    1169.6673    -3408.376   -3343.2126    2247.4445      10885.1    7.1013409 
    2670    1184.4151   -3408.7834   -3342.7983    1998.6489    10902.082    7.2308628 
    2680    1184.5584   -3408.3894   -3342.3963    1350.1177    10920.896    7.3694541 
    2690     1190.535   -3408.3435   -3342.0175    1221.0623    10942.262    7.5128975 
    2700    1204.7374   -3408.7585   -3341.6412    1166.9146    10966.528    7.6680745 
    2710    1214.8914   -3408.9275   -3341.2446     254.4347    10992.952    7.8429682 
    2720    1209.7497   -3408.2402   -3340.8437   -671.97141    11020.394     8.031044 
    2730    1144.2337   -3404.1779   -3340.4314   -531.00231    11047.996    8.2273359 
    2740     1130.559   -3402.9764   -3339.9917   -567.91153    11075.661    8.4306373 
    2750    1148.0318   -3403.4137   -3339.4555   -964.70766    11103.301      8.64586 
    2760    1153.6159   -3403.0941   -3338.8248   -1312.5191    11130.013    8.8644623 
    2770     1170.072   -3403.3154   -3338.1294   -1939.4559    11154.703    9.0725819 
    2780    1181.2004   -3403.2063   -3337.4003   -2258.0251    11176.702    9.2665529 
    2790    1176.6452   -3402.2322     -3336.68   -1350.5992    11196.055    9.4466763 
    2800    1197.9525    -3402.725   -3335.9857   -459.28976    11213.733    9.6170689 
    2810    1225.5436   -3403.6005   -3335.3241   -83.067631    11231.106      9.78962 
    2820    1246.0683   -3404.1215   -3334.7017    -86.94979    11248.734    9.9687464 
    2830    1240.9215   -3403.2686   -3334.1355    444.56203    11266.352    10.148553 
    2840    1280.7061   -3404.9764   -3333.6269   -111.70934    11284.142    10.333091 
    2850    1248.2695   -3402.7014   -3333.1589   -603.61583    11301.673    10.536569 
    2860    1202.8126   -3399.7294   -3332.7194   -535.22024    11317.836    10.743021 
    2870    1198.4569   -3399.0266   -3332.2592   -1040.5572    11331.815    10.932569 
    2880     1212.413      -3399.3   -3331.7551   -1646.6518    11343.161    11.095073 
    2890    1214.6311   -3398.8812   -3331.2128   -1706.2899    11351.324    11.224701 
    2900    1234.7483   -3399.4447   -3330.6555   -2008.6537    11355.635    11.316771 
    2910    1243.5552   -3399.3704   -3330.0905   -1831.9929    11355.771    11.371289 
    2920    1226.5308   -3397.8604    -3329.529   -1977.7556    11352.614    11.403398 
    2930    1223.8953    -3397.137   -3328.9524   -2123.1218    11347.522    11.425979 
    2940    1217.7916   -3396.1885   -3328.3439   -2079.4305    11341.678    11.445856 
    2950    1232.1133   -3396.3583   -3327.7159   -2594.2944    11335.743    11.467379 
    2960    1247.4618   -3396.5627   -3327.0652   -2433.9713    11329.423    11.485994 
    2970     1261.157   -3396.6705     -3326.41   -2066.3512    11322.733      11.4915 
    2980    1305.4447   -3398.4979   -3325.7701   -1994.7845    11315.935    11.481267 
    2990    1287.7091   -3396.9085   -3325.1688   -1761.2246    11309.047    11.473193 
    3000     1260.804   -3394.8641   -3324.6233   -2084.9433    11301.704    11.467461 
    3010    1255.7647   -3394.0333   -3324.0733   -1749.9543    11293.667    11.441154 
    3020    1306.7418   -3396.3152   -3323.5152   -441.91066    11285.546     11.39064 
    3030    1268.0294   -3393.5894   -3322.9461    2046.8885    11278.696    11.354053 
    3040    1287.9716   -3394.1406   -3322.3862    2925.9937    11275.046    11.366455 
    3050    1341.1027   -3396.5478   -3321.8334    3177.2705    11275.393    11.428517 
    3060    1318.0527   -3394.7579   -3321.3277    3133.8725     11280.24    11.536545 
    3070    1307.8854   -3393.7344   -3320.8706    2322.2514    11289.693    11.672177 
    3080     1331.986   -3394.6258   -3320.4194    1316.6789    11302.831    11.810647 
    3090    1344.4464   -3394.8619   -3319.9613    1316.2422    11318.103    11.945828 
    3100    1343.0653    -3394.342   -3319.5183    1822.6444     11334.22     12.09269 
    3110    1293.9732   -3391.1724   -3319.0837    2552.6026    11350.676    12.266402 
    3120    1291.1152   -3390.5629   -3318.6335    1755.3168    11367.395     12.46848 
    3130    1314.6858   -3391.3591   -3318.1165     63.28226    11383.812    12.687159 
    3140    1331.5617   -3391.7254   -3317.5426   -1473.2318    11398.333    12.899019 
    3150    1351.6324   -3392.2559   -3316.9549   -1667.3736    11409.618    13.088083 
    3160    1411.0026   -3394.9943   -3316.3858   -1032.7707    11417.419    13.264088 
    3170    1404.9914    -3394.152   -3315.8784    4.5100032    11421.865    13.422105 
    3180    1353.5397   -3390.8503   -3315.4431    934.82465    11424.229    13.540202 
    3190    1367.1672   -3391.1932   -3315.0268    476.85034    11426.486    13.618725 
    3200    1363.9385   -3390.5895    -3314.603    277.10134    11429.071    13.686146 
    3210    1365.9969    -3390.282   -3314.1808    959.66884    11431.836    13.756245 
    3220    1368.9133   -3390.0161   -3313.7524    1850.4469    11434.889    13.835786 
    3230     1342.268   -3388.0906   -3313.3113    2265.3712    11438.319       13.931 
    3240    1343.3954   -3387.6966   -3312.8546    1943.7254    11442.576     14.04188 
    3250    1355.0811   -3387.8523   -3312.3592    973.01255    11448.439    14.177943 
    3260    1320.8299   -3385.4277   -3311.8428    543.40531    11456.437    14.348647 
    3270    1312.6916   -3384.4177   -3311.2862   -374.88303    11466.556    14.561272 
    3280    1341.7671   -3385.4148   -3310.6634   -1472.7784    11477.994    14.803567 
    3290    1361.7577   -3385.8598   -3309.9947   -1594.8599    11490.015    15.044743 
    3300    1404.4257   -3387.5657   -3309.3235   -1803.2642    11501.948    15.258237 
    3310    1416.4109   -3387.5844   -3308.6745   -2115.8016    11512.857     15.43757 
    3320    1406.7454   -3386.4609   -3308.0896   -1926.2581    11522.202    15.580905 
    3330    1443.8051   -3388.0105   -3307.5745   -1762.4175    11530.465    15.701558 
    3340    1437.0218   -3387.1766   -3307.1185   -1652.7943     11538.23    15.831918 
    3350      1436.24   -3386.7344   -3306.7199   -1613.2478    11544.853    15.971216 
    3360    1410.8289   -3384.9616   -3306.3627   -1480.5548    11549.511    16.104211 
    3370    1400.7843    -3384.068   -3306.0287   -1072.9014    11551.571    16.215659 
    3380    1372.2446   -3382.1298   -3305.6806   -730.74239    11550.484    16.290421 
    3390    1411.9226   -3383.9786   -3305.3188   -1893.3905    11546.353    16.335279 
    3400    1434.5128   -3384.8451   -3304.9268    -2144.707    11539.728    16.361508 
    3410    1474.2908   -3386.6735   -3304.5391   -1269.4295    11531.811    16.377818 
    3420    1469.7715   -3386.0577   -3304.1751   -178.47226    11523.869    16.396948 
    3430    1430.3324   -3383.5339   -3303.8484    361.13226    11517.477    16.418222 
    3440    1388.9502   -3380.8903   -3303.5103    316.45784     11513.17    16.445258 
    3450    1429.1004   -3382.7543   -3303.1375   -631.08083    11509.428    16.478825 
    3460    1447.1673   -3383.3441   -3302.7208   -786.94099    11504.563     16.52008 
    3470    1492.5821   -3385.4498   -3302.2964   -545.23221    11498.904    16.583366 
    3480    1497.9011   -3385.3316   -3301.8818    331.13696    11494.001    16.682747 
    3490    1464.2185     -3383.08   -3301.5067    1092.0658    11491.273    16.793511 
    3500    1469.4815   -3383.0101   -3301.1436    1569.1508    11490.233    16.893581 
    3510    1431.6519   -3380.5279   -3300.7689    2354.1193    11490.534    16.984372 
    3520    1396.6374   -3378.1706   -3300.3624    3337.1958    11493.068    17.074199 
    3530    1407.9779   -3378.3231   -3299.8831    3336.3185    11498.001    17.181853 
    3540    1452.3173   -3380.2314   -3299.3212    2861.3376    11504.584    17.310438 
    3550    1495.2941   -3382.0193   -3298.7148    2463.4602    11511.547    17.450447 
    3560    1510.2915   -3382.2578   -3298.1178    2622.7651     11518.23    17.589579 
    3570    1531.2855   -3382.8835   -3297.5739    3122.8985    11524.752    17.721655 
    3580    1508.8893   -3381.1395   -3297.0776    3570.0576    11531.444    17.861982 
    3590    1498.1698   -3380.0979   -3296.6332    3276.5328    11538.921    18.028554 
    3600    1532.8166   -3381.5993   -3296.2044    2551.2762        11547    18.201731 
    3610    1553.9475   -3382.3837   -3295.8115    2650.2047     11554.86     18.34701 
    3620    1559.5472   -3382.3669   -3295.4827    2400.6641    11562.838    18.466194 
    3630    1590.8082   -3383.8554   -3295.2297     1336.994    11571.484    18.589528 
    3640    1535.4443   -3380.5825   -3295.0412    1132.5836     11580.58    18.748112 
    3650    1493.2989   -3378.0693   -3294.8759    681.70275    11589.697    18.935212 
    3660    1545.2574   -3380.7793   -3294.6913   -740.06111    11598.303    19.131436 
    3670     1546.885   -3380.6744   -3294.4957   -935.87855    11605.163    19.328706 
    3680     1492.338   -3377.4482   -3294.3084   -286.62459    11609.314    19.507836 
    3690    1528.5827   -3379.2767   -3294.1176   -246.13527    11610.933    19.646468 
    3700    1500.4373   -3377.4832   -3293.8921    875.45726    11610.739    19.751939 
    3710     1469.912   -3375.5283   -3293.6378    2564.3915    11609.432    19.843163 
    3720    1514.3103   -3377.6881   -3293.3241    2737.5504    11607.422    19.920681 
    3730     1505.318   -3376.8159    -3292.953    3046.8675    11605.092    19.999516 
    3740    1505.1102   -3376.4085   -3292.5571    2752.9782    11603.551    20.085173 
    3750     1528.345    -3377.276   -3292.1302    1990.4011     11603.51    20.165891 
    3760    1558.6566   -3378.5226   -3291.6881    585.93869    11604.638    20.239973 
    3770     1571.078   -3378.7838   -3291.2573   -46.569898    11605.405     20.30857 
    3780      1576.81   -3378.7046   -3290.8588    -295.0936    11604.743    20.377168 
    3790    1597.0667   -3379.4714    -3290.497   -258.49785    11602.777    20.456808 
    3800    1548.6997   -3376.4528    -3290.173    1037.0619    11600.138     20.54478 
    3810    1571.1665   -3377.3872   -3289.8557    1783.2018    11597.918     20.62378 
    3820    1584.7405   -3377.8246   -3289.5369     2095.065    11596.545     20.68834 
    3830    1559.5073   -3376.1195   -3289.2376    2055.6361    11595.815    20.755471 
    3840    1581.2527   -3377.0312   -3288.9379    1241.2633    11596.429    20.853908 
    3850    1553.9612   -3375.2074   -3288.6344    534.33731    11598.681    20.976196 
    3860    1575.2524     -3376.08    -3288.321    582.60652    11600.754    21.071843 
    3870    1618.4782   -3378.1645   -3287.9973    1241.0266    11601.272    21.126897 
    3880    1620.1877   -3377.9711   -3287.7086    2381.9146    11600.583    21.171995 
    3890    1627.0449   -3378.0944   -3287.4499    2944.1813    11599.823    21.242736 
    3900    1648.4293   -3379.0588   -3287.2229    2847.0431    11600.104    21.359277 
    3910    1657.1738   -3379.3662   -3287.0432    2158.1921    11601.485    21.497406 
    3920    1613.5785   -3376.7873   -3286.8931     1958.923    11602.469    21.624309 
    3930    1604.3396    -3376.132   -3286.7525    1800.4589    11602.384    21.718534 
    3940    1622.2156    -3376.974   -3286.5985     2178.195    11601.349    21.807716 
    3950    1601.5152   -3375.6437   -3286.4215    2254.1334    11599.402    21.890847 
    3960    1628.7618   -3376.9671    -3286.227    1153.9214     11596.03    21.955982 
    3970    1635.0167   -3377.1157    -3286.027     306.6134    11591.073    22.024251 
    3980    1618.7343   -3375.9812   -3285.7997    1098.2892     11585.22    22.089778 
    3990    1656.7903   -3377.8732   -3285.5715    1335.3109    11579.355     22.13144 
    4000    1631.2668   -3376.2125   -3285.3328    2007.9433    11573.225    22.160595 
    4010    1621.8698   -3375.4456   -3285.0894    2260.3291    11566.459    22.217237 
    4020    1619.9869   -3375.0766   -3284.8253    2003.4636    11558.216    22.300051 
    4030    1591.1112   -3373.1476    -3284.505    1938.7721    11548.768    22.399991 
    4040    1596.7926   -3373.0865   -3284.1274    1453.2029    11539.128    22.503911 
    4050    1598.6001   -3372.7384   -3283.6786    1017.3719    11529.004    22.568663 
    4060    1615.1462   -3373.1556    -3283.174    1057.5354    11517.839    22.570778 
    4070    1598.8631   -3371.6756   -3282.6012    2271.1831    11505.981    22.533634 
    4080    1662.5292   -3374.5999   -3281.9786    2673.2038    11494.085    22.488196 
    4090    1625.0489   -3371.8563    -3281.323    4544.7137    11483.103    22.466945 
    4100    1577.3862   -3368.5461   -3280.6682    5327.6127    11475.313    22.497562 
    4110    1608.9194   -3369.6141   -3279.9794    4285.5013    11471.727    22.582204 
    4120    1658.7154   -3371.6914   -3279.2825    2973.2868    11471.633    22.687775 
    4130     1641.952   -3370.0946   -3278.6196    2427.2644    11474.234    22.799092 
    4140    1676.6243   -3371.4266     -3278.02    1503.0857    11478.956    22.902951 
    4150    1680.2323   -3371.0837   -3277.4761    1048.4467    11484.954    22.988453 
    4160    1692.5093   -3371.3046    -3277.013    1127.6247    11491.522    23.046955 
    4170    1661.0828   -3369.1533   -3276.6125    1535.9316    11498.526    23.105149 
    4180    1647.5554   -3368.0303   -3276.2432    1856.3274    11506.437    23.195468 
    4190    1703.9007   -3370.8032    -3275.877    1483.2385    11515.246    23.333305 
    4200    1720.1917   -3371.3654   -3275.5316    1344.2072    11524.553    23.542122 
    4210     1648.844   -3367.0817   -3275.2227    1269.2454    11534.506    23.790648 
    4220    1667.9372   -3367.8201   -3274.8974    1127.7071    11545.245     24.00604 
    4230     1720.779   -3370.3952   -3274.5287    651.93978    11556.744    24.192758 
    4240    1732.9768   -3370.7108   -3274.1647    847.20107    11568.578    24.371131 
    4250    1741.3478   -3370.8271   -3273.8147    1808.1423    11580.496    24.556599 
    4260    1712.4484   -3368.8899   -3273.4875    2397.5461    11592.883    24.775321 
    4270    1673.4762   -3366.3839   -3273.1527    2766.2753    11606.521     25.01163 
    4280    1702.1041   -3367.5773   -3272.7512     2071.172    11621.234    25.232956 
    4290    1723.4395   -3368.3147   -3272.2999    2033.3138    11636.749    25.467613 
    4300    1730.0391    -3368.219   -3271.8366    2359.1657    11653.748    25.759134 
    4310     1710.069    -3366.632   -3271.3622    2381.5496    11673.293    26.126339 
    4320    1730.7492   -3367.2989    -3270.877     1753.282    11696.602    26.552972 
    4330    1703.1866   -3365.2229   -3270.3364    1936.1703    11723.769    27.016371 
    4340    1755.5713   -3367.5094   -3269.7046    611.66954    11753.216    27.466725 
    4350      1773.16   -3367.7783   -3268.9936   -1416.8049    11782.848    27.855486 
    4360    1681.0495   -3361.9179   -3268.2648   -2256.0853    11810.902     28.19652 
    4370    1675.4847   -3360.8216   -3267.4785   -3203.0463    11836.319    28.523701 
    4380    1736.2871   -3363.3189   -3266.5884   -3311.3486    11857.481    28.843066 
    4390    1753.0998   -3363.3516   -3265.6844   -2591.8219    11873.279    29.145113 
    4400    1763.3705   -3363.0682   -3264.8289   -2060.6127    11884.177    29.412779 
    4410    1750.4032    -3361.527   -3264.0101   -1382.2134    11891.214    29.644892 
    4420    1721.2078   -3359.1219   -3263.2315   -1142.4729    11894.758    29.816643 
    4430    1709.0607   -3357.6878   -3262.4741   -1256.7805    11894.262     29.88447 
    4440    1713.0585   -3357.1518   -3261.7154   -1321.2712    11889.662    29.871548 
    4450     1741.634   -3357.9786   -3260.9503   -1482.2495    11880.816    29.847634 
    4460    1800.0214   -3360.5035   -3260.2223   -1447.9607     11867.55    29.853355 
    4470    1835.1618   -3361.7727   -3259.5338   -696.25219    11851.353    29.903003 
    4480    1852.1581   -3362.1313   -3258.9455    845.87556    11833.406      29.9657 
    4490    1874.0568   -3362.8609   -3258.4551    1784.7144    11814.312    29.997694 
    4500    1874.7644   -3362.4811   -3258.0359    2472.6288    11795.117    30.000483 
    4510    1934.6026   -3365.5139   -3257.7351    2820.1815    11777.047    30.006459 
    4520    1834.6161   -3359.7262   -3257.5177    4855.5905    11760.104    30.013516 
    4530    1878.5318   -3362.0227   -3257.3676    4552.9513    11745.219    30.005946 
    4540    1861.7207   -3360.9631   -3257.2446    4323.6444    11732.008    30.012814 
    4550    1875.9245   -3361.6848   -3257.1749    3722.8729    11720.165    30.009552 
    4560    1877.4165   -3361.7268   -3257.1338    4051.7505    11709.569    29.997517 
    4570      1855.72   -3360.5032    -3257.119    4761.1505    11700.221    30.003773 
    4580    1835.6691   -3359.3488   -3257.0816    5104.3068    11693.448     30.06219 
    4590    1861.2934    -3360.754   -3257.0592    4052.9663    11690.923    30.191698 
    4600    1863.7516   -3360.8731   -3257.0414    2938.4702    11692.395    30.363404 
    4610    1901.9634   -3362.9976   -3257.0371    2109.7704    11696.608    30.549904 
    4620    1933.5832   -3364.7944   -3257.0723    1633.0723    11702.819    30.735368 
    4630    1873.6825   -3361.5445   -3257.1595    2655.8932    11710.947    30.912708 
    4640    1859.4873    -3360.867   -3257.2729    2199.0651     11721.47    31.094639 
    4650    1858.1922   -3360.8651   -3257.3431    739.75502    11733.957    31.320847 
    4660     1835.368   -3359.6458   -3257.3954    1164.6109    11746.942    31.604352 
    4670    1786.6397   -3356.9063   -3257.3706    2568.7203    11759.262    31.913237 
    4680    1843.9937   -3359.9902   -3257.2592    2150.9183      11771.1    32.227187 
    4690    1878.5851   -3361.7321    -3257.074       1390.6    11782.743    32.528136 
    4700    1821.6638   -3358.3367   -3256.8498    2000.4072     11794.69     32.78081 
    4710    1795.7892    -3356.588   -3256.5426    2170.8845    11808.809    33.019374 
    4720    1839.0171   -3358.5337     -3256.08    1258.1706    11825.842    33.289092 
    4730    1839.2175    -3357.916   -3255.4511    616.53884    11845.876    33.592691 
    4740    1829.2522   -3356.5538   -3254.6441    206.06918    11869.008    33.931922 
    4750    1857.7857    -3357.142   -3253.6427    -51.60117    11895.455    34.315695 
    4760    1880.5691   -3357.2071   -3252.4385     788.2024     11926.06     34.74691 
    4770    1848.8927   -3354.1121   -3251.1082    1708.8005    11961.278    35.192624 
    4780    1850.8378   -3352.7948   -3249.6826    1610.0719     12000.69    35.626713 
    4790     1924.084   -3355.3567   -3248.1639    461.76598    12043.305    36.095094 
    4800     1955.964   -3355.6198   -3246.6508    164.47409    12086.682    36.605369 
    4810    1941.9191   -3353.4881   -3245.3017   -295.23955    12128.649    37.096741 
    4820    1914.1306    -3350.817   -3244.1786   -1172.6785    12168.016    37.541483 
    4830    1935.6042   -3351.0734   -3243.2387   -1934.7516    12203.973    37.948452 
    4840    1967.1447    -3352.007   -3242.4151   -2604.6111    12235.516    38.337975 
    4850    1978.9265   -3351.9761   -3241.7278    -3269.767    12261.723    38.728395 
    4860    1949.7853   -3349.8036   -3241.1789   -3290.7771    12281.441    39.092263 
    4870    1878.8116   -3345.3874   -3240.7167   -2556.3505     12293.86    39.345278 
    4880    1875.8589   -3344.8031   -3240.2969   -2983.1407    12298.773    39.460894 
    4890    1897.8916   -3345.5963   -3239.8626   -4554.7087     12295.52    39.491124 
    4900    1938.9684   -3347.4876   -3239.4655   -5257.3586    12283.357    39.476886 
    4910    1908.8103   -3345.4214   -3239.0795   -4786.7955    12262.635    39.426765 
    4920     1930.281   -3346.2242    -3238.686   -4148.4164    12235.254    39.324676 
    4930    1948.3662   -3346.8121   -3238.2664   -4030.6671    12202.671    39.177463 
    4940     1962.953   -3347.2094   -3237.8511   -2580.6766    12165.272    39.004531 
    4950    1970.9949   -3347.1806   -3237.3743   -955.07199    12124.421    38.855329 
    4960    1965.2153   -3346.2861   -3236.8018    149.46787    12083.444    38.725083 
    4970    1984.6338   -3346.7365   -3236.1703    764.30018    12044.874    38.607713 
    4980    2020.1687   -3348.0767   -3235.5309      59.1676    12009.927    38.522679 
    4990     2082.594   -3351.0097   -3234.9861    -559.8469    11977.538    38.444572 
    5000    2103.4869   -3351.7389   -3234.5513   -439.19662    11946.061    38.354152 
Loop time of 1538.55 on 16 procs for 5000 steps with 432 atoms

Performance: 0.281 ns/day, 85.475 hours/ns, 3.250 timesteps/s
96.0% CPU use with 16 MPI tasks x 1 OpenMP threads

MPI task timing breakdown:
Section |  min time  |  avg time  |  max time  |%varavg| %total
---------------------------------------------------------------
Pair    | 598.83     | 1091       | 1506.8     | 821.1 | 70.91
Bond    | 0.00099254 | 0.0025925  | 0.006691   |   2.4 |  0.00
Neigh   | 0.044389   | 0.052777   | 0.063586   |   2.6 |  0.00
Comm    | 30.727     | 415.28     | 937.03     |1261.8 | 26.99
Output  | 0.25572    | 0.26207    | 0.35414    |   4.6 |  0.02
Modify  | 0.58227    | 31.892     | 123.88     | 940.5 |  2.07
Other   |            | 0.06741    |            |       |  0.00

Nlocal:        27.0000 ave          32 max          20 min
Histogram: 2 0 0 0 2 4 3 2 1 2
Nghost:        338.938 ave         374 max         307 min
Histogram: 2 2 0 2 3 1 2 2 0 2
Neighs:         0.00000 ave           0 max           0 min
Histogram: 16 0 0 0 0 0 0 0 0 0
FullNghs:      961.000 ave        1264 max         609 min
Histogram: 2 0 0 1 4 1 5 2 0 1

Total # of neighbors = 15376
Ave neighs/atom = 35.592593
Ave special neighs/atom = 0.0000000
Neighbor list builds = 500
Dangerous builds = 500
Setting up Verlet run ...
  Unit style    : metal
  Current step  : 5000
  Time step     : 0.001
Per MPI rank memory allocation (min/avg/max) = 8.888 | 8.897 | 8.899 Mbytes
Step Temp PotEng TotEng Press Volume c_msd[4] 
    5000    2103.4869   -3351.7389   -3234.5513   -439.19662    11946.061    38.354152 
    5010    2153.4255   -3354.6072   -3234.6375   -1779.4851    11945.937    38.529955 
    5020    2098.5317   -3351.7695   -3234.8579   -1005.9101     11945.52    38.752979 
    5030    2121.0555   -3353.4028   -3235.2364    -352.7601     11945.04    39.050165 
    5040    2057.8043   -3350.3608   -3235.7182    795.61029    11944.701    39.370376 
    5050    2014.0077   -3348.5156    -3236.313    854.41791    11944.598    39.617322 
    5060     1972.095   -3346.7793   -3236.9117    87.149653    11944.715    39.749586 
    5070    1990.6851   -3348.4215   -3237.5182   -661.15756    11944.981    39.813805 
    5080    1979.7556   -3348.4232   -3238.1288   -530.80519    11945.337    39.884295 
    5090     1947.521   -3347.2374   -3238.7388   -743.63711    11945.826    40.022572 
    5100    1917.0851   -3346.1072   -3239.3042   -517.75837    11946.509    40.244342 
    5110    1970.3059   -3349.5871   -3239.8192   -684.86895      11947.3    40.491006 
    5120    1994.5111    -3351.443   -3240.3265   -279.26698     11948.19    40.719504 
    5130    2020.3616    -3353.462   -3240.9054    497.66555     11949.26    40.929069 
    5140    1922.5357   -3348.6027   -3241.4961    1099.1334    11950.511    41.141091 
    5150     1899.778   -3347.8974   -3242.0586    570.08897    11951.887    41.358812 
    5160    1886.6965   -3347.6577   -3242.5478    762.97732    11953.389    41.584064 
    5170    1911.5825   -3349.4806   -3242.9842   -262.09537    11955.163    41.806245 
    5180    1928.2276   -3350.7833   -3243.3595   -593.07896    11957.177    42.007113 
    5190    1992.6643   -3354.7779   -3243.7643   -831.38612    11959.322    42.175538 
    5200    1940.4208   -3352.2934   -3244.1903    259.92829     11961.56     42.30979 
    5210    1917.6297   -3351.4741   -3244.6408    1288.9604    11963.916    42.437071 
    5220    1814.8526   -3346.1666   -3245.0591    2251.2224    11966.386    42.583989 
    5230    1829.2602   -3347.2927   -3245.3826    1806.0478    11969.096    42.752046 
    5240    1892.8472   -3351.0531   -3245.6004    456.29755    11972.147    42.939576 
    5250    1896.5018   -3351.3775   -3245.7213   -94.743592    11975.507     43.13652 
    5260    1930.0257   -3353.2889    -3245.765    285.95107    11978.976    43.344299 
    5270    1932.2965   -3353.3748   -3245.7243    976.41663    11982.444    43.563267 
    5280     1887.051   -3350.7106   -3245.5809    1324.3701    11986.011     43.79081 
    5290    1866.1518   -3349.2804    -3245.315    462.59417    11989.809    44.026499 
    5300    1852.4321   -3348.0657   -3244.8647   -576.06295    11993.785    44.274978 
    5310     1817.694   -3345.4608   -3244.1951   -1286.6434      11997.8    44.527054 
    5320    1842.1403   -3345.9076   -3243.2799   -933.58549    12001.715    44.753816 
    5330    1921.7725   -3349.1813   -3242.1172   -461.67779    12005.589    44.962038 
    5340    1953.1646   -3349.5989   -3240.7859   -365.41922    12009.449    45.157668 
    5350    1968.6918   -3349.0869   -3239.4088   -1122.2305    12013.199    45.359675 
    5360    2017.1666    -3350.434   -3238.0553   -1908.1854    12016.695    45.573152 
    5370    2058.5364   -3351.4673   -3236.7839   -2148.4035    12019.963    45.806445 
    5380    2049.2626   -3349.8478   -3235.6811   -1259.5503    12023.123    46.074973 
    5390    2023.2026   -3347.4503   -3234.7354    22.192203    12026.311    46.333387 
    5400    2115.8998   -3351.8077   -3233.9286    419.24795    12029.669    46.559679 
    5410    2112.9041   -3350.9731   -3233.2609     1362.243    12033.037    46.797258 
    5420    2108.5625   -3350.2636   -3232.7932    223.48183    12036.291     47.07774 
    5430    2083.0189    -3348.515   -3232.4677   -1394.9507    12039.404    47.367267 
    5440    2097.9204   -3349.1321   -3232.2546   -2421.5919    12042.368    47.601716 
    5450    2112.3718   -3349.8393   -3232.1567   -2484.3731    12045.103    47.782182 
    5460    2060.6708   -3346.9915   -3232.1892   -1572.9586    12047.519    47.982903 
    5470    2039.9517   -3345.9367   -3232.2887   -937.16849    12049.644    48.232226 
    5480    2070.6821   -3347.8047   -3232.4447   -1166.5802    12051.514    48.526555 
    5490    2043.5068   -3346.5245   -3232.6785   -935.18647    12053.186    48.862964 
    5500    1996.9495   -3344.2079   -3232.9556   -309.73981    12054.767    49.190962 
    5510    2004.6157   -3344.9295   -3233.2502   -562.79303    12056.398    49.439188 
    5520    1991.9273   -3344.5287   -3233.5562   -585.62726     12058.13    49.576687 
    5530    1959.2003   -3342.9901   -3233.8409   -512.23056     12059.83    49.654385 
    5540    1994.9815   -3345.2535   -3234.1108   -1045.7475    12061.483    49.762362 
    5550    1989.7484    -3345.225   -3234.3739   -1465.6664    12063.187    49.920485 
    5560    1958.9629    -3343.782    -3234.646   -1388.2647    12064.919    50.127042 
    5570    1973.8106   -3344.8625   -3234.8993   -1503.8255    12066.578    50.387463 
    5580    1963.5843   -3344.5138   -3235.1203    -1682.685    12068.052    50.654864 
    5590    1992.5821   -3346.3518   -3235.3428   -2020.7954    12069.318    50.848448 
    5600    1990.6369    -3346.467   -3235.5663   -1534.1683    12070.492    50.990347 
    5610       1996.8   -3347.0535   -3235.8095   -2081.1646    12071.701    51.172512 
    5620    1980.4395   -3346.4037   -3236.0712   -2409.3297     12072.83    51.421816 
    5630    1956.6951   -3345.3421   -3236.3324   -1690.4835    12073.849     51.70712 
    5640     1965.647   -3346.0871   -3236.5787   -1542.4316    12074.931    51.976004 
    5650    2015.7052   -3349.1299   -3236.8327   -950.99846    12076.114    52.185493 
    5660    2038.3738   -3350.6939   -3237.1338   -796.85454    12077.191     52.41243 
    5670    2050.1423   -3351.7564   -3237.5407   -1260.2229    12078.032    52.743815 
    5680    1972.8137   -3347.9273   -3238.0197   -1212.6691    12078.618    53.152448 
    5690    2008.8883   -3350.4987   -3238.5812   -2222.5123    12079.016    53.568497 
    5700    1984.3815   -3349.7513   -3239.1992   -1795.9166    12079.091    53.962355 
    5710    2006.2944   -3351.6767   -3239.9038   -1767.0904    12078.816    54.301026 
    5720    2062.4775   -3355.6158   -3240.7129   -2453.3742    12078.262    54.612079 
    5730     2105.492   -3359.0207   -3241.7214   -3121.0403    12077.382    54.882245 
    5740    1975.8936   -3352.9591   -3242.8799   -2665.9204    12076.023    55.078829 
    5750    1877.1524   -3348.5865   -3244.0083   -2585.2879    12074.178    55.229474 
    5760    1896.2583   -3350.6781   -3245.0354   -3835.3563    12071.945    55.404102 
    5770    1866.6071   -3349.9411   -3245.9504    -3623.612    12069.274    55.647637 
    5780    1848.0805   -3349.6607   -3246.7021    -2835.141    12066.204    55.942477 
    5790      1914.42   -3353.9614   -3247.3069   -2950.7155    12062.812    56.238983 
    5800    1952.6451   -3356.6145   -3247.8304   -2469.6635     12059.03    56.491305 
    5810    1949.7247   -3356.9054    -3248.284   -1358.8851     12054.94    56.689846 
    5820    1971.6281   -3358.5259   -3248.6842   -666.24678    12050.798    56.886622 
    5830     1989.926   -3359.9077   -3249.0467   -585.45658    12046.707    57.161489 
    5840    1938.3752   -3357.3938   -3249.4048   -572.54883     12042.54     57.51215 
    5850    1917.7066   -3356.5276     -3249.69   -202.38505    12038.214    57.877449 
    5860    1961.7681   -3359.2049   -3249.9126    413.42144    12033.722    58.169403 
    5870    1933.4214   -3357.7819   -3250.0688    1049.2764    12029.142    58.351838 
    5880    1900.5627   -3356.0446   -3250.1621    384.73147    12024.557    58.496194 
    5890    1832.2255   -3352.2248   -3250.1495   -443.80041    12020.056    58.675745 
    5900    1805.8104   -3350.5712   -3249.9675   -1761.6778    12015.528    58.856455 
    5910    1872.9637   -3353.9243   -3249.5793   -2894.8266    12010.753    59.002905 
    5920    1885.3068   -3354.0165   -3248.9839   -2119.2407    12005.642     59.13252 
    5930    1892.4304   -3353.6256   -3248.1962   -471.31284    12000.405    59.245355 
    5940    1949.1285   -3355.7706   -3247.1825    132.06107    11995.197    59.349615 
    5950      2037.03   -3359.4622    -3245.977    240.84081    11989.996    59.457939 
    5960    2092.1057    -3361.226   -3244.6724    764.07184    11984.825    59.586646 
    5970    2089.7025   -3359.8056   -3243.3859    1333.2104    11979.696    59.747588 
    5980    2067.9755   -3357.3928   -3242.1836    1314.0055    11974.663    59.918735 
    5990    1998.8067   -3352.4273   -3241.0715    859.77397    11969.761    60.089907 
    6000    1947.2413   -3348.5119   -3240.0289    335.22684    11964.926    60.266075 
    6010    1942.5864   -3347.2224   -3238.9987    129.93259    11960.085    60.416911 
    6020    1921.7587   -3345.0269   -3237.9636   -58.925192    11955.196    60.560654 
    6030    1960.1846   -3346.1767   -3236.9726   -901.36342    11950.168    60.694576 
    6040    1960.4915   -3345.2875   -3236.0663   -139.12634    11944.751    60.859729 
    6050    2023.5511   -3347.9935   -3235.2592    44.608655    11938.941    61.062011 
    6060     2081.882   -3350.5648   -3234.5808    290.61144    11932.782    61.224129 
    6070    2114.6319   -3351.9394   -3234.1309   -700.30503    11926.254    61.314038 
    6080    2098.6346    -3350.792   -3233.8747   -1723.8173    11919.419    61.370413 
    6090    2062.5055   -3348.6685    -3233.764   -1203.9089    11912.377    61.503543 
    6100    2010.2516   -3345.7363    -3233.743     42.41868    11905.234    61.767775 
    6110    2016.9243   -3346.0965   -3233.7313    343.39616    11898.246    62.125793 
    6120     2012.193   -3345.8394   -3233.7378    427.60447    11891.421    62.529119 
    6130    1974.3413    -3343.756   -3233.7632    1361.0353    11884.625    62.909368 
    6140    1956.4499   -3342.7473   -3233.7513    1542.8816    11877.813    63.195806 
    6150    2057.4243   -3348.3463   -3233.7249     203.9724    11870.981     63.38281 
    6160     2076.909   -3349.4409    -3233.734   -343.28045    11864.029    63.527764 
    6170    2016.7021   -3346.1754   -3233.8226    89.427243     11856.93    63.729831 
    6180    2049.8927   -3348.1542   -3233.9524   -517.79032     11849.69    63.962836 
    6190    2028.3189   -3347.1349    -3234.135    397.66518    11842.131    64.151631 
    6200    1930.4843   -3341.8559   -3234.3065    2218.9573     11834.29    64.316844 
    6210    1968.3747   -3344.0857   -3234.4253    2293.8592    11826.447    64.494608 
    6220    2013.1664    -3346.666   -3234.5103     2095.314    11818.532     64.64613 
    6230       2001.5   -3346.0927   -3234.5869    2535.4282     11810.63    64.774993 
    6240    2015.6143   -3346.9817   -3234.6896    3764.1066    11802.942    64.909754 
    6250    1990.2345   -3345.6656   -3234.7874    4734.6041    11795.635    65.019217 
    6260    2014.2164   -3347.1092   -3234.8949    4270.3293    11788.784    65.090876 
    6270    2025.6557    -3347.881   -3235.0295    3538.4809    11782.295    65.133985 
    6280    1979.0077   -3345.4578   -3235.2051    3703.7319    11776.013    65.174805 
    6290    1946.8815    -3343.818    -3235.355    4322.1796    11769.821    65.249337 
    6300    1999.6384   -3346.8817   -3235.4796    3978.5725    11763.764    65.345948 
    6310    1963.3859   -3344.9695   -3235.5871    2671.4636    11757.813    65.500222 
    6320     1996.004   -3346.8984   -3235.6988    1025.7648    11751.766    65.699986 
    6330    2049.7223   -3350.0108   -3235.8185    1376.6939    11745.458    65.832523 
    6340    2067.6497   -3351.1956   -3236.0045    2511.5982    11738.933    65.927435 
    6350    2045.7046   -3350.2462   -3236.2777    3331.5226    11732.306      66.0543 
    6360    2117.1819   -3354.6349   -3236.6843    2860.2911    11725.699    66.220612 
    6370    2084.0465   -3353.3677   -3237.2631    3276.4932    11719.153    66.384311 
    6380    2088.1779   -3354.4131   -3238.0783    2745.8715    11712.774    66.501299 
    6390    1995.4333   -3350.2318   -3239.0639    3006.3703     11706.54    66.586934 
    6400     1988.226   -3350.9172   -3240.1509     2967.301    11700.426    66.664989 
    6410    2007.7612   -3353.1913   -3241.3366    3430.5139    11694.389    66.782288 
    6420    1980.5031   -3352.9214   -3242.5854    3993.2237    11688.447    66.939443 
    6430    1988.2838    -3354.609   -3243.8394    3681.0254    11682.716    67.155718 
    6440    1973.4127   -3355.0096   -3245.0686    2941.3831    11677.299    67.394828 
    6450     1933.212    -3353.907   -3246.2056    3629.9493    11672.126    67.583724 
    6460    1939.8576    -3355.262   -3247.1904      3924.26    11667.204    67.720196 
    6470    1962.7794   -3357.4035   -3248.0548    4400.4203    11662.541    67.825384 
    6480    1899.8663   -3354.6149   -3248.7713    5344.0008    11658.087    67.900653 
    6490    1857.5948   -3352.8024   -3249.3137    5878.2076    11653.804    67.957029 
    6500    1870.7015   -3353.8772   -3249.6584    5501.3645     11649.79    68.011181 
    6510    1888.0877   -3355.0463   -3249.8588    5518.5692     11646.11    68.062958 
    6520    1871.7459   -3354.1952   -3249.9181    5059.9368    11642.768    68.120136 
    6530    1892.9001   -3355.3058   -3249.8502    5179.9926    11639.725    68.206802 
    6540    1901.6095   -3355.6111   -3249.6703    5885.2041    11637.088    68.308812 
    6550     1916.774   -3356.1849   -3249.3993    6105.6476    11635.062    68.427747 
    6560    1928.1724   -3356.4741   -3249.0535    6069.3897     11633.86    68.518522 
    6570     1912.177   -3355.1775    -3248.648    5845.4006     11633.71    68.622958 
    6580    1943.6295   -3356.4704   -3248.1886    5299.6703    11634.645    68.841929 
    6590    1993.6048   -3358.7492   -3247.6832    4814.2694     11636.51    69.128105 
    6600    1957.0283   -3356.2026   -3247.1744    5037.2122    11639.196    69.423746 
    6610    1909.3984   -3353.0375   -3246.6627    5055.2003    11642.793    69.715572 
    6620    1892.3288   -3351.5155   -3246.0918    5644.4107    11647.351    69.979898 
    6630    1897.7765    -3351.184   -3245.4568    6169.6333    11652.865    70.210557 
    6640    1829.7712   -3346.6863   -3244.7477    6364.3067    11659.361    70.444751 
    6650    1906.7455   -3350.1763   -3243.9494    4693.7181    11666.906     70.72163 
    6660    1955.6425   -3352.0123   -3243.0612    4076.2527    11675.293    71.016223 
    6670      1957.49   -3351.2434   -3242.1895    5093.8793    11684.195    71.316883 
    6680    1992.2129   -3352.3767   -3241.3883    4922.9321    11693.368    71.637053 
    6690    2001.3185    -3352.159   -3240.6633    4984.2798    11702.665    71.930844 
    6700    2037.3454   -3353.5588    -3240.056    5764.1624     11712.14    72.188127 
    6710    2053.8643   -3354.0059   -3239.5828    5939.2198    11722.078    72.467397 
    6720    2068.6442   -3354.5108   -3239.2643    5521.3212    11732.639    72.758758 
    6730    2071.9881   -3354.4993   -3239.0665    4720.3838    11743.731    73.002126 
    6740    1981.9948   -3349.3779   -3238.9588    5073.7279     11755.18    73.219995 
    6750    1913.5059   -3345.4689   -3238.8653    5348.6461    11767.131    73.455151 
    6760    1949.2493   -3347.3188    -3238.724    4054.0545    11779.735    73.679465 
    6770    1966.6348   -3348.0838   -3238.5203    1971.6635    11792.816    73.888991 
    6780    2022.1988    -3350.937   -3238.2781   -760.34288    11806.066    74.071681 
    6790    2068.2943   -3353.2962   -3238.0692   -1512.1551    11819.185    74.241592 
    6800    2084.5872   -3354.0795   -3237.9448   -717.87847    11832.134    74.452382 
    6810    2079.0529   -3353.7656   -3237.9392    318.82253    11845.027    74.739583 
    6820    2041.2761   -3351.7511   -3238.0293    1360.7531    11858.086    75.080158 
    6830    1979.3184   -3348.4266   -3238.1565    2382.3464    11871.461    75.401378 
    6840     1971.602   -3348.1135   -3238.2734    2298.6673    11885.237    75.689229 
    6850     1951.495    -3347.061    -3238.341    1969.3692    11899.388    76.017635 
    6860    1945.7787   -3346.7548   -3238.3533     1582.517    11913.791    76.380175 
    6870    1998.8956   -3349.6801   -3238.3194    940.76329     11928.47    76.661913 
    6880    2016.8666   -3350.6406   -3238.2787    710.00168    11943.462    76.857153 
    6890    2052.1459   -3352.5967   -3238.2694    474.87308    11958.802     77.08795 
    6900    2056.3586   -3352.8759   -3238.3138   -375.99711    11974.518     77.41178 
    6910    1995.0496   -3349.5383   -3238.3918   -1159.4519    11990.493    77.805893 
    6920    1996.3845   -3349.7049   -3238.4841   -1870.3772    12006.583    78.214413 
    6930    1915.7696   -3345.2676    -3238.538   -930.94103    12022.639    78.652305 
    6940    1920.9526   -3345.5703   -3238.5519   -703.10958    12038.688    79.160436 
    6950    1865.5335   -3342.3798   -3238.4489    109.79711    12054.819    79.694885 
    6960    1907.4027   -3344.4752   -3238.2116    -570.2403    12070.986    80.193865 
    6970    1962.2175   -3347.1117   -3237.7943   -1869.0223    12087.046    80.639058 
    6980    1993.6107   -3348.3251   -3237.2588   -2612.2096    12102.772    81.055526 
    6990    2008.4002   -3348.5005   -3236.6103   -3044.4847    12117.993     81.46072 
    7000    2018.7973   -3348.3713   -3235.9019   -2609.4404     12132.73    81.847466 
Loop time of 601.509 on 16 procs for 2000 steps with 432 atoms

Performance: 0.287 ns/day, 83.543 hours/ns, 3.325 timesteps/s
96.6% CPU use with 16 MPI tasks x 1 OpenMP threads

MPI task timing breakdown:
Section |  min time  |  avg time  |  max time  |%varavg| %total
---------------------------------------------------------------
Pair    | 258.86     | 437.31     | 585.89     | 479.1 | 72.70
Bond    | 0.00016284 | 0.00042422 | 0.0011375  |   0.0 |  0.00
Neigh   | 0.011366   | 0.013698   | 0.016579   |   1.3 |  0.00
Comm    | 15.372     | 154.12     | 333.02     | 778.3 | 25.62
Output  | 0.081969   | 0.08374    | 0.1094     |   2.3 |  0.01
Modify  | 0.13594    | 9.967      | 39.011     | 531.1 |  1.66
Other   |            | 0.009752   |            |       |  0.00

Nlocal:        27.0000 ave          32 max          21 min
Histogram: 4 0 1 1 1 1 0 2 3 3
Nghost:        328.438 ave         364 max         290 min
Histogram: 3 0 0 3 3 0 2 0 2 3
Neighs:         0.00000 ave           0 max           0 min
Histogram: 16 0 0 0 0 0 0 0 0 0
FullNghs:      956.125 ave        1281 max         680 min
Histogram: 3 3 0 0 2 2 2 0 2 2

Total # of neighbors = 15298
Ave neighs/atom = 35.412037
Ave special neighs/atom = 0.0000000
Neighbor list builds = 200
Dangerous builds = 200
Setting up Verlet run ...
  Unit style    : metal
  Current step  : 7000
  Time step     : 0.001
Per MPI rank memory allocation (min/avg/max) = 8.888 | 8.897 | 8.899 Mbytes
Step Temp PotEng TotEng Press Volume c_msd[4] 
    7000    2018.7973   -3348.3713   -3235.9019   -2609.4404     12132.73    81.847466 
    7010    2006.0192   -3347.6653   -3235.9078   -1434.1171     12132.59    82.056017 
    7020    1998.7674   -3347.2622   -3235.9086   -1508.4838    12132.231    82.295648 
    7030    2008.7187   -3347.8326   -3235.9246   -1939.4817     12131.69    82.564255 
    7040    1982.6851   -3346.4234   -3235.9658   -2546.8396    12130.762    82.804763 
    7050    1904.4107   -3342.0655   -3235.9686   -2475.9017    12129.283    82.992239 
    7060    1988.7795   -3346.7282    -3235.931   -3137.9904    12127.388    83.183209 
    7070    1965.8591   -3345.3591   -3235.8389    -2223.946    12125.182    83.441481 
    7080    1969.7354   -3345.4729   -3235.7367   -2245.5378    12122.693    83.708646 
    7090    1949.4278   -3344.1937   -3235.5889   -2867.0742     12119.84    83.898846 
    7100    1927.1572   -3342.7612   -3235.3971   -3578.0747    12116.463    83.986733 
    7110    1938.0272   -3343.0936   -3235.1239   -3847.4376     12112.46    84.024328 
    7120    1988.0673   -3345.5187   -3234.7612   -4147.3713    12107.814    84.096616 
    7130    1997.2833   -3345.6037   -3234.3328   -3691.8381     12102.45    84.202453 
    7140    2015.5635    -3346.149   -3233.8597   -2500.3175    12096.278    84.298428 
    7150    2008.0904   -3345.1925   -3233.3195   -1245.1299     12089.49    84.381208 
    7160    1954.4072   -3341.5925   -3232.7103   -691.77327    12082.543    84.502907 
    7170     1993.652   -3343.0596    -3231.991    -1376.715    12075.677    84.646916 
    7180    2086.7426   -3347.4062   -3231.1515   -1735.2261    12068.911    84.798156 
    7190    2064.5316   -3345.3057   -3230.2883   -262.71221     12062.27    84.990431 
    7200    2068.8018   -3344.7176   -3229.4624    414.45705    12055.847    85.186982 
    7210    2095.0341   -3345.3691   -3228.6524    1096.4495    12049.752    85.332829 
    7220    2118.9052    -3345.961   -3227.9145    1654.0787    12044.145    85.402659 
    7230    2122.7073   -3345.5616   -3227.3031    2280.3598    12038.993    85.488477 
    7240    2168.6045   -3347.6694    -3226.854    1851.9925    12034.165    85.663969 
    7250     2172.407   -3347.6328   -3226.6056     1062.425    12029.477    85.886637 
    7260    2123.6321   -3344.9179   -3226.6079     2585.076    12024.855     86.12081 
    7270    2078.3724   -3342.6005    -3226.812    3954.2935    12020.508     86.41225 
    7280    2065.8591   -3342.2886   -3227.1973    4327.0928    12016.708    86.747147 
    7290    2083.0274   -3343.8119   -3227.7641    2864.4674    12013.527    87.038974 
    7300     2126.288   -3347.0412   -3228.5833    1994.1726    12010.925    87.256651 
    7310    2109.2228   -3347.1933   -3229.6861    1836.6069    12009.017    87.401393 
    7320    2072.3825   -3346.4889   -3231.0341    1496.5886    12007.769    87.552096 
    7330    1971.1693   -3342.3245   -3232.5085    1546.3155    12007.019    87.751816 
    7340    1929.5604   -3341.4299   -3233.9319    721.54851    12006.772     87.93044 
    7350    1939.2044   -3343.2816   -3235.2464   -212.96071    12007.008    88.059357 
    7360    1994.4759   -3347.5859   -3236.4714    -1205.891    12007.577    88.177371 
    7370    2004.3733   -3349.2661   -3237.6003   -1661.5263    12008.198    88.338065 
    7380    2051.3362   -3352.9533   -3238.6711    -2456.141    12008.641    88.577738 
    7390    1993.1268   -3350.7218   -3239.6825   -1670.6121    12008.935    88.867342 
    7400    1985.6942   -3351.2325   -3240.6073   -1239.6855     12009.18    89.097029 
    7410    1926.3341   -3348.7299   -3241.4116   -705.15414    12009.424    89.223694 
    7420    1838.1692    -3344.461   -3242.0545   -205.44069    12009.738    89.305129 
    7430    1894.0983   -3348.0625   -3242.5402   -605.39363    12010.354     89.41257 
    7440    1963.4083   -3352.3229   -3242.9392   -80.113432    12011.358    89.587077 
    7450    1991.4013   -3354.2974   -3243.3541    -28.78294    12012.724    89.848736 
    7460    1953.3724   -3352.6075   -3243.7829    638.20904    12014.281    90.174425 
    7470    1926.5535   -3351.5479   -3244.2175    989.56054    12015.944    90.485541 
    7480     1919.971   -3351.6021   -3244.6383    734.87851    12017.764    90.757647 
    7490    1891.2425    -3350.375   -3245.0118    287.29389    12019.669    91.016011 
    7500     1986.158   -3356.0528   -3245.4017   -382.02968    12021.551    91.269181 
    7510     1953.649   -3354.6601   -3245.8201    148.93683    12023.408    91.521863 
    7520    1974.9336   -3356.3358     -3246.31    292.13082    12025.322    91.759252 
    7530    1979.2472   -3357.1058   -3246.8397     1152.699    12027.235    91.959295 
    7540    1908.6836     -3353.77   -3247.4351    2993.6219    12029.184     92.08805 
    7550    1850.1837   -3351.0764   -3248.0006    3637.7338    12031.341    92.169647 
    7560    1829.5599   -3350.4303   -3248.5035     2893.639    12033.799    92.204479 
    7570    1738.3818   -3345.7392    -3248.892    3631.4105    12036.643    92.233688 
    7580     1767.517   -3347.6115   -3249.1412    2645.3997    12039.976     92.27354 
    7590    1768.8122   -3347.7726   -3249.2301    1808.3805    12043.632    92.348311 
    7600    1768.6599   -3347.7165   -3249.1825     1500.916    12047.561    92.453892 
    7610     1840.977   -3351.5739    -3249.011    911.27376    12051.759     92.60097 
    7620    1895.2093   -3354.3474   -3248.7632    583.27665    12056.259    92.783709 
    7630    1936.1243   -3356.3587    -3248.495     -293.008    12061.034    92.963042 
    7640    1967.4187   -3357.8571     -3248.25   -842.58925    12065.947    93.105975 
    7650    1958.3612   -3357.1661   -3248.0636   -461.81463    12070.816    93.253239 
    7660    1942.8313      -3356.2   -3247.9627   -428.63313     12075.61    93.471213 
    7670    1902.7008   -3353.9141   -3247.9125   -518.06833    12080.306    93.733447 
    7680    1845.5286   -3350.6927   -3247.8762    16.856516    12084.949    94.015528 
    7690    1883.4394   -3352.7468   -3247.8183    344.90611    12089.773    94.291377 
    7700    1931.1329   -3355.3288   -3247.7432    515.43418      12094.8    94.598062 
    7710    1926.5081   -3355.0325   -3247.7045   -117.22761    12099.897    94.918987 
    7720     1940.387   -3355.8211   -3247.7199   -843.52833    12105.067    95.144969 
    7730    1911.6097   -3354.3217   -3247.8238   -804.97605    12110.429    95.217814 
    7740    1898.2848   -3353.7423   -3247.9868   -961.72193    12116.077    95.262201 
    7750    1936.2461   -3356.0945   -3248.2241    -835.8343    12121.968    95.305195 
    7760    1896.8566   -3354.2361   -3248.5601   -380.72909    12128.058    95.401543 
    7770    1863.7976   -3352.8306   -3248.9963   -1292.4418    12134.421     95.58901 
    7780     1832.568   -3351.5885   -3249.4941   -1612.9918    12141.032    95.820921 
    7790    1830.2018   -3351.9792   -3250.0166   -1522.2181    12147.796    96.063766 
    7800    1849.3098   -3353.5976   -3250.5704   -1190.4429    12154.517     96.28746 
    7810    1864.6744   -3355.0654   -3251.1823   -965.23043    12161.094    96.483149 
    7820     1905.898   -3358.0606   -3251.8809   -1857.3367    12167.469    96.628106 
    7830    1863.5328   -3356.5015    -3252.682   -2172.9847    12173.656    96.703892 
    7840    1782.2792   -3352.7906   -3253.4978   -1950.5581    12179.764    96.757529 
    7850    1817.0197   -3355.5108   -3254.2825   -2920.6861    12185.739    96.849744 
    7860    1873.6989   -3359.4537   -3255.0678     -4172.37    12191.455    96.999662 
    7870    1881.1503   -3360.7042   -3255.9033   -3718.0258    12196.848    97.157592 
    7880    1897.5105    -3362.499   -3256.7866   -2864.0847    12201.958    97.262382 
    7890    1882.4979   -3362.5809   -3257.7049   -2645.2835    12206.823    97.304279 
    7900    1858.3765   -3362.1748   -3258.6425   -2996.7309    12211.376    97.286273 
    7910    1768.3312   -3358.0265   -3259.5108   -3061.4414    12215.486    97.276813 
    7920    1746.6791   -3357.5468   -3260.2374   -3621.4624    12219.044    97.374161 
    7930    1752.8041   -3358.4802   -3260.8295   -3650.1373    12222.056    97.592646 
    7940    1765.3377   -3359.6591   -3261.3101   -3506.7687    12224.636    97.848079 
    7950    1762.0088   -3359.8611   -3261.6976   -3284.1713    12226.918     98.05112 
    7960    1757.8041   -3359.9185   -3261.9893   -3374.4567     12229.02    98.146008 
    7970    1743.6404   -3359.3226   -3262.1825   -3452.8414    12230.974    98.156359 
    7980    1715.3184    -3357.832   -3262.2697   -2862.2275    12232.767     98.15053 
    7990    1718.1314   -3357.9665   -3262.2474   -2013.1432     12234.42    98.148287 
    8000    1701.1419   -3356.8642   -3262.0917   -2612.9493     12235.86     98.14538 
    8010    1718.5073   -3357.5483   -3261.8083   -3345.9874    12236.798    98.166366 
    8020    1741.1292   -3358.4039   -3261.4036   -3850.7861    12237.105    98.238796 
    8030    1784.2281   -3360.3015   -3260.9001   -3447.9341    12237.022    98.318085 
    8040    1789.6017   -3360.0247   -3260.3239    -1942.195     12236.84    98.365454 
    8050    1807.7001   -3360.4177   -3259.7087   -1354.3163    12236.654    98.371325 
    8060    1811.3582   -3359.9601   -3259.0473   -1937.7862    12236.433     98.35853 
    8070    1841.9872   -3360.9994   -3258.3803   -2199.4144    12236.117     98.35664 
    8080    1832.1275   -3359.7855   -3257.7156   -868.03847    12235.703    98.426562 
    8090    1852.1899   -3360.2629   -3257.0753   -439.16238    12235.234    98.585491 
    8100    1839.9773   -3358.9606   -3256.4534   -414.78892    12234.665    98.749586 
    8110    1875.7963   -3360.3859   -3255.8832   -1483.0174    12233.993    98.836377 
    8120    1860.7305   -3359.0106   -3255.3472   -2223.4806    12233.197    98.812503 
    8130    1858.5475   -3358.4276   -3254.8859   -2871.6208    12232.112    98.746893 
    8140    1842.9942   -3357.1533    -3254.478    -3461.049    12230.586    98.760043 
    8150    1845.3405   -3356.9159   -3254.1099   -3554.6948    12228.471    98.855065 
    8160    1829.7803   -3355.7082   -3253.7691   -3372.1373    12225.697    98.988461 
    8170    1834.7952   -3355.6755    -3253.457   -3679.0786    12222.324    99.100721 
    8180    1854.3292   -3356.4717   -3253.1649   -4062.5978    12218.389     99.15234 
    8190    1906.3836   -3359.1209   -3252.9141   -4170.4928    12213.933    99.151231 
    8200    1875.5319   -3357.2369    -3252.749   -3641.7025    12209.009    99.079054 
    8210    1879.0208   -3357.3523   -3252.6699   -2571.5507    12203.725    98.933318 
    8220    1893.8886   -3358.1932   -3252.6825   -1981.9662    12198.277    98.802537 
    8230    1836.5978   -3355.1136   -3252.7947    -1394.178    12192.838    98.769501 
    8240    1836.2393   -3355.3288   -3253.0299   -2291.6234    12187.471    98.870981 
    8250    1775.1036   -3352.2768   -3253.3838   -3731.5024    12181.936    98.980149 
    8260    1766.6851   -3352.2819   -3253.8579   -4775.1405    12175.872    98.973527 
    8270    1777.9481   -3353.4941   -3254.4427   -4303.9547    12169.088    98.892999 
    8280    1868.2743   -3359.3145   -3255.2309   -4862.0252      12161.6    98.802957 
    8290    1826.6159   -3358.0101   -3256.2472   -4270.9186    12153.504    98.737729 
    8300    1805.4063   -3358.0406   -3257.4594   -3494.2196    12145.028    98.668203 
    8310     1736.762   -3355.5046   -3258.7477   -2046.9902    12136.188    98.591424 
    8320    1742.7442   -3357.1224   -3260.0322   -2514.6238    12126.968    98.544156 
    8330    1678.2225   -3354.7052   -3261.2095   -2469.0389     12117.39    98.496008 
    8340    1671.6161   -3355.3321   -3262.2045   -2537.7051    12107.575    98.441416 
    8350    1690.0928   -3357.1882   -3263.0312   -2985.4578    12097.747     98.42393 
    8360    1675.9099   -3357.0837   -3263.7168   -3379.9126    12088.017    98.422384 
    8370    1657.1435   -3356.5687   -3264.2473   -3036.4462    12078.441    98.370478 
    8380    1692.8731    -3358.971   -3264.6592   -2870.9255    12068.929    98.267571 
    8390    1712.0383   -3360.3484   -3264.9688   -2974.4784    12059.384    98.141481 
    8400    1767.1955   -3363.6997   -3265.2472   -3425.6369    12049.716    98.039866 
    8410     1745.181   -3362.7344   -3265.5084   -1867.3684    12039.786    97.961356 
    8420    1714.7799   -3361.2633    -3265.731     341.7518    12029.789    97.857988 
    8430    1766.8794   -3364.3386   -3265.9038    1698.5189    12020.189    97.709477 
    8440    1811.5952   -3367.0148   -3266.0888    1740.4319    12011.163    97.563895 
    8450    1755.9085   -3364.1532   -3266.3296    1964.0337    12002.605     97.51528 
    8460    1716.8965   -3362.2322   -3266.5819    1075.9611    11994.416    97.603821 
    8470     1744.405   -3363.9941   -3266.8114    86.047236    11986.429      97.7814 
    8480    1768.1964    -3365.571   -3267.0628   -110.06881     11978.49    97.985924 
    8490    1692.9067   -3361.6371   -3267.3234    742.15557    11970.484    98.142818 
    8500    1657.6711   -3359.8751   -3267.5244    1266.4546    11962.532    98.200308 
    8510     1711.243   -3362.9954   -3267.6601    351.44358    11954.815    98.194734 
    8520    1708.9425   -3362.9613   -3267.7542    612.28277    11947.287    98.137862 
    8530    1714.4244   -3363.3413   -3267.8288    1124.4915    11939.917    98.036341 
    8540    1678.1011   -3361.3717   -3267.8828    525.69931    11932.505     97.94432 
    8550    1611.0058   -3357.6146   -3267.8637    839.94529    11924.913     97.91181 
    8560    1672.1117   -3360.8904   -3267.7351     609.8857    11917.291    97.945925 
[...]
   24890    314.47363   -3473.2682   -3455.7485    1189.6157    10390.427    128.28496 
   24900     310.1203    -3473.216   -3455.9389    1023.0024    10388.267    128.13334 
   24910    306.36708   -3473.2377   -3456.1696     849.8486    10387.453    128.04772 
   24920    314.90174   -3473.9773   -3456.4337    816.47607    10387.555    128.05205 
   24930    311.74269   -3474.0858   -3456.7182    1086.0963    10388.352    128.14133 
   24940    295.92092   -3473.4751    -3456.989    1380.9519    10390.078    128.27395 
   24950    286.31536   -3473.1674   -3457.2165    1335.3817    10393.093    128.39217 
   24960    293.70168   -3473.7648   -3457.4024    822.99221    10397.329    128.46326 
   24970    293.91488   -3473.9289   -3457.5546    308.78261    10402.237    128.48926 
   24980    288.13771   -3473.7265    -3457.674   -54.582933    10407.199    128.48632 
   24990    296.04346    -3474.261   -3457.7681   -283.85078    10411.754    128.47235 
   25000    305.68355   -3474.8819   -3457.8519   -423.17184    10415.698    128.46059 
   25010    304.33653   -3474.8894   -3457.9345   -582.46709    10419.054    128.45268 
   25020    299.04668   -3474.6755   -3458.0153    -980.6568    10421.889    128.44432 
   25030    295.86608   -3474.5729   -3458.0899   -1635.4333    10424.119    128.43361 
   25040    293.39259   -3474.5017   -3458.1564   -2234.6807     10425.42    128.42164 
   25050    287.31441   -3474.2206    -3458.214   -2376.6973    10425.402     128.4029 
   25060    281.45564   -3473.9382    -3458.258   -2182.7006    10423.818    128.36028 
   25070    284.57281   -3474.1412   -3458.2873   -1839.2403    10420.473    128.28159 
   25080    286.71941   -3474.2751   -3458.3016   -1314.2681    10415.435     128.1756 
   25090    287.88623   -3474.3376   -3458.2991   -739.74823    10409.195    128.07271 
   25100    294.32715   -3474.6771   -3458.2798   -337.80421    10402.485    127.99766 
   25110    301.07624   -3475.0233     -3458.25  -0.77497947    10395.887    127.94809 
   25120    303.11271   -3475.1053   -3458.2185    28.124835    10389.691    127.90942 
   25130    298.38131   -3474.8126   -3458.1895   -104.18622    10383.943     127.8615 
   25140    292.75959   -3474.4683   -3458.1583    24.657906    10378.512    127.78625 
   25150    295.58144    -3474.586   -3458.1188    356.94367    10373.412    127.68789 
   25160    300.39409   -3474.8057   -3458.0704      744.282    10368.874    127.59341 
   25170     303.5468   -3474.9292   -3458.0182    963.39363    10365.217    127.53141 
   25180     307.8941   -3475.1211   -3457.9679    1045.3109    10362.669    127.50398 
   25190    306.26348   -3474.9865   -3457.9242    1182.2273    10361.266    127.48909 
   25200    296.50888    -3474.404   -3457.8851    1267.0324    10360.936    127.47394 
   25210    295.28983   -3474.2941   -3457.8432    1287.9636    10361.573    127.46336 
   25220    297.36871     -3474.36   -3457.7933    1462.1079    10363.039    127.46868 
   25230    289.64848   -3473.8716    -3457.735     1907.454    10365.271    127.50764 
   25240    286.17535   -3473.6066   -3457.6635    2163.6763     10368.43    127.58823 
   25250    298.66505   -3474.2114   -3457.5724    1758.6527    10372.673     127.6834 
   25260    311.41067   -3474.8144   -3457.4653    907.25348    10377.774    127.76191 
   25270    301.00617   -3474.1247   -3457.3553    335.53773    10383.214    127.82536 
   25280    283.43463    -3473.033   -3457.2425    17.664337    10388.619    127.89682 
   25290    285.61153   -3473.0215   -3457.1098    -490.0333     10393.77    127.99159 
   25300    300.19519   -3473.6734   -3456.9492   -852.36857    10398.313    128.11147 
   25310    303.51091   -3473.6848   -3456.7759   -867.05817    10401.982    128.24597 
   25320     297.8725   -3473.2011   -3456.6063   -561.92944    10404.801    128.36553 
   25330    296.01506   -3472.9321   -3456.4407   -65.110714    10407.003    128.44389 
   25340    304.77297    -3473.256   -3456.2768    370.40862    10408.826    128.48086 
   25350    312.85909   -3473.5521   -3456.1223    570.50693    10410.454    128.49844 
   25360    317.48805   -3473.6785   -3455.9909     518.3062    10412.109    128.50921 
   25370     317.1079   -3473.5554   -3455.8889    319.29517    10413.892    128.49788 
   25380    313.27133   -3473.2676   -3455.8149   -79.175667    10415.681     128.4549 
   25390    314.77972   -3473.2995   -3455.7628   -425.44289    10417.162    128.39506 
   25400    321.63288   -3473.6512   -3455.7326   -657.65779    10417.958    128.35029 
   25410    322.21468   -3473.6801   -3455.7291   -642.41636    10417.729    128.35198 
   25420    313.92982   -3473.2412   -3455.7518   -740.85763    10416.379     128.4091 
   25430    299.95419   -3472.4971   -3455.7863   -858.01376    10413.937    128.49555 
   25440    306.72803   -3472.9121   -3455.8239   -978.67318    10410.359    128.55948 
   25450    316.86665   -3473.5234   -3455.8704   -948.47957    10405.556    128.56108 
   25460    310.01047   -3473.2016   -3455.9306   -436.79721    10399.559    128.50116 
   25470     299.8398   -3472.6989   -3455.9945    232.54595    10392.712    128.41467 
   25480    298.13295   -3472.6579   -3456.0486    906.72968    10385.644    128.34119 
   25490    314.69931   -3473.6317   -3456.0995    1226.6516    10378.941    128.29803 
   25500    319.97151   -3473.9883   -3456.1624    1556.8043    10372.981    128.28854 
   25510    303.36972   -3473.1373   -3456.2362    1965.6814    10368.262    128.30808 
   25520    294.37878   -3472.7081   -3456.3079    1940.9389    10365.374    128.34143 
   25530    300.57133   -3473.1191    -3456.374    1455.6633    10364.527    128.36774 
   25540    310.52959   -3473.7409   -3456.4409      962.669    10365.368    128.37875 
   25550    312.90425   -3473.9476   -3456.5154    753.14387    10367.285    128.37993 
   25560    305.10445   -3473.5925   -3456.5947    752.53841    10369.708     128.3694 
   25570    301.18438   -3473.4492   -3456.6699    924.77273    10372.218    128.35413 
   25580    317.02293   -3474.4059   -3456.7442     686.3196    10374.655    128.35221 
   25590    323.79022   -3474.8696   -3456.8309    401.46412    10376.962     128.3694 
   25600     314.6671   -3474.4608   -3456.9303    554.99431    10379.285    128.40134 
   25610    315.13946   -3474.5918   -3457.0351    583.73928    10382.035     128.4352 
   25620    313.26665   -3474.5916   -3457.1392    571.54846    10385.255    128.45463 
   25630    309.40528   -3474.4762   -3457.2389    375.39218    10388.577    128.45425 
   25640    298.50254   -3473.9566   -3457.3266    231.24453    10391.603    128.44892 
   25650    292.29934   -3473.6788   -3457.3945   -185.33031    10394.094    128.45035 
   25660     298.9037   -3474.0967   -3457.4444   -713.37041    10395.703    128.45783 
   25670    305.55858   -3474.5096   -3457.4866   -1053.5179    10395.995     128.4693 
   25680    305.90427   -3474.5735   -3457.5312   -1101.8539    10394.582    128.48152 
   25690    293.04387   -3473.9024   -3457.5766   -859.67637    10391.297    128.48845 
   25700    280.33434    -3473.228   -3457.6103   -654.39597    10386.269    128.47886 
   25710    283.35233   -3473.4101   -3457.6242   -418.24476    10379.782    128.44071 
   25720    293.67499   -3473.9822   -3457.6213   -136.38859    10372.118    128.35913 
   25730    294.31497   -3474.0077   -3457.6111   -93.087165     10363.49    128.23524 
   25740    287.76408   -3473.6285   -3457.5968   -203.52194    10353.884    128.10291 
   25750    293.79744   -3473.9428    -3457.575   -149.07785    10343.221    128.00105 
   25760     302.6977   -3474.4092   -3457.5455    340.91077    10331.608    127.93142 
   25770     305.5303   -3474.5373   -3457.5159    908.11248    10319.307    127.85717 
   25780    298.12622   -3474.0929    -3457.484    1441.1336     10306.72    127.74788 
   25790    300.62537   -3474.1909   -3457.4427    1904.2382    10294.552    127.60994 
   25800     314.2631   -3474.9063   -3457.3983    2129.9822    10283.485    127.46773 
   25810    318.22078   -3475.0952   -3457.3668     2334.406    10273.858    127.33869 
   25820    312.20504   -3474.7485   -3457.3552    2611.1398    10265.916    127.24038 
   25830    310.47025   -3474.6583   -3457.3617    2558.4759    10259.904    127.18995 
   25840    314.81307   -3474.9255    -3457.387    2251.9912     10255.82    127.18255 
   25850    312.43904   -3474.8415   -3457.4351    2100.7167    10253.362    127.20083 
   25860    301.32932    -3474.286   -3457.4986    2108.6643     10252.23    127.23571 
   25870    305.49122    -3474.592   -3457.5728     1829.297    10252.307    127.28854 
   25880    303.95295   -3474.5932   -3457.6596    1987.7635     10253.44    127.34849 
   25890    286.38014   -3473.7065    -3457.752    2419.5194    10255.683    127.39445 
   25900    284.52507   -3473.6903   -3457.8391    2489.1775    10259.269     127.4316 
   25910    291.42189   -3474.1553   -3457.9199     2409.485    10264.219    127.48123 
   25920    294.57177   -3474.4071   -3457.9962    2414.6816    10270.275    127.54604 
   25930    303.53451    -3474.987   -3458.0767    2292.9011    10277.056    127.62736 
   25940    294.41314   -3474.5666   -3458.1645    2056.4348    10284.271    127.72595 
   25950    286.37596    -3474.206   -3458.2517    1766.0263    10291.703    127.82309 
   25960    294.76309   -3474.7569   -3458.3354    1182.7718    10299.048    127.89913 
   25970    298.10502     -3475.03   -3458.4222    737.77608    10305.831    127.94542 
   25980     296.1756   -3475.0192   -3458.5189    445.94255    10311.745    127.95638 
   25990    295.78796   -3475.1064   -3458.6277     134.1968    10316.714    127.93725 
   26000    290.72928   -3474.9438   -3458.7469   -140.05388    10320.779    127.91462 
   26010    286.32492   -3474.8218   -3458.8703   -225.17356    10323.924    127.92022 
   26020    289.85382   -3475.1452   -3458.9971   -39.079458    10326.113    127.96567 
   26030    288.94356   -3475.2249   -3459.1276    340.54336    10327.356    128.04142 
   26040    291.74337   -3475.5138   -3459.2605    631.18181    10327.746    128.12873 
   26050     296.8625   -3475.9391   -3459.4006    670.89247    10327.421    128.19751 
   26060    289.82814   -3475.6905   -3459.5438    643.04613    10326.546    128.22169 
   26070    288.26519   -3475.7434   -3459.6838     502.1154    10325.306    128.19796 
   26080    287.87875   -3475.8558   -3459.8178    263.53928     10323.74    128.14027 
   26090    283.21054   -3475.7186   -3459.9406    96.264491    10321.803    128.06959 
   26100     282.6212   -3475.7944   -3460.0493    16.901421     10319.56      128.011 
   26110    279.05078   -3475.6856   -3460.1393   -14.696744    10317.129    127.97983 
   26120    278.19413   -3475.7083   -3460.2098   -270.73336    10314.631    127.96035 
   26130    275.70892    -3475.618   -3460.2579   -424.55935    10312.063    127.92759 
   26140    278.66133   -3475.8086   -3460.2841   -582.74175    10309.365    127.88582 
   26150    280.25329   -3475.9028   -3460.2896   -555.28518     10306.31    127.85263 
   26160    277.45397   -3475.7314   -3460.2741   -386.14778    10302.674    127.83934 
   26170     279.8775   -3475.8272   -3460.2349   -90.750339    10298.371    127.85071 
   26180    280.53313   -3475.7967   -3460.1679    467.41637     10293.48    127.89096 
   26190    277.44819   -3475.5262   -3460.0693    1243.4527     10288.33    127.96102 
   26200    283.03779   -3475.7011   -3459.9327    1914.6077    10283.383    128.04588 
   26210    292.72041   -3476.0637   -3459.7559     2408.547    10279.098    128.11668 
   26220    292.26081   -3475.8306   -3459.5484    2730.6753    10275.922    128.15606 
   26230    290.35265   -3475.5002   -3459.3244    2710.2589    10274.048    128.16904 
   26240    292.73175   -3475.3977   -3459.0893    2363.7147    10273.236    128.16582 
   26250    294.79358   -3475.2797   -3458.8564     1967.502    10273.245    128.16474 
   26260    292.13085   -3474.9178   -3458.6429    1826.9541    10274.193    128.18814 
   26270    293.78994   -3474.8271   -3458.4597    1848.1027    10276.459     128.2364 
   26280    297.28054   -3474.8707   -3458.3089    1669.9262    10280.286    128.28854 
   26290    293.74467   -3474.5542   -3458.1893     1358.823    10285.475    128.32628 
   26300    292.99704   -3474.4159   -3458.0927    1083.9552    10291.586    128.35392 
   26310    300.42872   -3474.7484   -3458.0112    916.60675    10298.297    128.38476 
   26320    306.50774   -3475.0194   -3457.9435    1028.6439     10305.39    128.42008 
   26330    308.24533   -3475.0659   -3457.8932    1253.1384    10312.698    128.46337 
   26340    303.49624    -3474.767   -3457.8589    1414.5935     10320.25    128.53375 
   26350    302.36841    -3474.679   -3457.8337    1322.8952    10328.132    128.63698 
   26360    303.95008   -3474.7466   -3457.8132    1221.9677    10336.244    128.74491 
   26370    294.12568   -3474.1843   -3457.7982    1291.5533    10344.578    128.83441 
   26380    282.94756   -3473.5439   -3457.7806    946.96703    10353.426    128.91394 
   26390    293.98506   -3474.1271   -3457.7489    363.61649    10362.896    129.00112 
   26400    310.63224   -3475.0116   -3457.7059    -61.18144    10372.711     129.1116 
   26410    317.31493    -3475.345   -3457.6671   -439.73294    10382.432    129.25206 
   26420    315.49302   -3475.2201   -3457.6436   -788.88721    10391.581    129.41067 
   26430    307.17374   -3474.7484   -3457.6354   -1195.7624    10399.784    129.55903 
   26440    297.84434   -3474.2277   -3457.6344    -1533.524    10406.738    129.66615 
   26450    295.87187   -3474.1171   -3457.6337   -1686.3922    10412.246     129.7207 
   26460    297.55754   -3474.2076   -3457.6303   -1715.7963    10416.196    129.73687 
   26470    301.32918   -3474.4147   -3457.6273   -1571.5245    10418.461     129.7366 
   26480    303.24761   -3474.5227   -3457.6284   -1423.9228    10419.073    129.73293 
   26490    303.52707   -3474.5451   -3457.6353   -1268.3629    10418.193    129.72655 
   26500    305.46361   -3474.6667    -3457.649   -1133.6885    10416.014    129.71973 
   26510    298.54462   -3474.3009   -3457.6686   -638.81121    10412.726    129.72187 
   26520    287.52398   -3473.7019   -3457.6836    107.97988    10408.844    129.73129 
   26530    296.16125   -3474.1866   -3457.6872    468.90799    10405.029    129.73819 
   26540    311.76361   -3475.0576   -3457.6889    402.12947    10401.482    129.74943 
   26550    306.10839   -3474.7553   -3457.7017    391.68312    10397.857    129.78323 
   26560    296.49698   -3474.2418   -3457.7237    227.05975     10393.81    129.84374 
   26570    297.12152   -3474.2995   -3457.7465    48.918978    10389.145    129.90741 
   26580     301.0374   -3474.5396   -3457.7685    42.785912    10383.804    129.93563 
   26590    301.00583   -3474.5617   -3457.7924    515.81158     10377.99    129.90306 
   26600    285.35667   -3473.7095    -3457.812    1222.7691    10372.212       129.82 
   26610    281.47191   -3473.4999   -3457.8188    1517.7249    10366.902    129.72188 
   26620    289.49773   -3473.9357   -3457.8075    1431.8714    10362.155    129.64233 
   26630     302.0168    -3474.608   -3457.7823    1389.1991    10357.927    129.59473 
   26640    319.55853   -3475.5605   -3457.7576    1174.5974    10354.237    129.56022 
   26650    320.25625   -3475.5919     -3457.75    1286.1329    10351.071    129.51216 
   26660    315.60748   -3475.3498   -3457.7669    1370.9678    10348.439    129.44514 
   26670    321.85405   -3475.7404   -3457.8096    1190.3402    10346.156    129.37049 
   26680    326.28918   -3476.0653   -3457.8873    981.42413    10343.812     129.3063 
   26690    319.94696   -3475.8301   -3458.0055    843.83279    10341.208    129.26476 
   26700    309.98704   -3475.4264   -3458.1566    814.24201    10338.574    129.24864 
   26710    299.74926   -3475.0241   -3458.3247    622.22797    10336.333    129.25162 
   26720    297.98806   -3475.1016   -3458.5004    322.39702    10334.728     129.2619 
   26730    298.17746   -3475.2892   -3458.6774    197.14603    10333.765    129.27168 
   26740    302.06829   -3475.6823   -3458.8538    82.929139    10333.253     129.2792 
   26750    307.15484   -3476.1423   -3459.0304   -189.54772    10332.754    129.28226 
   26760     308.5449   -3476.3982   -3459.2088    -386.7132    10331.786     129.2844 
   26770    296.18684   -3475.8802   -3459.3793    -14.90464    10330.098    129.29829 
   26780    285.64097   -3475.4358   -3459.5224    464.54334    10327.859    129.33185 
   26790    296.68759   -3476.1696   -3459.6408    408.96157    10325.527    129.37801 
   26800    298.43292   -3476.3697   -3459.7437    84.291582    10323.522     129.4231 
   26810    290.17184   -3475.9973   -3459.8315    22.588091    10322.077    129.46286 
   26820    285.90679   -3475.8291    -3459.901    31.016995    10321.255    129.50766 
   26830    278.54998   -3475.4658   -3459.9474    135.00527    10320.867    129.56365 
   26840    284.65418   -3475.8294    -3459.971    112.19285    10320.531    129.60797 
   26850    291.79138   -3476.2351   -3459.9791    368.51478    10319.863    129.61997 
   26860    277.37053   -3475.4254   -3459.9728    1067.4893     10318.89    129.61142 
   26870    281.24331   -3475.6161   -3459.9477    1493.0387    10318.067    129.61884 
   26880    293.82079   -3476.2735   -3459.9045    1421.9911    10317.881    129.66537 
   26890    284.68013   -3475.7123   -3459.8524    1542.7458    10318.619    129.73489 
   26900    274.92937   -3475.1067   -3459.7901    1361.5486    10320.594    129.79102 
   26910    281.89704   -3475.4129   -3459.7081    679.25221    10323.928     129.8014 
   26920    291.03205   -3475.8187    -3459.605    252.00715    10328.318    129.75885 
   26930    291.72768   -3475.7419   -3459.4894    83.230505    10333.271    129.68289 
   26940    294.44669   -3475.7701   -3459.3662   -161.36001    10338.286    129.61171 
   26950    305.22624    -3476.242   -3459.2375   -558.03532    10342.747    129.58501 
   26960    311.00571   -3476.4425    -3459.116   -628.48976    10346.024    129.61446 
   26970    303.75247   -3475.9359   -3459.0135   -230.46242    10347.856    129.67418 
   26980    298.28724   -3475.5443   -3458.9263    91.162731    10348.558    129.73373 
   26990    300.52547   -3475.5881   -3458.8455    403.56485    10348.756    129.78635 
   27000     300.0966   -3475.4888   -3458.7701    814.62256    10349.003    129.84075 
Loop time of 2900.96 on 16 procs for 10000 steps with 432 atoms

Performance: 0.298 ns/day, 80.582 hours/ns, 3.447 timesteps/s
96.0% CPU use with 16 MPI tasks x 1 OpenMP threads

MPI task timing breakdown:
Section |  min time  |  avg time  |  max time  |%varavg| %total
---------------------------------------------------------------
Pair    | 847.26     | 2096.4     | 2834       |1248.6 | 72.27
Bond    | 0.00093174 | 0.0020696  | 0.0069056  |   3.1 |  0.00
Neigh   | 0.039297   | 0.069733   | 0.087602   |   4.8 |  0.00
Comm    | 65.431     | 783.08     | 1981.6     |1977.8 | 26.99
Output  | 0.67526    | 0.68478    | 0.82337    |   4.3 |  0.02
Modify  | 0.68989    | 20.634     | 71.375     | 647.1 |  0.71
Other   |            | 0.04237    |            |       |  0.00

Nlocal:        27.0000 ave          36 max          15 min
Histogram: 1 0 3 0 0 4 3 2 2 1
Nghost:        363.875 ave         444 max         296 min
Histogram: 3 0 1 1 6 1 0 2 1 1
Neighs:         0.00000 ave           0 max           0 min
Histogram: 16 0 0 0 0 0 0 0 0 0
FullNghs:      1156.12 ave        1772 max         464 min
Histogram: 1 2 0 2 0 3 4 2 0 2

Total # of neighbors = 18498
Ave neighs/atom = 42.819444
Ave special neighs/atom = 0.0000000
Neighbor list builds = 1000
Dangerous builds = 1000
System init for write_data ...
Total wall time: 2:14:08
