LAMMPS (29 Sep 2021 - Update 3)
OMP_NUM_THREADS environment is not set. Defaulting to 1 thread. (src/comm.cpp:98)
  using 1 OpenMP thread(s) per MPI task
Reading data file ...
  orthogonal box = (0.0000000 0.0000000 0.0000000) to (16.332282 16.332282 32.664564)
  1 by 2 by 4 MPI processor grid
  reading atoms ...
  432 atoms
Finding 1-2 1-3 1-4 neighbors ...
  special bond factors lj:    0        0        0       
  special bond factors coul:  0        0        0       
     0 = max # of 1-2 neighbors
     0 = max # of 1-3 neighbors
     0 = max # of 1-4 neighbors
     1 = max # of special neighbors
  special bonds CPU = 0.002 seconds
  read_data CPU = 0.024 seconds
Neighbor list info ...
  update every 1 steps, delay 10 steps, check yes
  max neighbors/atom: 2000, page size: 100000
  master list distance cutoff = 6.22
  ghost atom cutoff = 6.22
  binsize = 3.11, bins = 6 6 11
  1 neighbor lists, perpetual/occasional/extra = 1 0 0
  (1) pair quip, perpetual
      attributes: full, newton on
      pair build: full/bin
      stencil: full/bin/3d
      bin: standard
Setting up Verlet run ...
  Unit style    : metal
  Current step  : 0
  Time step     : 0.001
Per MPI rank memory allocation (min/avg/max) = 8.920 | 8.920 | 8.920 Mbytes
Step Temp PotEng TotEng Press Volume c_msd[4] 
       0          300   -3424.2407   -3407.5273   -3665.7637    8713.0583            0 
      10    387.30443   -3429.1233   -3407.5461   -3505.5156    8710.7577 0.0053705337 
      20    575.53531   -3439.8287   -3407.7649   -5021.2894    8703.8046  0.023408156 
      30    760.62731   -3451.1553   -3408.7799   -6889.6932    8690.4776  0.056571687 
      40    844.12332   -3457.9279   -3410.9008   -5980.0482     8668.793   0.10042696 
      50    839.63366   -3459.9211   -3413.1442   -3466.6126    8639.8326   0.14409769 
      60    766.94176   -3457.9111   -3415.1839   -1137.7433    8606.6855    0.1815167 
      70    655.67041   -3453.6275   -3417.0994    1437.9947    8572.4405   0.21286973 
      80    577.09972    -3450.863   -3418.7121    4480.0384    8540.3287   0.23923651 
      90      580.226   -3452.4761    -3420.151    8400.0415    8514.1064   0.26087888 
     100     599.1853    -3455.054   -3421.6727    12745.452    8498.3749    0.2775392 
     110    613.67236   -3457.5887   -3423.4003    14949.339     8497.943   0.28596352 
     120    633.71559   -3460.7164   -3425.4114    13051.787     8515.104   0.28519201 
     130     612.4506   -3461.6694   -3427.5491    8992.2708    8547.7418   0.28054381 
     140    582.48804   -3462.0088   -3429.5577    4633.0873     8591.086   0.27595096 
     150    563.71722   -3462.7791   -3431.3738    778.18444    8639.7425    0.2730419 
     160    544.68401   -3463.3617   -3433.0167   -2329.8337    8688.7664   0.27318452 
     170     521.7421   -3463.5687   -3434.5018   -4874.8338    8734.0507   0.27739449 
     180    509.49464   -3464.2574   -3435.8729   -6495.7288    8772.2606    0.2860666 
     190     501.7798   -3465.1876   -3437.2328   -6729.8511    8801.3669   0.29982781 
     200    474.42969   -3464.9957   -3438.5647   -6082.5427    8821.1472    0.3177395 
     210    458.80359   -3465.3946   -3439.8341    -5889.042    8832.4736   0.33507508 
     220    451.58044   -3466.2234   -3441.0654   -6125.7182    8835.8383   0.34844255 
     230    447.92458   -3467.2424    -3442.288   -6616.7861    8831.1923   0.35765001 
     240    437.80308   -3467.9069   -3443.5164     -6634.74      8818.29    0.3648654 
     250    426.35933   -3468.4802   -3444.7272    -5708.153    8797.4992   0.37210176 
     260    416.36021   -3469.0871   -3445.8912   -4098.4943    8770.3482   0.37994146 
     270    416.50073   -3470.2077    -3447.004   -2490.2448     8739.118   0.38765174 
     280     413.7773   -3471.1285   -3448.0765   -877.85713     8706.104   0.39468222 
     290    408.20437   -3471.8385    -3449.097    900.79346    8673.5099    0.4004782 
     300    398.55965   -3472.2586   -3450.0544    2448.4465    8643.5059   0.40416563 
     310    395.10147    -3472.973   -3450.9614    3290.5986    8617.8278   0.40539554 
     320    394.85562   -3473.8556   -3451.8577      3637.43    8597.3002   0.40529321 
     330    388.76867   -3474.4029   -3452.7441    3934.8366    8582.1415   0.40512118 
     340    390.58918   -3475.3861   -3453.6259     3689.096     8572.371   0.40500288 
     350    391.53263   -3476.3296   -3454.5169    3096.8202    8567.4534   0.40526656 
     360    380.19767   -3476.5805   -3455.3993    2984.9335     8566.533   0.40666486 
     370    358.62188   -3476.2084   -3456.2291    3149.9273     8569.262    0.4087715 
     380    344.77559   -3476.1974   -3456.9896    2809.4727    8575.6136   0.40946027 
     390    344.49184    -3476.899   -3457.7069    1670.3791         8585   0.40769107 
     400    343.66987   -3477.5463   -3458.4001    421.57629    8596.0382   0.40489684 
     410     340.8988   -3478.0574   -3459.0655   -1157.6072    8607.1429   0.40271407 
     420    339.21255   -3478.6012   -3459.7033   -2903.6901    8616.3961   0.40179709 
     430    332.31876   -3478.8341   -3460.3203   -3561.4092    8621.9066   0.40263592 
     440    323.63793   -3478.9459   -3460.9156   -3530.4892    8622.9524    0.4048476 
     450     316.5298   -3479.1245   -3461.4903    -3155.189    8619.7005   0.40720071 
     460    311.06342     -3479.37   -3462.0403   -2961.9159    8612.6742   0.40841115 
     470    313.09294   -3480.0148    -3462.572   -2844.8497    8602.2464   0.40785193 
     480    311.77842   -3480.4571   -3463.0876   -2455.7452    8588.7094    0.4063147 
     490    299.31775   -3480.2364    -3463.561    -1344.474    8572.7113   0.40493387 
     500    291.42078   -3480.2087   -3463.9733   -57.200032    8555.6169    0.4034476 
     510    295.16627   -3480.7861   -3464.3421    943.75346    8538.9691   0.40120722 
     520    301.92462   -3481.5091   -3464.6885    1677.9645    8523.9559   0.39830558 
     530    302.98658   -3481.9019   -3465.0221    2018.4829    8511.3706   0.39476593 
     540    297.65928   -3481.9268   -3465.3438    1814.7478    8501.5145   0.39029267 
     550    295.50388   -3482.1169    -3465.654     1205.645    8494.0431   0.38516909 
     560    300.93907   -3482.7272   -3465.9615    791.62816     8488.225   0.38046421 
     570    302.78482   -3483.1378   -3466.2693    1007.5602    8483.5725   0.37725229 
     580     296.5237   -3483.0883   -3466.5687    1875.2141    8480.3023   0.37557813 
     590    287.57521   -3482.8664   -3466.8452    2751.8302    8479.3384   0.37425277 
     600    287.94738   -3483.1447   -3467.1028    2833.1832    8481.5897   0.37214197 
     610    289.06938   -3483.4541   -3467.3498    2021.0054    8487.0809    0.3698668 
     620    280.15511   -3483.1836   -3467.5759    895.08845    8494.8493   0.36861024 
     630    275.81397   -3483.1342   -3467.7682    -144.7757    8503.5643   0.36863327 
     640    283.14391   -3483.7058   -3467.9315   -961.40469    8511.9753   0.37005036 
     650    287.64469   -3484.1036   -3468.0785   -1058.2294    8519.1644   0.37354248 
     660    278.83285   -3483.7449   -3468.2108   -486.35016    8525.0212    0.3790974 
     670    271.81468   -3483.4632   -3468.3201    382.27018    8530.2255   0.38546751 
     680    272.88856   -3483.6078   -3468.4048    1269.4883     8535.828   0.39190315 
     690    267.19308   -3483.3492   -3468.4636     1717.576    8542.8413   0.39819285 
     700    270.68164   -3483.5749   -3468.4949    953.20773    8551.6932   0.40328175 
     710    281.04681   -3484.1524    -3468.495   -479.20641    8561.5125   0.40736469 
     720    278.73477   -3483.9962   -3468.4676   -1375.7871    8570.6965   0.41138553 
     730    274.30141   -3483.6995   -3468.4178   -1570.0129    8578.1734   0.41527977 
     740    278.06841   -3483.8352   -3468.3437   -1541.3708    8583.6558   0.41923548 
     750    282.89506   -3484.0071   -3468.2467   -1332.1303    8587.2062   0.42424982 
     760    286.68689   -3484.1052   -3468.1335   -936.71762    8589.1074   0.43127861 
     770    286.94261   -3483.9931   -3468.0072    -177.4041    8589.8784   0.44056191 
     780    285.31953   -3483.7643   -3467.8688    784.53211    8590.4525   0.45106218 
     790    283.73884   -3483.5276   -3467.7202    1647.2795    8591.9867   0.46129931 
     800    280.86148    -3483.211   -3467.5639    2036.2371    8595.4833   0.47043451 
     810    277.90408    -3482.879   -3467.3966    1833.1104    8601.3936   0.47825322 
     820    274.78728    -3482.516   -3467.2073    1240.1415    8609.4636   0.48483533 
     830     279.0413   -3482.5294   -3466.9836    154.80677    8618.9094   0.49072829 
     840    291.80901   -3482.9743   -3466.7173   -1036.1772    8628.4251   0.49726733 
     850    301.10444   -3483.1994   -3466.4246   -1868.8099    8636.5706   0.50559523 
     860    306.03953   -3483.1835   -3466.1337   -1938.5461    8642.3727   0.51551726 
     870    310.18103   -3483.1378   -3465.8573    -1474.475    8645.7586   0.52619324 
     880    312.33038   -3482.9976   -3465.5973   -1121.8546    8647.2516   0.53736013 
     890    311.55138   -3482.7139   -3465.3571   -361.14915    8647.3884   0.54971222 
     900    307.01402   -3482.2412   -3465.1371    1185.9976     8647.168   0.56319334 
     910    301.71242   -3481.7425   -3464.9338    2901.7891    8648.4656   0.57553116 
     920     306.5816   -3481.8243   -3464.7442     3362.358    8653.2215   0.58410359 
     930    313.88353   -3482.0543   -3464.5675    2527.1514    8661.9753   0.58857613 
     940    328.53394   -3482.7084   -3464.4054    1119.1833      8673.73   0.59024132 
     950    338.66506   -3483.1363   -3464.2689    43.094389    8686.7917   0.59192932 
     960    320.43939   -3482.0282   -3464.1762   -219.61821    8699.8718   0.59578006 
     970    306.60907   -3481.1985    -3464.117   -464.55623    8712.5262   0.60043764 
     980    307.90862    -3481.216   -3464.0621   -952.56094    8724.4238   0.60406373 
     990    318.92629   -3481.7733   -3464.0056   -1792.6647    8734.9474   0.60652728 
    1000    334.89784   -3482.6226   -3463.9651   -2347.4329    8743.1163   0.60970429 
    1010    334.35963   -3482.5934   -3463.9658   -1939.1327    8748.3164   0.61568279 
    1020    320.16656   -3481.8488    -3464.012   -1187.3624    8751.0189   0.62382606 
    1030     312.4409   -3481.4927   -3464.0863   -914.81049    8752.1321   0.63210123 
    1040    317.68768   -3481.8766   -3464.1779   -1322.9244    8751.9973   0.63969673 
    1050    321.49553   -3482.2009     -3464.29   -1232.6457     8750.242   0.64727797 
    1060    311.56742   -3481.7792   -3464.4214   -172.75789    8747.0655   0.65537242 
    1070    305.42225   -3481.5749   -3464.5595    482.91265    8743.6812   0.66247674 
    1080     317.4538   -3482.3962   -3464.7105   -105.23145    8740.8202   0.66721948 
    1090     322.9612   -3482.8799   -3464.8874   -567.57987    8737.9009   0.67100774 
    1100    311.87022    -3482.462   -3465.0874   -482.04714    8734.3595   0.67585584 
    1110    296.38186   -3481.8013   -3465.2895    -108.2054    8730.2807   0.68247021 
    1120    294.37172   -3481.8813   -3465.4815    302.85416    8726.1154    0.6902784 
    1130    301.82292   -3482.4823   -3465.6674    750.53614    8722.3845   0.69834958 
    1140    307.19543   -3482.9689   -3465.8547    1430.0152    8719.6832   0.70591352 
    1150    313.37958   -3483.5106   -3466.0518    1822.6799      8718.79   0.71267576 
    1160    313.39148   -3483.7264    -3466.267    1979.2114    8720.1899   0.71886802 
    1170    298.74589   -3483.1363   -3466.4928    2103.7488    8724.0838   0.72422481 
    1180    286.49745   -3482.6725   -3466.7114    1589.9255    8730.5338   0.72768952 
    1190    285.11123    -3482.793   -3466.9091    731.94447    8738.9287   0.72904859 
    1200     288.7145    -3483.166   -3467.0814    -35.57597    8748.2015    0.7298922 
    1210     293.4376   -3483.5826   -3467.2349   -593.50279    8757.3723   0.73231825 
    1220    293.38126    -3483.722   -3467.3774   -882.43735    8765.7357   0.73628583 
    1230    287.10793    -3483.504   -3467.5089   -1086.3288    8772.8966   0.74017399 
    1240    286.05884    -3483.562   -3467.6254   -1370.3529    8778.5887   0.74345799 
    1250    287.40122   -3483.7413   -3467.7298   -1663.3203    8782.4716   0.74710977 
    1260    281.98529   -3483.5324   -3467.8227   -1776.4361    8784.2105   0.75189708 
    1270    279.06045   -3483.4494   -3467.9027   -1703.0751    8783.6791   0.75829077 
    1280    281.28438   -3483.6384   -3467.9677   -1460.8415    8780.9704    0.7669201 
    1290    292.06726   -3484.2919   -3468.0205   -1252.3631    8776.3979   0.77740255 
    1300    301.15241   -3484.8448   -3468.0672   -1212.5091    8770.2444   0.78850554 
    1310     305.3105   -3485.1229   -3468.1137    -1037.361    8762.6226   0.79886055 
    1320    307.38498   -3485.2863   -3468.1616   -657.05542    8753.7777   0.80753375 
    1330       304.23   -3485.1616   -3468.2126    106.79142    8744.2281    0.8150448 
    1340    289.83011   -3484.4059   -3468.2592    1216.8174    8734.9703    0.8237989 
    1350    282.50989   -3484.0313   -3468.2923    1935.5817    8727.3175   0.83522125 
    1360     285.8188   -3484.2344   -3468.3111    2436.1076    8722.1766    0.8488303 
    1370    282.83541    -3484.071   -3468.3139    2795.9355    8720.1725   0.86360035 
    1380    285.36283    -3484.199   -3468.3011    2080.4586    8721.6061    0.8786583 
    1390    298.19741   -3484.8866   -3468.2737    822.76397    8725.5968   0.89420724 
    1400    303.65569   -3485.1554   -3468.2384    350.14286    8730.6723   0.91131478 
    1410    302.51323   -3485.0601   -3468.2068     783.3509    8736.2423   0.93046678 
    1420    297.84236   -3484.7743   -3468.1811    1145.1737    8742.7302   0.95181852 
    1430    290.69356   -3484.3488    -3468.154    1083.4688    8750.5452   0.97463483 
    1440    290.74199   -3484.3143   -3468.1167     786.4582    8759.6072   0.99718503 
    1450    291.82434   -3484.3211   -3468.0632    509.54368    8769.5498    1.0187774 
    1460    287.85369   -3484.0307    -3467.994    460.31741    8780.0428    1.0402489 
    1470    286.17798   -3483.8548   -3467.9115     504.4818    8791.0008    1.0627944 
    1480    295.72306   -3484.2907   -3467.8156    311.37569    8802.4297    1.0868341 
    1490    305.92271   -3484.7547   -3467.7114    127.48183    8814.1016    1.1120289 
    1500    302.86006   -3484.4862   -3467.6135    304.13123    8825.8209    1.1372973 
    1510    301.75981   -3484.3406   -3467.5292    71.960432    8837.7286    1.1607639 
    1520    299.72707   -3484.1491    -3467.451   -734.49367    8849.5044    1.1818409 
    1530    291.40279   -3483.6069   -3467.3726   -1590.9842     8860.153    1.2011672 
    1540    289.32525   -3483.4049   -3467.2862   -2210.9724    8868.6083    1.2196874 
    1550    296.17766   -3483.6915   -3467.1911   -2545.5946    8874.0783    1.2379432 
    1560     298.8959   -3483.7444   -3467.0926   -2284.5098    8876.2077    1.2556806 
    1570    302.24223   -3483.8339   -3466.9956    -1540.551    8875.3599    1.2722836 
    1580    300.33882   -3483.6304   -3466.8982   -502.17563     8872.529    1.2877059 
    1590    296.28631   -3483.3011   -3466.7946    705.30875    8869.1142    1.3020329 
    1600    297.07908   -3483.2307   -3466.6801     1654.163    8866.6395     1.316933 
    1610    299.33873   -3483.2383   -3466.5618    2381.8897    8866.3529    1.3359182 
    1620    294.54026   -3482.8586   -3466.4494    2644.3113    8869.1349    1.3605151 
    1630    296.38979   -3482.8513   -3466.3391    2149.0255    8875.2275    1.3877781 
    1640     308.7236    -3483.421   -3466.2217    1346.8769    8883.9861    1.4143407 
    1650    308.34713   -3483.2827   -3466.1043    961.17152    8894.4083    1.4397286 
    1660    304.19856   -3482.9447   -3465.9975    746.25767    8905.9367    1.4652879 
    1670    306.29037   -3482.9594   -3465.8956    431.55909    8918.2295    1.4936726 
    1680    305.87841   -3482.8376   -3465.7968     174.2272     8930.873    1.5265276 
    1690     300.7181   -3482.4565   -3465.7032   -109.10489    8943.5142    1.5629409 
    1700    307.80126   -3482.7604   -3465.6125   -914.95908    8955.7193    1.6003796 
    1710    317.81736   -3483.2286   -3465.5227   -2024.5269     8966.442    1.6360634 
    1720    314.41145   -3482.9624   -3465.4462   -2288.8656     8974.391    1.6664939 
    1730    310.57382   -3482.6919   -3465.3895   -2182.8056    8979.1716    1.6882497 
    1740    307.30988   -3482.4723   -3465.3517    -2221.723    8980.9195    1.7014394 
    1750    303.31236   -3482.2289    -3465.331   -2332.8069    8979.6713     1.709204 
    1760    308.17583   -3482.4945   -3465.3257   -2201.9827    8975.3729    1.7145368 
    1770    304.51844   -3482.2939   -3465.3288   -1699.1048    8968.2593     1.720144 
    1780    298.79677   -3481.9775   -3465.3312   -741.44665    8959.0822     1.727074 
    1790    304.93083   -3482.3139   -3465.3259    278.64323    8949.1233    1.7351394 
    1800    319.07896   -3483.0962   -3465.3199    699.57364    8939.6824    1.7435174 
    1810    324.45356     -3483.41   -3465.3343    487.91333     8931.289    1.7501944 
    1820    318.90715   -3483.1455   -3465.3788    504.72884    8923.7437    1.7528637 
    1830    317.76408   -3483.1519   -3465.4489     908.8717    8917.0556    1.7510987 
    1840     317.8174   -3483.2487   -3465.5427    1516.1686    8911.7226    1.7464959 
    1850    310.06041   -3482.9294   -3465.6555    1867.1414    8908.4625    1.7409606 
    1860    307.58441    -3482.918   -3465.7821    1865.4893    8907.6838     1.736662 
    1870    306.99004   -3483.0219   -3465.9192     1901.674    8909.3966    1.7374215 
    1880    303.73876   -3482.9855   -3466.0638    2089.9779    8913.6203    1.7460627 
    1890    304.86223   -3483.1979   -3466.2137    2174.7683    8920.5217    1.7619716 
    1900    308.06781   -3483.5349   -3466.3721    1867.2559    8930.1438    1.7815201 
    1910    309.24866   -3483.7659   -3466.5373    1070.6263    8942.0456    1.7995804 
    1920    318.03636    -3484.425   -3466.7068   -445.28227     8955.091    1.8119137 
    1930     323.2935   -3484.8998   -3466.8887   -1798.8026    8967.3664    1.8180882 
    1940    307.83664   -3484.2344   -3467.0845   -2112.3088    8977.1787    1.8198001 
    1950    290.48545   -3483.4619   -3467.2787   -1759.2282    8984.0962    1.8182561 
    1960    291.22019   -3483.6877   -3467.4635   -2073.2773     8988.464    1.8142583 
    1970     294.9962   -3484.0801   -3467.6455     -2780.43    8989.9354    1.8072397 
    1980    286.54152    -3483.785   -3467.8215   -2806.0929    8987.7413    1.7950759 
    1990    283.19953   -3483.7597   -3467.9823   -2472.3902    8981.8659    1.7767452 
    2000    289.80491   -3484.2739   -3468.1285   -2271.1386    8972.7571    1.7537803 
    2010    292.00165   -3484.5337    -3468.266   -1693.3893    8960.8236    1.7290679 
    2020    279.79112   -3483.9707   -3468.3833   -496.53667    8946.9293    1.7047279 
    2030    282.39743   -3484.2024   -3468.4698    289.78016    8932.5677    1.6818296 
    2040    299.17428    -3485.206   -3468.5387    387.02348    8918.7745    1.6629094 
    2050    303.49591   -3485.5117   -3468.6036    588.94157    8905.7585    1.6500886 
    2060     304.9195   -3485.6585   -3468.6711    1191.3565    8893.7828    1.6410002 
    2070    299.37987   -3485.4187   -3468.7399    1926.0603    8883.5908    1.6315042 
    2080    293.87161   -3485.1806   -3468.8086    2385.2014    8876.0621    1.6196654 
    2090    291.35495   -3485.1058   -3468.8741    2310.1802    8871.7278    1.6071549 
    2100    294.92724   -3485.3706   -3468.9398    1835.8564    8870.4466    1.5978296 
    2110    292.10127   -3485.2795   -3469.0062    1275.6491    8871.5779    1.5946718 
    2120    288.48964   -3485.1379   -3469.0659    470.94066     8874.337    1.5970056 
    2130    292.35841   -3485.3997   -3469.1121   -303.65652    8877.6894     1.602791 
    2140    287.73498   -3485.1743   -3469.1442   -394.45407    8880.6796     1.611798 
    2150    277.48116   -3484.6166   -3469.1578    245.62281    8883.2035    1.6230382 
    2160     281.6642   -3484.8397   -3469.1478    454.31791    8885.9659    1.6342295 
    2170    285.29502   -3485.0102   -3469.1161    162.25185    8889.2286    1.6446817 
    2180    282.61127    -3484.813   -3469.0684   -99.541573    8892.6679    1.6546947 
    2190    285.00414   -3484.8822   -3469.0043   -349.90281    8895.9364    1.6651362 
    2200    290.27874   -3485.0969   -3468.9252   -318.10855    8898.7343    1.6774201 
    2210    288.30286   -3484.8983   -3468.8366    228.21232    8901.1459    1.6916656 
    2220    282.31784   -3484.4677   -3468.7395    706.15504    8903.8183    1.7050828 
    2230    277.39675   -3484.0816   -3468.6275    666.72775    8907.3444    1.7143661 
    2240    286.73073   -3484.4651    -3468.491    -275.9185    8911.6011    1.7191343 
    2250    301.20144   -3485.1123    -3468.332    -1499.702    8915.4162    1.7222069 
    2260     300.0154   -3484.8855   -3468.1713   -2171.7585    8917.2606    1.7262157 
    2270    294.93271   -3484.4526   -3468.0215   -1809.2581    8916.3315    1.7309375 
    2280    306.42772   -3484.9451   -3467.8737   -993.53969     8913.079    1.7350082 
    2290    314.25655   -3485.2313   -3467.7237   -58.278048    8908.5814    1.7386258 
    2300    304.46116    -3484.544   -3467.5822    929.38956    8904.0869     1.742576 
    2310    303.50257   -3484.3562   -3467.4477    1355.5606    8900.8287    1.7473759 
    2320     311.5243   -3484.6709   -3467.3156    991.01486    8899.3079     1.755519 
    2330    301.17042   -3483.9705   -3467.1919    972.56536    8899.1762    1.7692349 
    2340    289.87233   -3483.2273   -3467.0782     1282.785    8900.3745    1.7873882 
    2350    295.85693   -3483.4465    -3466.964    1509.8414    8903.2326    1.8072131 
    2360    302.58323   -3483.7028   -3466.8456    2067.0828    8908.1016    1.8264524 
    2370    307.97375   -3483.8893   -3466.7318       2681.2    8915.6611    1.8441209 
    2380    314.92565   -3484.1737   -3466.6288     2533.838    8926.5792     1.862431 
    2390    317.28103   -3484.2155   -3466.5395    2074.9506    8940.6981    1.8858872 
    2400    309.55473   -3483.7135   -3466.4679      1534.89    8957.4001    1.9157567 
    2410     308.1882   -3483.5786   -3466.4091    526.83584    8975.8944    1.9496042 
    2420    316.81672   -3484.0025   -3466.3522   -836.85739    8994.8176    1.9859984 
    2430    318.15777   -3484.0262   -3466.3013   -1900.7329    9012.4044     2.024377 
    2440    307.93925   -3483.4204   -3466.2648   -2462.0123    9027.2417      2.06138 
    2450    300.42171   -3482.9774   -3466.2405   -2647.7294    9038.5893    2.0934638 
    2460    298.13526   -3482.8326   -3466.2232   -2758.3473    9046.1995     2.120521 
    2470    300.66636   -3482.9621   -3466.2116   -2610.0502    9049.9878    2.1448053 
    2480    307.36094   -3483.3323   -3466.2089   -2257.3003    9050.1831    2.1684184 
    2490    306.50657   -3483.2947   -3466.2189   -1885.2579    9047.3093    2.1912537 
    2500     304.6094   -3483.2124   -3466.2423   -1366.0731    9041.9521    2.2118145 
    2510    311.58277   -3483.6319   -3466.2733   -779.45763    9034.8417    2.2288193 
    2520     318.3242   -3484.0431   -3466.3089    90.197798     9026.847    2.2418354 
    2530     318.0181   -3484.0649   -3466.3477    688.22104     9019.082    2.2522235 
    2540    318.55309   -3484.1435   -3466.3966    790.46218    9012.3228    2.2623588 
    2550    311.98062   -3483.8437   -3466.4629    756.66541    9006.7317    2.2733006 
    2560    307.46129   -3483.6751   -3466.5461    844.74187    9002.2926    2.2837533 
    2570    313.33972   -3484.1007   -3466.6442    1015.8768    8999.0904    2.2934967 
    2580    310.87163   -3484.0782   -3466.7591    1502.0474    8997.3489    2.3047244 
    2590    305.88902   -3483.9277   -3466.8863    1890.2133     8997.648    2.3177578 
    2600    311.72804   -3484.3949   -3467.0282    1449.7262    9000.3814    2.3313453 
    2610    308.96336   -3484.3968   -3467.1841    1088.4665    9005.0478    2.3460392 
    2620    300.86504   -3484.1086    -3467.347    932.56012    9011.1217    2.3620439 
    2630      296.233   -3484.0097   -3467.5062    508.74828    9018.3235     2.378121 
    2640    307.94987   -3484.8203   -3467.6641   -148.26875    9026.0688     2.393016 
    2650    315.48475    -3485.409    -3467.833   -528.58793    9033.5284    2.4083232 
    2660    302.79366   -3484.8796   -3468.0106   -441.80141    9040.2269    2.4263456 
    2670    290.69503   -3484.3754   -3468.1805   -244.41483    9046.2416    2.4467434 
    2680    293.64824   -3484.6992   -3468.3397   -273.43198     9051.814    2.4682948 
    2690    291.72991   -3484.7417   -3468.4891     -436.331    9056.9246    2.4914928 
    2700    289.56574   -3484.7568   -3468.6248   -791.01257    9061.3515    2.5155603 
    2710    298.86351   -3485.4014   -3468.7513   -1505.3602    9064.5889    2.5379288 
    2720    305.75829   -3485.9141   -3468.8799   -1975.9703    9065.7728    2.5577187 
    2730    301.82676   -3485.8318   -3469.0167   -2021.6956    9064.2877    2.5765975 
    2740    298.43406    -3485.784   -3469.1579   -1623.7621    9060.1122     2.595437 
    2750    299.44628   -3485.9825   -3469.3001   -819.75259    9053.8326    2.6132596 
    2760    289.80487   -3485.5764   -3469.4311    291.02492    9046.5741    2.6293808 
    2770    282.47371   -3485.2752   -3469.5383    754.20496    9039.7415    2.6422318 
    2780    286.43185    -3485.583   -3469.6255    497.51919     9033.945    2.6505827 
    2790    289.68573   -3485.8374   -3469.6987    662.15412    9028.9549    2.6574028 
    2800    291.89968   -3486.0238   -3469.7618    1412.6226     9025.014    2.6683199 
    2810    293.85131   -3486.1874   -3469.8167    1640.0674    9022.9931    2.6871443 
    2820      304.817   -3486.8531   -3469.8714    915.62344    9023.1088    2.7132698 
    2830    304.24979   -3486.8834   -3469.9333    334.78736    9024.4888    2.7435223 
    2840    288.53556   -3486.0686   -3469.9939    550.57282    9026.4116    2.7728667 
    2850    292.27847   -3486.3278   -3470.0446    439.01972    9029.0145    2.7957888 
    2860    301.23949   -3486.8705   -3470.0881   -41.572211    9032.1339    2.8117357 
    2870    295.88033    -3486.614   -3470.1301    13.793861    9035.2252    2.8238383 
    2880     293.0637   -3486.4951   -3470.1682     323.9193    9038.3281    2.8348203 
    2890    295.45855   -3486.6608   -3470.2005    340.29562    9041.7931     2.847015 
    2900    288.37909   -3486.2918   -3470.2259    -26.74323    9045.6457    2.8625396 
    2910    283.88234   -3486.0544    -3470.239    -995.3423    9049.3524    2.8820631 
    2920    286.14254   -3486.1748   -3470.2335   -2340.3246    9051.6102    2.9039681 
    2930    297.36181   -3486.7837   -3470.2173   -3221.1745    9050.7068    2.9247356 
    2940    305.08371   -3487.2031   -3470.2065   -2403.2346    9045.6343    2.9420162 
    2950    290.26698   -3486.3676   -3470.1965    -14.54256    9037.5394    2.9543654 
    2960    270.44893   -3485.2305   -3470.1635    2492.4143    9029.5386    2.9598109 
    2970    276.67926   -3485.5167   -3470.1026     3326.367    9024.8094    2.9587947 
    2980    287.23632   -3486.0252    -3470.023    2551.6338     9024.465    2.9560072 
    2990    278.02606   -3485.4197   -3469.9306    1294.5611    9027.5443    2.9566053 
    3000    275.62421   -3485.1748   -3469.8195    205.04241    9032.3693    2.9624278 
    3010    287.62826   -3485.7068   -3469.6827    178.02114    9037.5569    2.9728229 
    3020    290.77446   -3485.7285   -3469.5291    870.34432    9043.0257    2.9852755 
    3030    288.76743   -3485.4586    -3469.371    1240.2259    9049.6043    2.9955701 
    3040    292.69848   -3485.5119   -3469.2054    1029.0429    9057.7519     3.001952 
    3050    302.25605   -3485.8705   -3469.0315    354.20389    9067.1804    3.0066799 
    3060    304.16931   -3485.8019   -3468.8562   -586.33393    9076.9799    3.0130128 
    3070    289.98737    -3484.844   -3468.6885   -1295.3551    9085.9291    3.0209201 
    3080    280.00121   -3484.1221   -3468.5229   -2047.9601    9093.0043    3.0253333 
    3090    287.99377   -3484.3894    -3468.345    -2934.103    9097.1787     3.021267 
    3100    299.68927    -3484.853   -3468.1569    -3551.124    9097.3101    3.0086831 
    3110    302.69911   -3484.8372   -3467.9735   -3408.9464    9092.6464    2.9899234 
    3120    306.85618   -3484.8983    -3467.803    -2799.084    9083.3966    2.9660238 
    3130    308.80955    -3484.847   -3467.6429   -1856.4705    9070.4492    2.9369209 
    3140    301.14846    -3484.266   -3467.4886   -367.57066    9055.1805    2.9024149 
    3150    302.57855   -3484.1859   -3467.3289    1002.9623    9039.5733    2.8643499 
    3160    313.60797   -3484.6347   -3467.1632    2062.7897    9025.4894    2.8273924 
    3170      316.371   -3484.6294    -3467.004    3133.2706    9014.3942    2.7953253 
    3180    316.83822   -3484.5146   -3466.8632    3906.8257     9007.657    2.7700966 
    3190    317.45991   -3484.4375   -3466.7515    4171.2914    9006.2205    2.7541609 
    3200    312.76318   -3484.1015   -3466.6771    4022.6241    9010.3804    2.7495518 
    3210    302.59324   -3483.4915   -3466.6337    3584.1779     9019.905    2.7553459 
    3220    304.52295   -3483.5712   -3466.6059    2855.7503    9034.1546    2.7690733 
    3230    307.96045   -3483.7407   -3466.5839    2253.5464    9052.1743    2.7895276 
    3240    305.60639   -3483.5935   -3466.5678    1662.1091    9073.0975    2.8141194 
    3250    307.87197   -3483.7022   -3466.5503    444.72646     9096.025    2.8392929 
    3260    309.94875   -3483.7854   -3466.5178   -1496.6557    9119.2504    2.8633455 
    3270    318.05423    -3484.194   -3466.4748   -3384.2499    9140.1624    2.8853829 
    3280    316.70235   -3484.0883   -3466.4445    -4326.876    9156.2351    2.9045821 
    3290    309.18503   -3483.6703   -3466.4453   -4342.6818    9166.1834    2.9191068 
    3300    306.88053    -3483.569   -3466.4723   -4011.8006    9169.9913    2.9283343 
    3310    312.19211   -3483.9121   -3466.5195   -3700.6648    9168.1516    2.9334368 
    3320    320.71722   -3484.4605    -3466.593   -3386.6984    9161.1748    2.9354424 
    3330     312.9717   -3484.1298   -3466.6938   -2393.1927    9149.6943    2.9356307 
    3340      298.816   -3483.4497   -3466.8023   -1169.3111    9135.1011     2.934293 
    3350    299.49513   -3483.5889   -3466.9037   -447.71769    9119.0642    2.9306842 
    3360    312.30061    -3484.408   -3467.0094   -404.85174    9102.5965    2.9249649 
    3370    312.80338   -3484.5559   -3467.1292   -210.79598    9085.8879    2.9182745 
    3380    301.75318   -3484.0596   -3467.2485    726.38538    9069.2883    2.9113745 
    3390    297.34295   -3483.9183    -3467.353    1742.5986    9053.9779    2.9044412 
    3400    294.49978   -3483.8524   -3467.4455    2829.8359    9041.3224    2.8980927 
    3410    290.50543   -3483.7134    -3467.529    3854.4301    9032.7364    2.8931858 
    3420    294.65116   -3484.0284   -3467.6131    3957.6077    9029.4151    2.8905636 
    3430    304.65964   -3484.6805   -3467.7075    2983.6751    9031.3732    2.8908632 
    3440    311.38867   -3485.1617   -3467.8139    1499.2157    9037.2845    2.8936747 
    3450    312.78203   -3485.3562   -3467.9308   -4.6775112    9045.1487    2.8972907 
    3460    307.63589   -3485.1936   -3468.0548   -1129.2268    9052.9401    2.8995744 
    3470     299.7018   -3484.8786   -3468.1819   -1655.3425    9059.1548     2.898521 
    3480    297.43249    -3484.877   -3468.3067    -1680.543    9063.0918    2.8930122 
    3490    301.58672   -3485.2336   -3468.4318   -1177.1954    9064.7437    2.8830575 
    3500    297.27565    -3485.119   -3468.5575   -316.86986    9064.8078    2.8696774 
    3510    286.02672   -3484.6083   -3468.6734     587.8874    9064.4651    2.8545876 
    3520    286.07035   -3484.7099   -3468.7726    769.30714    9064.8538    2.8393339 
    3530    302.82461   -3485.7339   -3468.8632    330.41287    9066.2123    2.8253927 
    3540    304.14375    -3485.903   -3468.9588    428.43737    9068.0724    2.8146365 
    3550    278.03673   -3484.5415   -3469.0517    1259.6763    9070.6109    2.8069133 
    3560    268.60431   -3484.0884   -3469.1241    1193.4594     9074.737    2.7987768 
    3570    288.44041   -3485.2393     -3469.17   -216.42222    9080.2796    2.7876332 
    3580    297.97258    -3485.796   -3469.1957   -1407.4135    9085.4921    2.7747456 
    3590    280.69072   -3484.8462   -3469.2086   -1505.7018    9088.8427    2.7621686 
    3600    274.52656   -3484.4968   -3469.2026   -1352.3502    9090.1104    2.7498158 
    3610    286.68485   -3485.1455    -3469.174   -1502.0744    9089.4665    2.7370365 
    3620    296.50958   -3485.6529   -3469.1341   -1412.4677    9086.7983    2.7230427 
    3630    294.78189    -3485.516   -3469.0933   -660.42092    9082.3133    2.7070178 
    3640    290.45652   -3485.2296   -3469.0479    132.60919     9076.993     2.687403 
    3650    299.66567   -3485.6876   -3468.9929    275.65974    9071.8472     2.663058 
    3660    304.88354    -3485.916   -3468.9306     178.1947    9067.1325    2.6365102 
    3670    299.40107   -3485.5468   -3468.8668    35.892321    9062.7344    2.6112789 
    3680    304.53732   -3485.7683   -3468.8022   -403.87776    9058.3995    2.5882643 
    3690    309.92216   -3486.0031    -3468.737   -407.32843    9053.6316    2.5670152 
    3700     297.3513   -3485.2395   -3468.6737     493.5014    9048.4922    2.5468649 
    3710    291.51169   -3484.8484    -3468.608    1415.0398    9044.0897    2.5271444 
    3720    302.78402   -3485.4078   -3468.5393    1557.5016     9041.576    2.5103042 
    3730    305.67753    -3485.503   -3468.4734    1259.3638    9041.1586    2.5010506 
    3740    303.61008   -3485.3302   -3468.4157    1069.5826    9042.4738    2.5009875 
    3750    307.51394   -3485.4981   -3468.3661    674.70824    9045.2056    2.5076452 
    3760    307.58768   -3485.4624   -3468.3264   -99.624194    9048.7879    2.5183357 
    3770    294.77729   -3484.7198   -3468.2974   -669.67329    9052.2246     2.531513 
    3780    283.57929   -3484.0715    -3468.273   -897.86602    9054.7505      2.54567 
    3790     289.8538   -3484.3916   -3468.2435   -1035.2589    9056.0421    2.5609661 
    3800    302.29715   -3485.0448   -3468.2034   -1213.3928     9055.895    2.5794871 
    3810    303.20055   -3485.0471   -3468.1555   -968.95566    9054.1559    2.6011057 
    3820    303.38699   -3485.0059   -3468.1039   -521.45013    9051.1226    2.6231287 
    3830    304.61844   -3485.0229   -3468.0523     313.3663    9047.4701     2.646209 
    3840    296.76463   -3484.5346   -3468.0015    1154.5786    9044.3004    2.6730097 
    3850    295.14159   -3484.3869   -3467.9442    1240.7222     9042.655    2.7022158 
    3860     308.2588   -3485.0505    -3467.877    449.02299    9042.6074    2.7304976 
    3870    311.81927   -3485.1823   -3467.8105    -389.9718    9043.1662    2.7567209 
    3880    306.06072   -3484.8037   -3467.7527   -829.42576    9043.2273    2.7827988 
    3890    302.33736    -3484.538   -3467.6944   -485.75901    9042.2527    2.8109926 
    3900    309.16894   -3484.8564   -3467.6322    405.79137    9040.7021     2.842294 
    3910    315.14843   -3485.1306   -3467.5733    1520.7942    9039.7622    2.8771286 
    3920    313.14407   -3484.9728   -3467.5271    2256.4746    9040.8554    2.9139766 
    3930    314.89147   -3485.0432   -3467.5002    2097.6158    9044.8815    2.9485382 
    3940    309.50035   -3484.7377   -3467.4951    1501.5608    9051.6413    2.9762957 
    3950    310.16776   -3484.7898     -3467.51    489.98588    9060.2588    2.9948718 
    3960    318.38935   -3485.2815   -3467.5436   -550.43657    9069.3611    3.0058193 
    3970    307.18928    -3484.712   -3467.5982    -725.8692    9077.6518    3.0133133 
    3980    294.04895   -3484.0481   -3467.6663   -656.00728    9084.8154    3.0207672 
    3990    299.60829   -3484.4282   -3467.7367   -891.68871    9090.9212    3.0304344 
    4000    308.70466   -3485.0091   -3467.8108   -1246.2638    9095.6748    3.0418404 
    4010    304.07581   -3484.8322   -3467.8918   -1037.9927    9098.7075    3.0511044 
    4020     302.5409   -3484.8298   -3467.9749    -775.2949    9100.2567    3.0548277 
    4030     309.7204   -3485.3149     -3468.06   -737.64764    9100.6898    3.0531703 
    4040    315.30681   -3485.7255   -3468.1594   -1024.1338    9100.0634    3.0484606 
    4050     314.2124   -3485.7881   -3468.2829   -1325.8676    9098.0373    3.0432265 
    4060     306.5527   -3485.5051   -3468.4267   -999.70681    9094.3096    3.0401502 
    4070    296.56169   -3485.0959   -3468.5741   -135.18106    9089.3616    3.0411307 
    4080     296.4909   -3485.2291   -3468.7113    570.33383    9084.2974    3.0451939 
    4090    301.09304   -3485.6128   -3468.8386    1275.4557    9080.1018    3.0500066 
    4100    303.81341   -3485.8862   -3468.9604    1643.2571    9077.6875    3.0541317 
    4110    307.65891   -3486.2249   -3469.0848     1033.903    9077.4406     3.057043 
    4120     296.2212    -3485.712   -3469.2092    207.35083    9078.6044    3.0588911 
    4130    282.76234    -3485.072    -3469.319   -560.63612    9080.0359    3.0588086 
    4140    284.18746   -3485.2409   -3469.4085   -1112.0635    9080.7011    3.0560172 
    4150    290.94412     -3485.69   -3469.4812   -1242.9547    9079.8873    3.0510384 
    4160    295.72596   -3486.0188   -3469.5435   -968.41249    9077.4388    3.0442914 
    4170    298.70376   -3486.2403   -3469.5992   -233.56382    9073.7695    3.0350109 
    4180    304.44992   -3486.6139   -3469.6526    739.27743    9069.8772    3.0232123 
    4190    300.86345   -3486.4698   -3469.7084    1649.7801    9067.0628    3.0104387 
    4200    289.09464   -3485.8677   -3469.7619    1966.2645    9066.4787    2.9974973 
    4210    293.22575   -3486.1443   -3469.8084    1359.0418     9068.486    2.9842281 
    4220    298.12858   -3486.4563   -3469.8472    280.39589    9072.2724    2.9723772 
    4230    290.31258   -3486.0516    -3469.878   -329.05207    9076.4561    2.9630788 
    4240    287.96119    -3485.941   -3469.8984   -833.90425    9080.1422    2.9557595 
    4250    289.63701   -3486.0437   -3469.9077   -1179.7514    9082.6576    2.9492663 
    4260    289.52476   -3486.0366   -3469.9069   -1169.0949    9083.5762    2.9415731 
    4270    291.32038   -3486.1246   -3469.8949   -1192.2278    9082.8747    2.9311232 
    4280    292.18429   -3486.1496   -3469.8717   -1199.5112     9080.553    2.9174825 
    4290    297.99349   -3486.4409   -3469.8393   -1067.5126    9076.6495    2.9009494 
    4300    306.72527   -3486.8874   -3469.7994   -651.48171    9071.3818    2.8837191 
    4310    304.42222    -3486.717   -3469.7573      266.316    9065.3584    2.8695616 
    4320    292.37674   -3486.0026   -3469.7139    1585.7898    9059.8272    2.8614092 
    4330    288.94525   -3485.7594   -3469.6619    2477.8926    9056.4813    2.8588934 
    4340    297.51724   -3486.1697   -3469.5947    2256.5777    9056.4161    2.8611251 
    4350    309.64699   -3486.7634   -3469.5127    1856.1808    9059.4303    2.8689887 
    4360     314.7636   -3486.9601   -3469.4242    1641.7428    9064.9874     2.883184 
    4370    307.07231   -3486.4436   -3469.3362    1344.6881    9072.7273    2.9025578 
    4380    299.39252   -3485.9222   -3469.2427    579.44004     9082.182    2.9240931 
    4390    304.61083   -3486.1024   -3469.1322   -214.60196    9092.3578    2.9451296 
    4400    303.52352   -3485.9156    -3469.006   -433.14682    9102.2135    2.9659742 
    4410    292.54867   -3485.1678   -3468.8696    -320.6224    9111.4297    2.9880221 
    4420    286.80028   -3484.6931   -3468.7152   -543.68525    9120.0783    3.0124257 
    4430    289.97848   -3484.6829   -3468.5279   -1217.8787    9127.8301    3.0408755 
    4440    292.13265   -3484.5846   -3468.3095   -1809.4757     9133.829    3.0736985 
    4450    297.26195   -3484.6417   -3468.0809   -2079.9231    9137.2917    3.1069502 
    4460     306.0813   -3484.9134   -3467.8613   -2160.7791    9137.8488    3.1352436 
    4470    306.70517   -3484.7515   -3467.6646   -1807.4004    9135.4658    3.1559449 
    4480    306.83897   -3484.5887   -3467.4944   -1172.0367    9130.6491    3.1690256 
    4490    310.63865   -3484.6568   -3467.3507   -497.99216    9124.2847    3.1761135 
    4500    310.27084   -3484.5215   -3467.2359    203.35378    9117.3247    3.1801039 
    4510    313.01342   -3484.5864    -3467.148     797.6965    9110.7303    3.1836653 
    4520      314.752   -3484.6198   -3467.0846    1459.4285    9105.3376    3.1891217 
    4530    310.97326     -3484.37   -3467.0453    1997.0532    9102.0017      3.19802 
    4540     303.8406   -3483.9514   -3467.0241    2220.7905    9101.4206    3.2096347 
    4550    303.52659   -3483.9233   -3467.0135    1871.4642    9103.8396    3.2214499 
    4560     307.6603    -3484.149   -3467.0089    1103.9923    9108.7674     3.230629 
    4570    307.31282   -3484.1307     -3467.01    544.16101    9115.2069    3.2368526 
    4580    314.97863   -3484.5694   -3467.0216    359.88787    9122.3791    3.2411018 
    4590    316.61292   -3484.6901   -3467.0513     553.6398    9130.0404     3.243419 
    4600    313.69771   -3484.5769   -3467.1004     447.8811    9138.3738    3.2424122 
    4610    316.82596   -3484.8147    -3467.164   -226.93111     9147.176    3.2377368 
    4620    315.15695   -3484.7996   -3467.2419   -863.53661    9155.5975    3.2321833 
    4630      308.869   -3484.5412   -3467.3338   -1275.2568    9162.7832    3.2295676 
    4640    305.41258   -3484.4503   -3467.4354   -1532.4779    9168.1599    3.2313414 
    4650    305.47464   -3484.5641   -3467.5458    -1827.534    9171.3347    3.2360792 
    4660    305.36375   -3484.6762   -3467.6641   -2228.6981    9171.9096    3.2408846 
    4670    309.79194   -3485.0519    -3467.793   -2670.0364    9169.3587    3.2433023 
    4680    309.15348   -3485.1601   -3467.9369   -2521.8752    9163.1749     3.242569 
    4690    299.33569    -3484.759   -3468.0826    -1493.119    9153.6446    3.2396468 
    4700    301.72882   -3485.0269   -3468.2172   -542.88178    9142.1151    3.2358462 
    4710    305.13693   -3485.3423   -3468.3427    225.19895    9129.9376    3.2326615 
    4720    293.30461   -3484.7938   -3468.4535    1318.4614    9118.2552    3.2295367 
    4730    291.75529   -3484.7975   -3468.5434    2044.5124    9108.4725    3.2250849 
    4740     303.0921   -3485.5113   -3468.6257    2408.2361    9101.5698    3.2224411 
    4750    299.60309   -3485.3984   -3468.7071    2537.2439    9098.0355    3.2280395 
    4760    300.34975   -3485.5196   -3468.7868    1835.3998    9097.9352    3.2443223 
    4770    314.16149   -3486.3681   -3468.8658    694.43102    9100.3256    3.2692139 
    4780    317.82444   -3486.6571   -3468.9507    92.278608    9103.7406    3.2993563 
    4790    308.32847   -3486.2214   -3469.0441     320.1919    9107.3617    3.3313415 
    4800    291.64387   -3485.3816   -3469.1338    1115.3052    9111.4769    3.3631229 
    4810    278.58758   -3484.7234    -3469.203    1375.8858    9117.0491    3.3934705 
    4820    289.50112   -3485.3736   -3469.2452    457.35342    9124.3541    3.4208265 
    4830    303.07649    -3486.149   -3469.2643   -461.01051    9132.2574    3.4452464 
    4840    297.91881   -3485.8715   -3469.2741   -542.76524    9139.5814    3.4662383 
    4850    291.82837   -3485.5386   -3469.2805   -321.45248    9146.1477    3.4821436 
    4860    292.22374    -3485.558   -3469.2779   -523.70188    9152.1807    3.4939263 
    4870    297.83392   -3485.8596   -3469.2669   -1209.1995    9157.3827    3.5039318 
    4880    295.21265   -3485.7013   -3469.2547   -1421.0704    9160.9165    3.5130026 
    4890    287.67517   -3485.2677    -3469.241   -902.34354    9162.5382    3.5203102 
    4900    291.72946   -3485.4733   -3469.2207   -607.39294    9162.8536    3.5248413 
    4910    290.86499   -3485.3968   -3469.1924   -479.67796    9162.3048    3.5268749 
    4920    285.54711   -3485.0649   -3469.1568   -326.39712    9161.1112    3.5264708 
    4930    289.58745   -3485.2457   -3469.1125   -880.29135    9159.3824    3.5229938 
    4940    290.81932    -3485.263   -3469.0612   -1839.8328    9156.3886    3.5166328 
    4950    286.71906   -3484.9809   -3469.0074   -2528.8844    9150.8732    3.5070364 
    4960    288.56184   -3485.0281    -3468.952   -2587.1416    9141.9362    3.4928473 
    4970    292.03012   -3485.1607   -3468.8914   -1674.7093    9129.5705    3.4726439 
    4980    288.79624   -3484.9062    -3468.817    89.112333    9115.0652    3.4461176 
    4990    287.78749    -3484.755   -3468.7221    1622.4025    9100.7485    3.4139083 
    5000    300.21725   -3485.3401   -3468.6147    2550.7614    9088.6994    3.3775264 
Loop time of 2164.59 on 8 procs for 5000 steps with 432 atoms

Performance: 0.200 ns/day, 120.255 hours/ns, 2.310 timesteps/s
95.2% CPU use with 8 MPI tasks x 1 OpenMP threads

MPI task timing breakdown:
Section |  min time  |  avg time  |  max time  |%varavg| %total
---------------------------------------------------------------
Pair    | 1258.4     | 1624.1     | 2144.3     | 709.7 | 75.03
Bond    | 0.00031757 | 0.00061452 | 0.0020132  |   0.0 |  0.00
Neigh   | 0.055847   | 0.068715   | 0.094857   |   5.3 |  0.00
Comm    | 19.648     | 413.21     | 675.54     |1147.1 | 19.09
Output  | 0.22819    | 0.23954    | 0.3182     |   6.1 |  0.01
Modify  | 0.26237    | 126.96     | 506.53     |1944.9 |  5.87
Other   |            | 0.01823    |            |       |  0.00

Nlocal:        54.0000 ave          75 max          40 min
Histogram: 2 1 0 1 1 1 0 0 1 1
Nghost:        575.000 ave         621 max         492 min
Histogram: 2 0 0 0 0 1 0 1 1 3
Neighs:         0.00000 ave           0 max           0 min
Histogram: 8 0 0 0 0 0 0 0 0 0
FullNghs:      2703.75 ave        4330 max        1646 min
Histogram: 2 1 0 2 1 0 0 0 1 1

Total # of neighbors = 21630
Ave neighs/atom = 50.069444
Ave special neighs/atom = 0.0000000
Neighbor list builds = 500
Dangerous builds = 500
System init for write_data ...
Total wall time: 0:36:10
