LAMMPS (29 Sep 2021 - Update 3)
OMP_NUM_THREADS environment is not set. Defaulting to 1 thread. (src/comm.cpp:98)
  using 1 OpenMP thread(s) per MPI task
units	metal
atom_style	full

read_data	mixed.data
Reading data file ...
  orthogonal box = (0.0000000 0.0000000 0.0000000) to (15.969932 15.719106 81.083077)
  2 by 1 by 8 MPI processor grid
  reading atoms ...
  864 atoms
Finding 1-2 1-3 1-4 neighbors ...
  special bond factors lj:    0        0        0       
  special bond factors coul:  0        0        0       
     0 = max # of 1-2 neighbors
     0 = max # of 1-3 neighbors
     0 = max # of 1-4 neighbors
     1 = max # of special neighbors
  special bonds CPU = 0.001 seconds
  read_data CPU = 0.017 seconds

pair_style	quip
pair_coeff	* * /ocean/projects/cts180021p/wuziqi/clease/mint-PD/PhaseDiagram-Clease/Liquid/GAP_potential/gap_LiKCl.xml "Potential xml_label=GAP_2021_9_27_0_1_17_37_618" 17 19 3

neighbor	0.3 bin
neigh_modify	delay 10

timestep	0.001
compute	msd all msd
thermo_style	custom step temp pe etotal press vol c_msd[4]
thermo	10
dump	1 all custom 10 xyz-mix.dump type id x y z
dump	2 all custom 10 force-mix.dump type id fx fy fz

fix     1 all nve
run     2000
Neighbor list info ...
  update every 1 steps, delay 10 steps, check yes
  max neighbors/atom: 2000, page size: 100000
  master list distance cutoff = 6.22
  ghost atom cutoff = 6.22
  binsize = 3.11, bins = 6 6 27
  1 neighbor lists, perpetual/occasional/extra = 1 0 0
  (1) pair quip, perpetual
      attributes: full, newton on
      pair build: full/bin
      stencil: full/bin/3d
      bin: standard
Per MPI rank memory allocation (min/avg/max) = 8.888 | 8.903 | 8.913 Mbytes
Step Temp PotEng TotEng Press Volume c_msd[4] 
       0            0   -6930.8241   -6930.8241   -4495.9065    20354.533            0 
      10    65.904237   -6938.1841   -6930.8324   -5379.5912    20354.533 0.0005000384 
      20    168.73131   -6949.6632    -6930.841   -6364.5261    20354.533 0.0061479459 
      30    200.57733   -6953.2127    -6930.838   -5696.6671    20354.533  0.020662009 
      40    199.55606   -6953.0935   -6930.8327   -4580.1506    20354.533   0.03833664 
      50    226.88579   -6956.1474   -6930.8379   -4419.7801    20354.533  0.051806208 
      60    238.47957   -6957.4392   -6930.8365   -4645.7272    20354.533  0.061424452 
      70    236.06355   -6957.1692   -6930.8359    -4807.043    20354.533  0.069853138 
      80    232.99362   -6956.8259   -6930.8351    -5036.908    20354.533  0.079308594 
      90    234.23747   -6956.9654   -6930.8358   -5260.6038    20354.533  0.090830495 
     100    232.00556   -6956.7159   -6930.8353   -5208.0306    20354.533   0.10432197 
     110    232.79067   -6956.8033   -6930.8352   -5031.3164    20354.533   0.11840709 
     120    238.30149    -6957.419   -6930.8361   -4942.2097    20354.533   0.13201584 
     130    238.74514   -6957.4687   -6930.8363   -4988.8033    20354.533   0.14538478 
     140    232.54984   -6956.7771   -6930.8358   -4942.4536    20354.533   0.15867927 
     150    225.40044   -6955.9792   -6930.8355   -4787.8719    20354.533   0.17110203 
     160    224.38726   -6955.8659   -6930.8352   -4620.0724    20354.533    0.1817825 
     170    231.86358   -6956.7009   -6930.8362   -4442.3359    20354.533   0.19072597 
     180    237.58036   -6957.3391   -6930.8366   -4192.2572    20354.533   0.19889867 
     190    235.69365   -6957.1279    -6930.836   -3927.7806    20354.533   0.20710191 
     200    234.44619   -6956.9885   -6930.8356   -3773.8119    20354.533   0.21513007 
     210    236.73114   -6957.2437    -6930.836   -3777.5502    20354.533   0.22305549 
     220    238.14425   -6957.4012   -6930.8359   -3899.9101    20354.533    0.2315521 
     230     238.4388   -6957.4341   -6930.8359   -4006.5782    20354.533   0.24098695 
     240    239.23886    -6957.523   -6930.8356   -3984.7528    20354.533   0.25141959 
     250     242.0724   -6957.8401   -6930.8366   -3793.3442    20354.533   0.26265129 
     260       239.05   -6957.5024    -6930.836   -3540.3897    20354.533   0.27417391 
     270    235.84511    -6957.145   -6930.8361   -3272.6541    20354.533   0.28493922 
     280    231.62838   -6956.6748   -6930.8363   -2948.2435    20354.533   0.29437431 
     290    226.51317   -6956.1028    -6930.835   -2633.8875    20354.533   0.30220439 
     300    232.88912   -6956.8151    -6930.836   -2478.1682    20354.533   0.30835486 
     310    239.65399   -6957.5709   -6930.8371   -2317.7128    20354.533   0.31386348 
     320    236.98534   -6957.2718   -6930.8357   -2020.1819    20354.533   0.31985126 
     330    235.73864   -6957.1329   -6930.8359   -1957.4113    20354.533   0.32664959 
     340    236.09186   -6957.1723   -6930.8359   -2003.6376    20354.533   0.33435107 
     350    237.19352   -6957.2955   -6930.8363   -2145.8328    20354.533   0.34289663 
     360     235.6501   -6957.1226   -6930.8355   -2186.0282    20354.533   0.35153924 
     370      237.245   -6957.3009   -6930.8359   -2246.4379    20354.533   0.35886165 
     380     239.0727   -6957.5047   -6930.8358   -2396.5837    20354.533   0.36451066 
     390    241.64207   -6957.7913   -6930.8358   -2701.0958    20354.533   0.36907283 
     400    244.68963   -6958.1321   -6930.8366    -3058.184    20354.533   0.37340775 
     410    240.84575   -6957.7024   -6930.8357   -3233.9135    20354.533   0.37836011 
     420    237.91038    -6957.375   -6930.8357   -3296.1667    20354.533    0.3837999 
     430    237.53548   -6957.3335    -6930.836     -3297.92    20354.533   0.38923076 
     440    236.65311   -6957.2351   -6930.8361   -3132.9159    20354.533   0.39408345 
     450    236.54722   -6957.2227   -6930.8355   -2838.3736    20354.533   0.39819744 
     460    240.22636   -6957.6339   -6930.8363   -2750.9298    20354.533   0.40204023 
     470    240.52465   -6957.6669    -6930.836   -2995.4918    20354.533   0.40599969 
     480    237.66852   -6957.3482   -6930.8359   -3342.9489    20354.533   0.40967234 
     490     233.8587   -6956.9231   -6930.8358   -3484.3142    20354.533   0.41268728 
     500    232.08796   -6956.7258   -6930.8361   -3205.4816    20354.533   0.41521326 
     510    230.70203   -6956.5715   -6930.8364   -2716.5526    20354.533   0.41731564 
     520    228.05602   -6956.2759   -6930.8359   -2363.5724    20354.533   0.41870774 
     530    227.97164    -6956.267   -6930.8365   -2215.6832    20354.533   0.41939371 
     540    224.82248   -6955.9152   -6930.8359   -2142.5726    20354.533   0.41965215 
     550    224.12424   -6955.8368   -6930.8354   -2230.4398    20354.533   0.41896539 
     560    230.14975   -6956.5094   -6930.8358   -2549.6413    20354.533   0.41694428 
     570    236.18881   -6957.1833   -6930.8361   -2919.3179    20354.533   0.41431605 
     580    239.11248   -6957.5092   -6930.8358   -3311.7801    20354.533   0.41218239 
     590    240.41038    -6957.654   -6930.8359   -3417.9605    20354.533   0.41128732 
     600     241.9108   -6957.8213   -6930.8358   -3319.9933    20354.533   0.41181297 
     610    244.71998   -6958.1355   -6930.8366   -3218.6172    20354.533   0.41378595 
     620     241.0794   -6957.7291   -6930.8363   -3147.9995    20354.533   0.41727735 
     630    235.50013   -6957.1059   -6930.8355   -3135.0665    20354.533   0.42154918 
     640    235.11112   -6957.0634   -6930.8364   -3257.6948    20354.533   0.42544554 
     650    231.17765   -6956.6238   -6930.8356   -3363.2824    20354.533   0.42831027 
     660    230.96587      -6956.6   -6930.8354    -3278.616    20354.533   0.42962018 
     670    236.71051   -6957.2418   -6930.8364   -3057.6575    20354.533   0.43008462 
     680    237.89077   -6957.3735   -6930.8365   -2729.6334    20354.533   0.43147958 
     690    233.77068   -6956.9134    -6930.836   -2455.8007    20354.533   0.43467882 
     700    232.73214   -6956.7972   -6930.8356   -2458.1317    20354.533   0.43896836 
     710     238.6713   -6957.4612    -6930.837     -2772.14    20354.533   0.44306523 
     720    238.40713   -6957.4307    -6930.836    -2807.083    20354.533   0.44626276 
     730     240.4682   -6957.6606    -6930.836   -2649.5036    20354.533   0.44805059 
     740    245.36669   -6958.2082   -6930.8372   -2598.8991    20354.533   0.44927166 
     750    241.62154   -6957.7892    -6930.836   -2531.0184    20354.533   0.45180545 
     760    240.83361   -6957.7015   -6930.8361   -2663.8574    20354.533   0.45609454 
     770    242.81641   -6957.9232   -6930.8366   -2904.7405    20354.533   0.46149917 
     780    240.55873   -6957.6716   -6930.8369   -3011.4883    20354.533   0.46731331 
     790    234.48344    -6956.992    -6930.835   -2984.9723    20354.533   0.47270083 
     800    241.36903   -6957.7616   -6930.8365   -3043.6074    20354.533   0.47702973 
     810    248.02611   -6958.5044   -6930.8367   -3212.7271    20354.533   0.48113406 
     820    247.07524   -6958.3983   -6930.8367   -3298.0857    20354.533   0.48604281 
     830    241.62282   -6957.7892   -6930.8358   -3451.0521    20354.533   0.49200069 
     840    241.09937   -6957.7309   -6930.8359   -3767.5583    20354.533    0.4980224 
     850    243.86884   -6958.0407   -6930.8367   -3969.0277    20354.533   0.50315689 
     860    240.67295   -6957.6839   -6930.8364   -3878.9651    20354.533   0.50749313 
     870    234.88256   -6957.0377   -6930.8362   -3705.4216    20354.533   0.51123394 
     880     230.9712   -6956.6008   -6930.8356   -3732.8653    20354.533   0.51418617 
     890    234.71187   -6957.0191   -6930.8366   -3903.3458    20354.533   0.51649556 
     900    236.69755   -6957.2408   -6930.8368   -4096.5729    20354.533   0.51925856 
     910    234.14135   -6956.9543   -6930.8355   -4214.9524    20354.533   0.52270274 
     920     239.2214   -6957.5215    -6930.836    -4371.806    20354.533    0.5260843 
     930    246.23434   -6958.3046   -6930.8368   -4388.3174    20354.533   0.52947161 
     940    244.93011   -6958.1585   -6930.8361    -4140.633    20354.533    0.5331014 
     950    244.54566   -6958.1146   -6930.8351   -3874.4856    20354.533   0.53608506 
     960     253.5944   -6959.1267   -6930.8378   -3771.8165    20354.533   0.53803089 
     970     248.3829   -6958.5442   -6930.8367   -3524.3442    20354.533   0.53986141 
     980    238.35135   -6957.4243   -6930.8358   -3260.4338    20354.533   0.54101785 
     990    236.50322   -6957.2181   -6930.8358   -3175.8957    20354.533   0.54134372 
    1000    241.19481   -6957.7423   -6930.8367   -3304.4267    20354.533   0.54225539 
    1010    241.95562   -6957.8272   -6930.8367   -3391.2596    20354.533   0.54502288 
    1020    240.16869   -6957.6269   -6930.8357   -3447.0496    20354.533   0.54930268 
    1030    245.53617   -6958.2267   -6930.8368   -3456.4918    20354.533   0.55419445 
    1040    247.77076    -6958.476   -6930.8368   -3298.5887    20354.533   0.55950896 
    1050     244.2442   -6958.0816   -6930.8358   -3136.4369    20354.533   0.56417367 
    1060    244.98518   -6958.1647   -6930.8363    -3248.508    20354.533   0.56688242 
    1070    245.91228   -6958.2687   -6930.8368   -3519.1406    20354.533   0.56812185 
    1080    243.86214    -6958.039   -6930.8358   -3692.2455    20354.533   0.56934968 
    1090    246.84293   -6958.3726   -6930.8369   -3906.5524    20354.533   0.57178329 
    1100      244.881   -6958.1533   -6930.8365   -4089.2355    20354.533   0.57651628 
    1110    240.43499   -6957.6569    -6930.836   -4077.0823    20354.533    0.5832495 
    1120    237.92872   -6957.3775   -6930.8362   -4003.4461    20354.533   0.59023617 
    1130    236.51172   -6957.2189   -6930.8357   -4042.4172    20354.533   0.59550452 
    1140    238.96444   -6957.4936   -6930.8368   -4040.0227    20354.533   0.59831056 
    1150    235.78148   -6957.1379   -6930.8361   -3879.2914    20354.533   0.59921996 
    1160    234.20341   -6956.9615   -6930.8358   -3837.8249    20354.533    0.5985221 
    1170    240.41902   -6957.6544   -6930.8353    -3935.141    20354.533   0.59722217 
    1180    255.54411   -6959.3435   -6930.8372     -4092.55    20354.533   0.59743217 
    1190    258.99242   -6959.7285   -6930.8375   -4046.2257    20354.533    0.6011544 
    1200    248.88394   -6958.5986   -6930.8352   -3714.2841    20354.533   0.60762836 
    1210    248.47025   -6958.5542    -6930.837   -3470.6197    20354.533   0.61448368 
    1220    244.95446   -6958.1613   -6930.8363   -3177.7538    20354.533   0.62050251 
    1230     241.8534   -6957.8153   -6930.8362   -3046.6572    20354.533   0.62473384 
    1240    239.93171   -6957.6017    -6930.837   -2953.8402    20354.533   0.62763822 
    1250    233.26136   -6956.8559   -6930.8352   -2777.3686    20354.533   0.63038166 
    1260    237.93988   -6957.3787   -6930.8361   -2775.1391    20354.533    0.6330371 
    1270    246.35675   -6958.3182   -6930.8368   -2888.4422    20354.533   0.63643977 
    1280    248.45813   -6958.5525   -6930.8366   -2920.0425    20354.533   0.64183599 
    1290    245.47675   -6958.2198   -6930.8365   -2685.1116    20354.533   0.64908358 
    1300    241.63357   -6957.7906    -6930.836   -2354.7632    20354.533   0.65669456 
    1310    242.43427   -6957.8804   -6930.8365   -2080.8148    20354.533   0.66291632 
    1320    245.28186   -6958.1979   -6930.8364   -1915.3295    20354.533    0.6669735 
    1330    248.60459   -6958.5691   -6930.8369   -2012.6907    20354.533   0.66938419 
    1340    247.35187   -6958.4291   -6930.8367   -2148.5782    20354.533   0.67162517 
    1350    244.12194   -6958.0683   -6930.8361   -1975.6824    20354.533   0.67460298 
    1360    246.17117   -6958.2975   -6930.8367   -1695.7314    20354.533   0.67795806 
    1370    247.81913   -6958.4815   -6930.8369   -1406.6961    20354.533   0.68155459 
    1380    246.54204   -6958.3387   -6930.8366   -1365.9532    20354.533   0.68550067 
    1390    245.37096   -6958.2083   -6930.8368   -1609.7263    20354.533   0.68946972 
    1400    243.36629   -6957.9841   -6930.8362   -2040.6718    20354.533   0.69316197 
    1410    243.94371   -6958.0489   -6930.8367    -2492.182    20354.533   0.69632692 
    1420    241.91407   -6957.8222   -6930.8364   -2641.5513    20354.533   0.69908731 
    1430    240.29252    -6957.641   -6930.8361   -2738.6597    20354.533   0.70169952 
    1440    243.00906   -6957.9446   -6930.8366   -2920.7186    20354.533   0.70454594 
    1450    244.25454   -6958.0838   -6930.8369   -3048.4377    20354.533   0.70795341 
    1460    242.09952    -6957.843   -6930.8364   -2976.5792    20354.533   0.71130224 
    1470    243.45842   -6957.9943   -6930.8362   -3081.8274    20354.533    0.7132231 
    1480    250.70065   -6958.8033   -6930.8373   -3338.8349    20354.533   0.71370178 
    1490    252.18388   -6958.9685    -6930.837   -3376.1382    20354.533    0.7144344 
    1500    251.43885   -6958.8853   -6930.8369   -3315.8008    20354.533   0.71637247 
    1510    251.24938    -6958.864   -6930.8368   -3301.7557    20354.533   0.71942223 
    1520    249.70733   -6958.6922    -6930.837   -3282.0336    20354.533   0.72323431 
    1530    244.44696   -6958.1054    -6930.837   -3302.2244    20354.533   0.72763008 
    1540    236.75683   -6957.2464   -6930.8358   -3274.9713    20354.533    0.7323608 
    1550    237.57971   -6957.3389   -6930.8365   -3428.4116    20354.533   0.73683196 
    1560    241.15015   -6957.7371   -6930.8364   -3593.4236    20354.533   0.74115804 
    1570    245.97302   -6958.2754   -6930.8368   -3733.6516    20354.533   0.74547586 
    1580    248.38573   -6958.5448    -6930.837   -3697.1233    20354.533   0.74963233 
    1590    246.86432   -6958.3746   -6930.8366   -3466.8015    20354.533   0.75351214 
    1600     247.7118   -6958.4687    -6930.836   -3388.9239    20354.533   0.75677589 
    1610    253.82537   -6959.1519   -6930.8373    -3531.034    20354.533   0.75955216 
    1620    251.92871   -6958.9401   -6930.8371   -3648.0728    20354.533   0.76294914 
    1630    244.66821   -6958.1291    -6930.836   -3657.5504    20354.533   0.76703359 
    1640    244.28177   -6958.0866   -6930.8366   -3671.0399    20354.533   0.77099433 
    1650    244.83575   -6958.1483   -6930.8365   -3788.3144    20354.533   0.77508445 
    1660    246.40424   -6958.3232   -6930.8364    -3813.853    20354.533   0.77989624 
    1670     250.2724    -6958.755   -6930.8367   -3565.9239    20354.533   0.78529205 
    1680    252.16532   -6958.9666   -6930.8372   -3320.4462    20354.533   0.79034429 
    1690    248.06278   -6958.5083   -6930.8366    -3241.467    20354.533   0.79410211 
    1700    246.18953   -6958.2989   -6930.8361   -3435.3007    20354.533   0.79613512 
    1710    251.37963   -6958.8788   -6930.8371   -3765.1983    20354.533   0.79697816 
    1720    252.49637   -6959.0036   -6930.8373   -4015.6546    20354.533   0.79809077 
    1730    246.19105   -6958.2991   -6930.8361   -4012.8085    20354.533   0.80001418 
    1740    244.72061   -6958.1349   -6930.8359   -3836.2711    20354.533   0.80174398 
    1750    250.77886   -6958.8116   -6930.8368   -3664.5304    20354.533   0.80300604 
    1760    253.23106   -6959.0851   -6930.8368   -3574.9487    20354.533   0.80474848 
    1770     250.9182   -6958.8268   -6930.8365   -3643.0638    20354.533   0.80759401 
    1780    248.19059    -6958.522   -6930.8359    -3925.933    20354.533   0.81194222 
    1790    251.50586   -6958.8923   -6930.8365   -4358.7518    20354.533   0.81788965 
    1800    254.74644   -6959.2547   -6930.8373   -4555.0094    20354.533   0.82537267 
    1810    250.83969   -6958.8178   -6930.8362   -4276.5786    20354.533   0.83331392 
    1820     251.8855   -6958.9345   -6930.8362   -4012.9598    20354.533   0.83972246 
    1830      255.594   -6959.3496   -6930.8377   -3901.3718    20354.533   0.84445553 
    1840    246.70995   -6958.3569   -6930.8361   -3626.6691    20354.533   0.84851616 
    1850    241.86654   -6957.8157   -6930.8351   -3456.7016    20354.533   0.85180041 
    1860    250.43531   -6958.7737   -6930.8372    -3514.864    20354.533    0.8548436 
    1870    251.67809   -6958.9117   -6930.8366    -3317.435    20354.533   0.85904271 
    1880    249.74232   -6958.6953   -6930.8361   -2814.4162    20354.533   0.86408884 
    1890    251.03758   -6958.8407    -6930.837   -2598.2462    20354.533   0.86903478 
    1900    247.47063   -6958.4421   -6930.8364   -2762.2368    20354.533   0.87371783 
    1910    246.41436   -6958.3238   -6930.8359   -3170.3298    20354.533   0.87809892 
    1920    252.32808   -6958.9847   -6930.8371   -3481.0709    20354.533    0.8826292 
    1930    251.70282   -6958.9148    -6930.837   -3522.0143    20354.533   0.88826081 
    1940    246.41342   -6958.3234   -6930.8356   -3409.4835    20354.533   0.89502972 
    1950     251.5574   -6958.8983   -6930.8367   -3383.3627    20354.533   0.90192896 
    1960    256.70331    -6959.473   -6930.8374   -3284.7665    20354.533   0.90797257 
    1970    251.99325   -6958.9465   -6930.8363   -3170.8424    20354.533   0.91214044 
    1980    249.36931   -6958.6536    -6930.836    -3268.664    20354.533   0.91382089 
    1990    253.19383   -6959.0808   -6930.8367   -3484.4565    20354.533   0.91429439 
    2000    255.75062   -6959.3664    -6930.837   -3645.8324    20354.533   0.91593526 
Loop time of 1476.91 on 16 procs for 2000 steps with 864 atoms

Performance: 0.117 ns/day, 205.126 hours/ns, 1.354 timesteps/s
97.7% CPU use with 16 MPI tasks x 1 OpenMP threads

MPI task timing breakdown:
Section |  min time  |  avg time  |  max time  |%varavg| %total
---------------------------------------------------------------
Pair    | 652.75     | 1188.8     | 1467.9     | 609.2 | 80.49
Bond    | 0.00017548 | 0.0005513  | 0.0012527  |   0.0 |  0.00
Neigh   | 0.01785    | 0.028019   | 0.036522   |   3.5 |  0.00
Comm    | 8.8446     | 269.4      | 779.51     |1232.6 | 18.24
Output  | 0.13282    | 9.3985     | 22.28      | 280.4 |  0.64
Modify  | 0.0090623  | 0.010244   | 0.012012   |   0.8 |  0.00
Other   |            | 9.239      |            |       |  0.63

Nlocal:        54.0000 ave          71 max          39 min
Histogram: 3 2 1 1 0 4 1 0 3 1
Nghost:        497.125 ave         591 max         387 min
Histogram: 1 2 1 1 1 3 2 1 2 2
Neighs:         0.00000 ave           0 max           0 min
Histogram: 16 0 0 0 0 0 0 0 0 0
FullNghs:      2382.00 ave        3956 max        1259 min
Histogram: 3 2 2 0 2 3 1 1 1 1

Total # of neighbors = 38112
Ave neighs/atom = 44.111111
Ave special neighs/atom = 0.0000000
Neighbor list builds = 199
Dangerous builds = 198
unfix   1

velocity    all create 450.0 1312343 dist gaussian
fix     2 all npt temp 450.0 450.0 $(100.0*dt) aniso 0.0 1.01325 $(1000.0*dt)
fix     2 all npt temp 450.0 450.0 0.10000000000000000555 aniso 0.0 1.01325 $(1000.0*dt)
fix     2 all npt temp 450.0 450.0 0.10000000000000000555 aniso 0.0 1.01325 1
run     3000
Per MPI rank memory allocation (min/avg/max) = 8.897 | 8.905 | 8.914 Mbytes
Step Temp PotEng TotEng Press Volume c_msd[4] 
    2000          450   -6959.3664   -6909.1682   -2508.7472    20354.533   0.91593526 
    2010    417.72238   -6955.7596    -6909.162   -1659.8533    20351.812    0.9218024 
    2020    363.74952   -6949.6694   -6909.0926   -232.86743    20345.364   0.93167235 
    2030    345.45068    -6947.423   -6908.8874    514.28922     20338.23   0.93956119 
    2040    345.35686   -6947.0331   -6908.5081      720.412    20332.186   0.94392373 
    2050    339.73469   -6945.8783   -6907.9804    696.66661     20327.76   0.94642627 
    2060    337.66914   -6945.0473   -6907.3798    678.82862    20324.958   0.94878565 
    2070    356.69936    -6946.575   -6906.7847    661.44263    20323.714   0.95258446 
    2080     361.8327   -6946.6093   -6906.2463    956.16281    20324.067   0.95953172 
    2090    352.74564   -6945.1233    -6905.774    1186.1585    20326.608   0.96839994 
    2100    359.60105   -6945.4224   -6905.3084     1016.814      20331.8   0.97637836 
    2110    364.18587   -6945.4258   -6904.8003    644.39168    20339.323   0.98308232 
    2120    367.09589   -6945.1975   -6904.2474    30.922956    20348.301   0.98912226 
    2130    370.38753   -6944.9706   -6903.6533   -549.60752     20357.37   0.99508515 
    2140    363.77926   -6943.6129   -6903.0328   -777.79058    20365.235    1.0013187 
    2150    360.65352   -6942.6288   -6902.3974   -711.50981     20371.37    1.0074147 
    2160    369.27079   -6942.9268   -6901.7341    -605.9568    20375.875    1.0133658 
    2170     370.4243   -6942.3725   -6901.0511   -296.58212    20379.022      1.01946 
    2180    376.84768   -6942.4082   -6900.3703     45.73193    20381.488    1.0248996 
    2190    382.79529   -6942.3886   -6899.6872    134.90982    20384.019    1.0302841 
    2200    386.21162   -6942.0932   -6899.0107   -265.34958    20386.776    1.0363263 
    2210    391.96443    -6942.057   -6898.3328   -1016.1283    20388.842    1.0429131 
    2220    391.53773   -6941.3222   -6897.6456   -1513.1769    20388.616    1.0500856 
    2230    398.69044   -6941.4243   -6896.9498   -1729.9645    20384.942    1.0572005 
    2240    401.14765   -6940.9955   -6896.2469   -1346.3767    20377.415    1.0643398 
    2250    392.29473   -6939.3138   -6895.5528   -672.64172    20366.883    1.0717594 
    2260    394.18601   -6938.8329   -6894.8609   -316.16564    20354.808    1.0789052 
    2270    399.18998   -6938.6914   -6894.1611   -39.602081    20342.112    1.0858977 
    2280    402.00808   -6938.3104   -6893.4658    22.173933    20329.404    1.0938308 
    2290    408.35782   -6938.3305   -6892.7775   -230.98211    20316.812    1.1042395 
    2300     415.5592   -6938.4433   -6892.0871   -269.63208     20303.87     1.117611 
    2310    417.82021   -6938.0022   -6891.3938     17.17236    20290.525    1.1327552 
    2320    427.19179   -6938.3542   -6890.7003    252.22468     20277.37    1.1477417 
    2330    436.83816   -6938.7433   -6890.0133    614.87659    20265.002    1.1622556 
    2340    440.12208    -6938.454   -6889.3577    832.91547    20254.163    1.1769843 
    2350    440.84455   -6937.9234   -6888.7465    882.05794    20245.341    1.1922574 
    2360    446.60088    -6937.991    -6888.172    1044.5435    20238.663    1.2089305 
    2370    446.05776   -6937.3881   -6887.6297     1505.018    20234.515    1.2282939 
    2380    443.54852   -6936.5964   -6887.1179    1853.3756    20233.829    1.2488106 
    2390    442.33487   -6935.9699   -6886.6268    1722.4246    20237.271    1.2674854 
    2400    441.70566   -6935.4258   -6886.1529     1267.133    20244.513    1.2840219 
    2410    446.30131   -6935.4796    -6885.694    700.72098    20254.516    1.3013367 
    2420    447.39908   -6935.1539   -6885.2458    344.82062     20266.03     1.321398 
    2430    444.05354   -6934.3462   -6884.8113    386.94168    20278.264    1.3428703 
    2440    451.48899   -6934.7461   -6884.3818    479.72499    20291.228    1.3630218 
    2450    456.34992   -6934.8679   -6883.9614    444.31228    20305.085    1.3806687 
    2460    453.46317    -6934.149   -6883.5645    313.71759    20319.735    1.3954163 
    2470    451.96656   -6933.6083   -6883.1908    177.87338    20334.884    1.4076788 
    2480    454.07904   -6933.4872    -6882.834   -102.41388    20350.193    1.4192277 
    2490    450.56103   -6932.7479   -6882.4872   -418.96257    20365.036    1.4317906 
    2500    447.20709   -6932.0327    -6882.146   -503.75055    20378.739    1.4455199 
    2510    453.79586   -6932.4281   -6881.8065   -616.15682     20391.04    1.4589815 
    2520    456.66591   -6932.4163   -6881.4745    -666.8072    20401.715    1.4704767 
    2530    461.25031   -6932.6167   -6881.1635    -677.0634    20410.676    1.4790354 
    2540    465.70945   -6932.8295    -6880.879   -846.43843    20417.889     1.486406 
    2550     465.7845   -6932.5907   -6880.6317   -944.42801    20423.048    1.4958635 
    2560    460.08063   -6931.7456   -6880.4229   -749.20975    20426.017    1.5094583 
    2570    451.25504   -6930.5755   -6880.2373   -700.31315    20427.171    1.5256396 
    2580    453.10821    -6930.605   -6880.0601   -882.62985    20426.628    1.5407575 
    2590    450.17948   -6930.1048   -6879.8866   -516.78087    20424.199    1.5532532 
    2600    448.27348   -6929.7239   -6879.7183    18.093517    20420.655    1.5626272 
    2610    456.07641   -6930.4253   -6879.5493    411.27848    20417.198    1.5684114 
    2620    475.62504   -6932.4543   -6879.3976    400.93187    20414.656    1.5721461 
    2630    480.35499     -6932.88   -6879.2957    348.95236    20413.091     1.577655 
    2640    474.86746   -6932.2346   -6879.2625   -74.941906    20412.269      1.58583 
    2650    470.11963   -6931.7269   -6879.2844   -749.24733    20411.247    1.5947298 
    2660      471.177   -6931.9168   -6879.3563   -1093.0537     20408.59     1.603449 
    2670    473.74543   -6932.3308   -6879.4838   -671.14475    20403.621    1.6132415 
    2680    468.86305   -6931.9663   -6879.6639    97.995894    20397.259    1.6256096 
    2690    466.32754   -6931.9087   -6879.8892    703.75503    20391.197    1.6409929 
    2700    459.33294   -6931.3883    -6880.149    932.08873    20386.792    1.6585997 
    2710    448.16955   -6930.4165   -6880.4225    743.50624     20384.54    1.6755428 
    2720    445.47586   -6930.3827   -6880.6892      589.554     20384.06    1.6896326 
    2730    456.19516   -6931.8416   -6880.9523    430.05193    20384.937    1.7001305 
    2740    458.98256    -6932.426   -6881.2259     356.4825    20386.817    1.7063943 
    2750    457.32385   -6932.5302    -6881.515    441.76951     20389.54    1.7077314 
    2760    454.83501   -6932.5534   -6881.8159    680.11491    20393.268    1.7052448 
    2770    453.60424   -6932.7244   -6882.1241    1264.2535    20398.595    1.7004289 
    2780    451.42045   -6932.7947   -6882.4381    1674.3234    20406.741    1.6933491 
    2790    448.98754   -6932.8361   -6882.7509    1436.1618    20418.516    1.6841138 
    2800    450.76731   -6933.3394   -6883.0556    681.86661    20433.376    1.6736292 
    2810    459.96584   -6934.6658    -6883.356    -499.6562    20449.548    1.6628315 
    2820    459.48175   -6934.9232   -6883.6674   -1378.4748    20464.449    1.6539665 
    2830    440.36239   -6933.0976   -6883.9745   -1791.6157    20476.061    1.6492695 
    2840    435.63864   -6932.8477   -6884.2516   -2175.0171    20483.374    1.6481218 
    2850    444.18611   -6934.0499   -6884.5003   -2833.0493    20485.473    1.6495665 
    2860    449.80884   -6934.9235   -6884.7466   -3255.4595    20481.008    1.6536272 
    2870    447.71047   -6934.9504   -6885.0076   -3078.9973    20469.151    1.6609108 
    2880    425.34924   -6932.7018   -6885.2534   -2274.0131    20450.417    1.6709402 
    2890    412.25632   -6931.4216   -6885.4338   -1452.3111    20426.637    1.6804743 
    2900    426.71064   -6933.1369   -6885.5366   -855.06624     20399.76    1.6886482 
    2910    442.56667   -6934.9529    -6885.584   -262.32007    20371.273    1.6983392 
    2920    442.26984   -6934.9371   -6885.6013    419.96564    20342.599    1.7122039 
    2930    437.13088   -6934.3537   -6885.5911    841.15178    20315.237    1.7294145 
    2940    444.28061   -6935.1179   -6885.5578     877.0844    20290.095    1.7472564 
    2950    443.65517    -6934.997   -6885.5066    936.60558     20267.32    1.7653863 
    2960    441.05101   -6934.6417   -6885.4418     948.7607    20246.984    1.7837732 
    2970    443.89928    -6934.875   -6885.3574    1007.6165    20229.103    1.8012232 
    2980    448.44248   -6935.2786   -6885.2542     1254.322    20213.794    1.8165119 
    2990    453.75107   -6935.7616    -6885.145    1622.2639    20201.567    1.8303231 
    3000    451.98403   -6935.4618   -6885.0423     1887.267    20193.157    1.8450754 
    3010     456.4797   -6935.8746   -6884.9536    1788.6406    20189.049    1.8611694 
    3020    462.77453   -6936.5083   -6884.8851    1463.0446     20188.99      1.87828 
    3030    457.90254    -6935.924   -6884.8443    1263.2435    20192.267    1.8957151 
    3040    449.74075     -6934.99   -6884.8207    1161.9192     20198.39    1.9121282 
    3050    448.66752   -6934.8453   -6884.7957    1094.7398    20207.093    1.9257115 
    3060    445.09375   -6934.4121   -6884.7612    986.48784    20218.211    1.9336786 
    3070    445.22893   -6934.3822   -6884.7162    524.80189    20231.396    1.9345951 
    3080    448.98786   -6934.7433    -6884.658    65.383875    20245.654     1.931053 
    3090    448.84352   -6934.6626   -6884.5934    58.163894    20260.026    1.9272224 
    3100    444.45572   -6934.1064   -6884.5267    224.09111    20274.437    1.9242692 
    3110    440.09924   -6933.5411   -6884.4474    136.06009    20289.172     1.919562 
    3120    445.09101   -6933.9987   -6884.3481   -201.61256    20304.043    1.9107824 
    3130    448.66359   -6934.2795   -6884.2304   -610.08166    20318.297    1.9000181 
    3140    452.50652    -6934.584   -6884.1063     -684.392    20331.114         1.89 
    3150    457.37667   -6935.0084   -6883.9874   -564.24181    20342.287    1.8813816 
    3160    458.45419   -6935.0256   -6883.8843    -342.3631    20352.081    1.8733276 
    3170    456.07001   -6934.6742   -6883.7989   -57.120486    20361.024    1.8640728 
    3180    453.70313   -6934.3385   -6883.7272    309.19132    20369.787    1.8524722 
    3190    453.04239   -6934.1961   -6883.6585    386.04625    20379.135    1.8397816 
    3200    458.40827   -6934.7308   -6883.5947    5.0498953    20389.203    1.8285297 
    3210    450.66901   -6933.8127   -6883.5399   -287.41097    20399.219    1.8198567 
    3220    438.58545   -6932.4069   -6883.4821   -345.48638    20408.579    1.8123682 
    3230    445.45589   -6933.0959   -6883.4046   -830.54865    20416.967    1.8042194 
    3240    452.72622    -6933.813   -6883.3107   -1154.8752    20423.406    1.7949056 
    3250    454.02935   -6933.8663   -6883.2186   -990.31499     20427.23    1.7851685 
    3260    452.04422   -6933.5599   -6883.1337   -606.44638    20428.768    1.7755575 
    3270    449.83899   -6933.2335   -6883.0533   -406.44476    20428.842    1.7650758 
    3280     447.6934   -6932.9108   -6882.9699   -316.00725    20427.958    1.7534639 
    3290    451.58391   -6933.2552   -6882.8803   -168.84602    20426.353     1.742059 
    3300    462.03833    -6934.335   -6882.7939   -69.776379    20424.337     1.732088 
    3310    460.70704   -6934.1188   -6882.7263    30.930264    20422.173    1.7252121 
    3320     453.5244   -6933.2732   -6882.6819    11.910636    20420.052    1.7223792 
    3330    446.03682   -6932.4006   -6882.6445    294.56272    20418.057    1.7231941 
    3340    442.04304   -6931.9086    -6882.598    441.75792     20416.72     1.725137 
    3350    446.35081   -6932.3257   -6882.5346    242.23733    20416.343    1.7258123 
    3360    453.92178   -6933.0951   -6882.4594    115.61405    20416.566    1.7264929 
    3370    460.42083   -6933.7518   -6882.3912    113.10239    20417.081    1.7292822 
    3380    453.36084   -6932.9114   -6882.3383    354.47859    20417.913    1.7336533 
    3390    444.02481   -6931.8224   -6882.2908    697.52598    20419.589    1.7364006 
    3400    446.03041   -6931.9873   -6882.2319    900.43247    20422.861    1.7359284 
    3410    448.33657   -6932.1681   -6882.1555    863.34993    20428.179    1.7342412 
    3420    455.39905   -6932.8708   -6882.0704    514.55851    20435.432    1.7332663 
    3430    463.92482   -6933.7409   -6881.9893    103.68111    20443.873    1.7322183 
    3440    467.79971   -6934.1153   -6881.9315    -220.4482    20452.594    1.7291802 
    3450    464.41592   -6933.7156   -6881.9093   -591.45924    20460.783    1.7247367 
    3460    450.42601    -6932.161   -6881.9153   -805.69751    20467.622    1.7215836 
    3470    446.31671   -6931.7151   -6881.9278   -1288.4619    20472.518    1.7200755 
    3480    459.78003    -6933.229   -6881.9398   -2135.1419     20474.31    1.7197166 
    3490    476.20516    -6935.108   -6881.9866   -2416.7037    20471.226    1.7228063 
    3500    467.96325   -6934.2999   -6882.0979    -1922.941    20462.656    1.7318825 
    3510    456.00017   -6933.1287   -6882.2612   -1216.1293    20449.642    1.7453107 
    3520    450.20971   -6932.6703   -6882.4487   -563.35933    20433.769    1.7592632 
    3530    443.08768   -6932.0687   -6882.6416    88.615708    20416.591    1.7709336 
    3540    440.76096   -6931.9958   -6882.8283    696.33783    20399.634    1.7793043 
    3550    444.58204   -6932.6008    -6883.007     1146.525    20384.273    1.7839738 
    3560    449.57248   -6933.3404   -6883.1899    1249.2058    20371.518    1.7847728 
    3570      448.659   -6933.4392   -6883.3906    902.87886    20361.566    1.7826817 
    3580    443.37066    -6933.062   -6883.6034     518.0594    20353.703    1.7800309 
    3590    442.92765   -6933.2273    -6883.818    258.15161    20347.057     1.779742 
    3600    440.71465    -6933.192   -6884.0297    294.00743    20341.066    1.7836229 
    3610    434.54417   -6932.7034   -6884.2293    483.59979    20335.787    1.7916988 
    3620    435.04899   -6932.9385   -6884.4082    585.07542     20331.61    1.8034774 
    3630    439.16672   -6933.5531   -6884.5634    592.34617    20328.762     1.816874 
    3640    441.44639   -6933.9441   -6884.7001    898.86057     20327.36    1.8284651 
    3650    450.15504    -6935.043   -6884.8276     967.7099    20327.998    1.8362041 
    3660    464.07145   -6936.7383   -6884.9704    615.51959    20330.816    1.8421025 
    3670    463.11312    -6936.813    -6885.152    187.27132    20335.067    1.8499463 
    3680    452.89462    -6935.899   -6885.3779   -156.39179    20339.795    1.8599119 
    3690    439.67606   -6934.6691   -6885.6226   -364.56133    20344.215    1.8695923 
    3700    436.95497   -6934.6061   -6885.8631   -483.55614    20347.836    1.8766197 
    3710    433.54519   -6934.4537   -6886.0911   -383.50511    20350.396    1.8820836 
    3720    429.53207   -6934.2117   -6886.2967   -73.371958    20352.121    1.8881643 
    3730    436.71942   -6935.1967     -6886.48    157.89227    20353.679     1.895835 
    3740    441.64601   -6935.9119   -6886.6456    163.14313    20355.573     1.904915 
    3750    437.45544   -6935.5996   -6886.8008   -6.0897577    20357.811    1.9136609 
    3760      428.353   -6934.7178   -6886.9344   -67.106946    20360.085    1.9193376 
    3770     435.0204   -6935.5672   -6887.0401   -229.95866      20362.2    1.9205232 
    3780     450.1952   -6937.3495   -6887.1295    -460.9801    20363.781    1.9200715 
    3790    461.42192   -6938.7043   -6887.2319    -499.2338    20364.341    1.9217335 
    3800    461.21491   -6938.8255   -6887.3763   -134.56381    20363.831    1.9255261 
    3810    449.68396   -6937.7274   -6887.5644    369.03575    20363.043    1.9289198 
    3820    442.76602   -6937.1744   -6887.7832    418.14694     20363.01     1.929791 
    3830    437.63411   -6936.8378   -6888.0191     150.1631    20363.907    1.9272179 
    3840    441.23711   -6937.4919   -6888.2712   -514.55491    20365.078    1.9206115 
    3850    443.65668   -6938.0352   -6888.5446   -1070.2174    20365.096    1.9115898 
    3860     429.5564    -6936.744   -6888.8264   -980.39832     20362.78    1.9025836 
    3870    430.65347   -6937.1398   -6889.0998   -903.62675    20358.144     1.893509 
    3880    431.42747   -6937.4832   -6889.3568   -809.84542    20351.398    1.8846412 
    3890    424.38696   -6936.9324   -6889.5914   -503.27325    20342.795    1.8760292 
    3900    414.64814   -6936.0377   -6889.7831    17.479009    20333.042    1.8670857 
    3910    415.49344   -6936.2624   -6889.9135    213.41185    20323.197    1.8574823 
    3920     423.4117    -6937.214   -6889.9818    266.09292    20313.778    1.8479035 
    3930     423.0969   -6937.1886   -6889.9915     119.7167    20304.878    1.8388417 
    3940    428.77062   -6937.7747   -6889.9447   -228.77827    20296.189    1.8299133 
    3950    438.97551   -6938.8134   -6889.8451   -450.69367    20286.949    1.8232381 
    3960    437.27612   -6938.4798    -6889.701   -110.38094     20276.74    1.8216116 
    3970    427.76783   -6937.2271    -6889.509    477.94029    20266.283    1.8242042 
    3980    429.35081   -6937.1461   -6889.2514    924.02388    20256.856      1.82714 
    3990    439.36526   -6937.9326   -6888.9207    1034.2475    20249.438    1.8278877 
    4000    437.86569   -6937.3762   -6888.5316    1181.1779    20244.389    1.8257932 
    4010    436.35231   -6936.7766   -6888.1009    1069.0085    20241.948     1.820182 
    4020    443.75676   -6937.1405   -6887.6387    989.46056    20241.969    1.8124291 
    4030    450.17318   -6937.3912   -6887.1737    937.94891    20244.279    1.8059526 
    4040     448.9034   -6936.8201   -6886.7443    994.20108    20248.807    1.8028378 
    4050    442.79462   -6935.7612   -6886.3668    1053.2513    20255.648    1.8024759 
    4060    446.11832   -6935.7976   -6886.0325    814.60415    20264.904    1.8031183 
    4070    457.57498   -6936.7836   -6885.7404    372.64814    20276.076    1.8051142 
    4080    439.69314   -6934.5455    -6885.497    82.412927    20288.241    1.8099335 
    4090     430.0151    -6933.252   -6885.2832   -277.06133    20300.684    1.8149854 
    4100    434.98619   -6933.5871   -6885.0638   -500.15238    20312.619    1.8177831 
    4110    439.28645   -6933.8441   -6884.8411    -610.4266     20323.52    1.8185437 
    4120    449.41447   -6934.7599   -6884.6271   -1068.0638    20333.018    1.8182922 
    4130    455.97234   -6935.2948   -6884.4304   -1528.3711    20340.147    1.8186429 
    4140    459.52364   -6935.5259   -6884.2653   -1868.3061    20343.823    1.8216033 
    4150    454.90418   -6934.8813   -6884.1361   -1767.5287      20343.3    1.8288517 
    4160    443.41373   -6933.4931   -6884.0296   -1456.1728    20338.716    1.8390308 
    4170    447.64301   -6933.8643    -6883.929   -1178.6976     20330.72    1.8489127 
    4180    453.85297   -6934.4562   -6883.8283   -775.88071    20319.958    1.8584857 
    4190    454.26082   -6934.4094    -6883.736   -237.66753    20307.338    1.8692808 
    4200    450.11334   -6933.8591   -6883.6483    346.83457    20294.091    1.8808387 
    4210    459.51828   -6934.8262   -6883.5662    634.95089    20281.486    1.8911926 
    4220    468.14008   -6935.7275   -6883.5057    690.03551      20270.2    1.8998099 
    4230    460.84621    -6934.888   -6883.4799    836.87061    20260.431    1.9063937 
    4240     452.7334   -6933.9813   -6883.4782    1037.9708    20252.507    1.9099149 
    4250     444.2834   -6933.0369   -6883.4765    1338.2881    20246.928    1.9094331 
    4260    438.00599   -6932.3191   -6883.4589    1637.6877    20244.378    1.9052138 
    4270    438.13718    -6932.295   -6883.4202    1719.6497    20245.532    1.8984633 
    4280    442.10549   -6932.6771   -6883.3596    1418.0555    20250.573    1.8906375 
    4290    452.49067   -6933.7627   -6883.2867     843.2553    20258.884    1.8824421 
    4300    456.07198    -6934.089   -6883.2134     86.05594    20269.169    1.8736347 
    4310    456.42685   -6934.0675   -6883.1524    -249.8224    20279.832    1.8636789 
    4320    454.22282     -6933.78   -6883.1108    210.66655    20290.169    1.8520261 
    4330    439.32567   -6932.0867   -6883.0793     1195.875    20301.184    1.8371794 
    4340    430.81507   -6931.0888   -6883.0307    1858.5315    20314.985    1.8170296 
    4350    442.95219   -6932.3531   -6882.9411     1821.254    20333.071    1.7918616 
    4360    450.80076   -6933.0919   -6882.8044    1100.3265    20355.393    1.7639087 
    4370    451.16122    -6932.954   -6882.6262    193.02779    20380.418     1.734478 
    4380    455.72585   -6933.2434   -6882.4065   -793.67263    20406.004    1.7044154 
    4390    457.90126   -6933.2376    -6882.158   -1353.7205    20429.942    1.6755569 
    4400    455.42663   -6932.7023   -6881.8988   -1298.4979    20450.918    1.6505536 
    4410    448.77044   -6931.6894   -6881.6283   -962.04965    20468.955    1.6312244 
    4420    456.16361   -6932.2221   -6881.3364   -969.58774    20484.689    1.6164563 
    4430    470.06889   -6933.4566   -6881.0197   -1490.6947    20498.027    1.6049785 
    4440    477.23395   -6933.9507   -6880.7145   -1632.7286    20507.936    1.5965553 
    4450    473.46113   -6933.2641   -6880.4488   -1192.1285    20514.133    1.5898783 
    4460    476.23918   -6933.3535   -6880.2283   -768.09932    20517.528    1.5829361 
    4470    475.54798   -6933.1005   -6880.0524   -686.00104    20519.039    1.5755293 
    4480    471.49571   -6932.5274   -6879.9314   -926.25267    20518.862    1.5681896 
    4490    468.94154   -6932.1755   -6879.8643   -1286.5562    20516.492    1.5614045 
    4500    460.10852   -6931.1687   -6879.8429   -1362.4727     20511.18    1.5559618 
    4510    446.89826    -6929.694   -6879.8419   -1077.5187    20502.802    1.5512014 
    4520    453.41791   -6930.4185   -6879.8391    -757.1446    20491.975    1.5456137 
    4530    459.84868   -6931.1385   -6879.8417   -198.85453    20479.535    1.5405727 
    4540    458.24471   -6930.9872   -6879.8693    678.60561    20466.811    1.5378771 
    4550    455.66404   -6930.7507   -6879.9207    1443.5769     20455.76     1.537102 
    4560    458.29805   -6931.1243   -6880.0005    1592.0606    20448.035     1.536996 
    4570    461.84095   -6931.6449   -6880.1258    1200.1869    20443.973    1.5374267 
    4580    459.01829   -6931.5122    -6880.308    810.35307    20442.747    1.5393633 
    4590    458.60406   -6931.7096   -6880.5517    620.49585     20443.45    1.5428366 
    4600    460.06336   -6932.1841   -6880.8633    514.20948    20445.597    1.5463181 
    4610    460.75399   -6932.6421   -6881.2443    750.75399    20449.023    1.5471604 
    4620    466.73413    -6933.763   -6881.6981    930.28791    20454.156      1.54451 
    4630    460.98904   -6933.6291   -6882.2051    982.32278    20461.416    1.5409542 
    4640    459.20304   -6933.9561   -6882.7313    776.14831    20470.892    1.5383149 
    4650    464.72897   -6935.0993   -6883.2581    382.95814    20482.103    1.5370626 
    4660    462.10999   -6935.3125   -6883.7635    124.74628    20494.206    1.5372758 
    4670    454.16822   -6934.8816   -6884.2184   -90.375097    20506.577    1.5384852 
    4680    444.81671   -6934.2201   -6884.6001    -574.0924    20518.608    1.5402183 
    4690    433.73075   -6933.2811   -6884.8978   -873.80605    20529.286    1.5420965 
    4700    430.71465    -6933.158   -6885.1111   -1215.8837    20537.841    1.5429922 
    4710    438.89357    -6934.219   -6885.2598   -1563.7494    20543.493    1.5417036 
    4720    439.72354   -6934.4208    -6885.369   -1638.7719    20545.501    1.5391454 
    4730    432.20089   -6933.6604   -6885.4477    -1574.896    20543.692    1.5373014 
    4740    420.66898   -6932.4067   -6885.4805    -1611.764    20538.174    1.5372351 
    4750    416.25683   -6931.8852   -6885.4511    -1604.319    20528.927    1.5378114 
    4760    425.47265   -6932.8222   -6885.3601   -1435.2119    20516.045    1.5375206 
    4770    436.79664   -6933.9474    -6885.222   -1330.2653    20499.872    1.5368322 
    4780    443.17319   -6934.4891   -6885.0525   -1148.5478    20480.739    1.5370002 
    4790    453.67356    -6935.475    -6884.867   -894.48992    20459.104    1.5387167 
    4800    460.99286   -6936.1078   -6884.6833   -304.58814    20435.662    1.5439346 
    4810    453.78219   -6935.1317   -6884.5117    517.52411    20411.786    1.5547147 
    4820     450.4276   -6934.5907   -6884.3448    998.77292    20389.259    1.5704761 
    4830    456.86241   -6935.1475   -6884.1838    974.72752    20369.153    1.5886548 
    4840    455.73303    -6934.876   -6884.0383    1061.5468    20351.527    1.6061198 
    4850    449.23917   -6934.0186   -6883.9053    1379.8022    20336.573     1.620219 
    4860    443.20676   -6933.2109   -6883.7705    1511.8404    20324.881    1.6303827 
    4870    448.91037   -6933.7016    -6883.625    1519.0417    20316.737    1.6377626 
    4880    457.60478   -6934.5219   -6883.4754    1409.7766    20312.137    1.6446356 
    4890    455.91703   -6934.1988   -6883.3406    1070.7049    20310.757    1.6527074 
    4900    448.30378   -6933.2295   -6883.2206    822.43965    20311.849     1.661717 
    4910    445.81325   -6932.8303   -6883.0992    715.76777    20314.849    1.6698298 
    4920    448.24461   -6932.9666   -6882.9642    465.09762    20319.436    1.6760231 
    4930    448.08046   -6932.7991   -6882.8151    59.242958    20325.023     1.681166 
    4940    448.05137   -6932.6329   -6882.6521    -303.7161    20330.728    1.6863681 
    4950     454.8291   -6933.2135   -6882.4766    -346.0833    20335.779    1.6914373 
    4960    462.91134   -6933.9342   -6882.2958   -182.32748    20340.049     1.695478 
    4970    469.29594    -6934.479   -6882.1283     46.27847    20343.867    1.6975411 
    4980    458.74527   -6933.1581   -6881.9844    674.82186    20347.873    1.6979466 
    4990    454.67001    -6932.575   -6881.8559     952.4195    20353.343    1.6978326 
    5000    465.52164   -6933.6621   -6881.7325    714.06074    20360.882    1.6993189 
Loop time of 2252.18 on 16 procs for 3000 steps with 864 atoms

Performance: 0.115 ns/day, 208.535 hours/ns, 1.332 timesteps/s
97.6% CPU use with 16 MPI tasks x 1 OpenMP threads

MPI task timing breakdown:
Section |  min time  |  avg time  |  max time  |%varavg| %total
---------------------------------------------------------------
Pair    | 1210.3     | 1857.1     | 2237.2     | 610.0 | 82.46
Bond    | 0.0002861  | 0.00089934 | 0.0022135  |   0.0 |  0.00
Neigh   | 0.027424   | 0.041992   | 0.057388   |   4.4 |  0.00
Comm    | 5.13       | 291.97     | 870.27     |1462.9 | 12.96
Output  | 0.19029    | 0.19464    | 0.25811    |   3.7 |  0.01
Modify  | 0.2048     | 102.9      | 200.43     | 805.4 |  4.57
Other   |            | 0.0144     |            |       |  0.00

Nlocal:        54.0000 ave          70 max          35 min
Histogram: 1 1 1 3 1 1 2 2 2 2
Nghost:        495.562 ave         554 max         415 min
Histogram: 1 2 1 1 0 1 4 0 5 1
Neighs:         0.00000 ave           0 max           0 min
Histogram: 16 0 0 0 0 0 0 0 0 0
FullNghs:      2357.62 ave        3725 max        1161 min
Histogram: 1 3 2 1 2 0 4 1 0 2

Total # of neighbors = 37722
Ave neighs/atom = 43.659722
Ave special neighs/atom = 0.0000000
Neighbor list builds = 300
Dangerous builds = 300
unfix   2

fix     3 all npt temp 450.0 450.0 $(100.0*dt) aniso 1.01325 1.01325 $(1000.0*dt)
fix     3 all npt temp 450.0 450.0 0.10000000000000000555 aniso 1.01325 1.01325 $(1000.0*dt)
fix     3 all npt temp 450.0 450.0 0.10000000000000000555 aniso 1.01325 1.01325 1
run     20000
Per MPI rank memory allocation (min/avg/max) = 8.898 | 8.905 | 8.914 Mbytes
Step Temp PotEng TotEng Press Volume c_msd[4] 
    5000    465.52164   -6933.6621   -6881.7325    714.06074    20360.882    1.6993189 
    5010    458.45528   -6932.8901   -6881.7487    759.11776    20361.707    1.7046402 
    5020    448.89506   -6931.8594   -6881.7845    590.56573    20364.241    1.7117046 
    5030    450.88236   -6932.1192   -6881.8226    108.65691    20368.067    1.7177071 
    5040    456.15359   -6932.7467   -6881.8621   -142.47246     20372.23    1.7218674 
    5050    467.32228   -6934.0503   -6881.9198   -531.48897    20376.053    1.7245872 
    5060    479.45282   -6935.5091   -6882.0255   -1018.0587    20378.639    1.7273806 
    5070    477.16078   -6935.4375   -6882.2095   -1325.1039    20378.881    1.7318316 
    5080    454.48225   -6933.1569   -6882.4587   -1124.6752    20376.159    1.7383456 
    5090    441.90624   -6932.0265   -6882.7311   -806.78706    20370.838     1.745154 
    5100    441.55856   -6932.2596   -6883.0031   -220.81667    20363.696    1.7507799 
    5110    438.07531   -6932.1329    -6883.265    459.56655    20356.065    1.7555542 
    5120    438.75117   -6932.4562   -6883.5128    757.28879      20349.4      1.76038 
    5130    438.79176   -6932.6992   -6883.7513    708.71954      20344.4    1.7669661 
    5140    432.32704   -6932.1962   -6883.9694    377.06572    20340.969    1.7761978 
    5150    448.31223    -6934.188   -6884.1781   -316.32611    20338.312    1.7867304 
    5160    449.31759   -6934.5145   -6884.3924   -753.69653    20334.996    1.7969995 
    5170    435.95271   -6933.2451   -6884.6139   -704.34561    20330.031    1.8038267 
    5180    424.19487   -6932.1328   -6884.8132   -343.94926    20323.468     1.805175 
    5190    419.38207   -6931.7499   -6884.9672    93.594706    20316.116    1.8017703 
    5200    422.41803    -6932.188   -6885.0667    61.899969    20308.841     1.795823 
    5210    433.12627   -6933.4353   -6885.1194   -252.92437    20301.613    1.7907105 
    5220    441.88952   -6934.4368   -6885.1433   -295.70327    20293.828    1.7891572 
    5230    444.46952   -6934.7311   -6885.1499    190.84289    20285.423    1.7911618 
    5240    450.18806   -6935.3639   -6885.1448    951.56621    20277.471    1.7950776 
    5250    450.02338   -6935.3351   -6885.1343    1571.2573    20271.647    1.7986125 
    5260    449.21777   -6935.2341   -6885.1232    1771.3936     20269.32    1.7999655 
    5270    454.95174   -6935.8655    -6885.115      1653.85        20271    1.7996723 
    5280    450.37596   -6935.3552   -6885.1151     1384.544    20276.471    1.7986757 
    5290    443.39742   -6934.5783   -6885.1167    1194.2903    20285.208    1.7955209 
    5300    444.67039   -6934.7094   -6885.1057    1013.1941    20296.766    1.7893293 
    5310    445.63609   -6934.7904    -6885.079    1042.3849    20310.818    1.7825513 
    5320    439.78193   -6934.0951   -6885.0368    1213.7447    20327.441    1.7767895 
    5330    436.25718   -6933.6337   -6884.9685    1176.3309    20346.996    1.7711833 
    5340    444.49141   -6934.4436     -6884.86    574.38614    20369.345    1.7655531 
    5350    451.35692   -6935.0632   -6884.7137   -21.444453    20393.249    1.7622121 
    5360    446.29551   -6934.3322   -6884.5472   -134.35825    20417.437    1.7636878 
    5370    447.27586   -6934.2589   -6884.3646   -244.94928    20441.525    1.7693701 
    5380    451.67062   -6934.5476   -6884.1631    -341.9992    20465.264    1.7773399 
    5390    441.84518   -6933.2422   -6883.9537   -37.592086    20488.517    1.7862361 
    5400    441.26185   -6932.9526   -6883.7292   -39.635197    20511.839    1.7936715 
    5410    459.07795   -6934.6852   -6883.4744   -789.39269    20535.124    1.7980195 
    5420    462.56113   -6934.8145   -6883.2151   -1220.3843    20556.837     1.800085 
    5430    444.79561   -6932.5957   -6882.9781   -1133.1625     20575.96    1.8002271 
    5440    440.39563   -6931.8699   -6882.7431   -1362.5712    20592.479    1.7980152 
    5450    449.14064   -6932.5898   -6882.4875   -1519.9258    20605.935     1.794486 
    5460    453.84177   -6932.8535   -6882.2268   -1514.3526    20615.922    1.7914981 
    5470    462.13166   -6933.5315     -6881.98   -1397.5699    20622.432     1.790829 
    5480    469.45709   -6934.1317   -6881.7631   -1105.8295      20625.7    1.7937465 
    5490    466.84532   -6933.6678   -6881.5905   -722.95097    20626.379    1.7987373 
    5500    466.09435   -6933.4548   -6881.4613    -598.9463    20625.288    1.8022227 
    5510    465.21259   -6933.2658   -6881.3706   -561.95042    20622.748    1.8020763 
    5520     456.6933   -6932.2565   -6881.3117    -450.7983    20618.874    1.7994264 
    5530    452.28322   -6931.7237   -6881.2708    -498.2269    20613.848    1.7972431 
    5540    451.90106   -6931.6488   -6881.2386   -491.13944    20607.582    1.7968613 
    5550    447.33823   -6931.1077   -6881.2064   -130.47663    20600.142    1.7977269 
    5560    457.15221   -6932.1665   -6881.1705    123.97566    20592.297    1.7997108 
    5570    466.88972   -6933.2276   -6881.1453     114.8875    20584.622    1.8042785 
    5580    462.18087   -6932.7091   -6881.1521    80.504441    20577.132    1.8108585 
    5590    458.33367   -6932.3174   -6881.1896    6.9382673    20569.753    1.8169504 
    5600    462.71445   -6932.8717   -6881.2552   -80.780783      20562.3    1.8215376 
    5610    464.82932   -6933.2107   -6881.3583    48.330917    20554.614    1.8244744 
    5620    458.77505    -6932.682   -6881.5049    364.75565    20546.988    1.8254754 
    5630    450.90097   -6931.9771   -6881.6784    804.46903    20540.165    1.8250102 
    5640    452.55433   -6932.3545   -6881.8714    1107.2935     20535.12    1.8244727 
    5650    451.43459   -6932.4457   -6882.0875      1293.27    20532.612    1.8263356 
    5660     447.3097   -6932.2294   -6882.3313    1434.0013    20533.138     1.831454 
    5670    444.97642   -6932.2343   -6882.5965    1293.8264    20537.017    1.8371168 
    5680    452.98406   -6933.4108   -6882.8798    583.88526    20543.917     1.840923 
    5690     462.7012   -6934.8066   -6883.1916   -336.67391    20552.257    1.8439133 
    5700    457.78773   -6934.6112   -6883.5443   -637.43984    20560.041    1.8476563 
    5710    442.61015   -6933.2905   -6883.9166   -206.54866    20566.566    1.8515621 
    5720    442.03398   -6933.5862   -6884.2767    221.20603      20572.7    1.8542079 
    5730    454.87287   -6935.3673   -6884.6255    282.88489    20579.382    1.8560482 
    5740     452.0121   -6935.3945   -6884.9719    413.09986    20586.856    1.8590144 
    5750     435.9781   -6933.9246   -6885.2906     589.8591    20595.446    1.8625935 
    5760    440.87114   -6934.7407   -6885.5608    248.07211    20605.424    1.8650527 
    5770    448.39103   -6935.8121   -6885.7934   -64.786164    20616.134     1.868013 
    5780     436.5819   -6934.6859   -6885.9845    -134.2457    20626.885    1.8723762 
    5790    442.83646   -6935.5294   -6886.1303   -375.19239    20637.389    1.8763629 
    5800    454.53178   -6936.9504   -6886.2467   -531.16947    20647.132    1.8798136 
    5810      446.226   -6936.1319   -6886.3547   -169.36567    20655.841    1.8819597 
    5820    428.66715   -6934.2568   -6886.4383    362.90664    20664.276    1.8800766 
    5830    427.26873   -6934.1376   -6886.4752    702.92245    20673.637    1.8736188 
    5840     445.3014   -6936.1474   -6886.4734    566.85554    20684.709    1.8652683 
    5850    449.95884   -6936.6512   -6886.4576    112.35828    20697.199    1.8590743 
    5860     437.5887   -6935.2465   -6886.4328   -510.34858     20710.08    1.8565972 
    5870    443.20138   -6935.8279   -6886.3881   -1599.6347    20721.788    1.8562222 
    5880    448.86919   -6936.4011    -6886.329   -2557.2052    20729.811    1.8575431 
    5890    446.88079   -6936.1243   -6886.2741   -2862.5122    20731.897    1.8601182 
    5900    453.19914    -6936.786    -6886.231   -2851.7519    20727.156    1.8623562 
    5910     457.1277   -6937.2023    -6886.209   -2660.2357    20715.531    1.8633884 
    5920    449.94831   -6936.4017   -6886.2093   -2320.9954    20697.396    1.8621483 
    5930    445.36651   -6935.8991   -6886.2178   -1645.3154    20673.567    1.8573892 
    5940    440.49834   -6935.3469   -6886.2086   -820.66521    20645.575    1.8500214 
    5950    437.21022   -6934.9428   -6886.1714   -117.27294    20615.311     1.842018 
    5960    429.05377   -6933.9552   -6886.0936    482.69704    20584.471    1.8350735 
    5970    432.44729   -6934.2163   -6885.9761    626.00069     20554.39     1.829677 
    5980    442.70969   -6935.2117   -6885.8268    554.77049    20525.486    1.8271578 
    5990    456.54793   -6936.5992   -6885.6706    820.59154    20497.706    1.8292282 
    6000    452.42134   -6935.9869   -6885.5186    1559.0892    20471.706    1.8357825 
    6010    455.66187   -6936.2044   -6885.3746    2214.5872     20449.14    1.8434322 
    6020    469.26508   -6937.6004   -6885.2532    2428.4117    20431.481    1.8497109 
    6030    464.82949   -6937.0278   -6885.1754    2684.8278    20419.368    1.8555846 
    6040    467.31378   -6937.2791   -6885.1495    2827.1423    20413.402    1.8630873 
    6050    469.80992    -6937.584    -6885.176    2701.8663    20413.946     1.873537 
    6060    463.47566   -6936.9545   -6885.2531    2079.1054     20420.71    1.8850587 
    6070    458.84374   -6936.5477   -6885.3629    1338.8766    20432.411    1.8949683 
    6080    451.88808   -6935.8914   -6885.4826    873.44949    20447.451    1.9039486 
    6090    449.68867   -6935.7612   -6885.5977    623.12369    20464.776    1.9142969 
    6100    450.84816   -6935.9991   -6885.7064    435.62742    20483.784    1.9273552 
    6110    448.99982   -6935.8961   -6885.8095     323.3917    20504.074    1.9432485 
    6120    441.65692   -6935.1649   -6885.8974    55.021349    20525.317     1.961069 
    6130    436.42146   -6934.6357   -6885.9522   -190.68749    20546.955    1.9784952 
    6140    441.68726    -6935.246   -6885.9751   -740.56309    20568.315    1.9933597 
    6150    435.21091   -6934.5178   -6885.9694   -1375.7368    20588.125     2.005856 
    6160    432.69732   -6934.2002   -6885.9322   -1922.8769    20604.886    2.0167656 
    6170    442.63614   -6935.2428   -6885.8661   -2230.3894    20617.292    2.0275712 
    6180    440.61096   -6934.9368   -6885.7859   -2077.5205    20624.603    2.0410163 
    6190    433.39096   -6934.0451   -6885.6997   -1762.8043    20627.065    2.0578569 
    6200    427.53386   -6933.2868   -6885.5948   -1524.6529    20625.334    2.0754339 
    6210    425.16602   -6932.8898   -6885.4619   -1273.2489    20619.962    2.0896405 
    6220    429.00951   -6933.1641   -6885.3074   -850.49958     20611.56    2.0985242 
    6230     430.9976   -6933.2192   -6885.1408   -431.38978    20601.094    2.1028264 
    6240    436.34201   -6933.6457   -6884.9711    -441.0755     20589.45     2.104154 
    6250    442.34484   -6934.1458   -6884.8016   -573.47512    20576.662    2.1048482 
    6260    452.75996   -6935.1491    -6884.643   -316.72066    20562.541    2.1064076 
    6270    454.88688    -6935.246   -6884.5026    176.99415    20547.645    2.1101524 
    6280     451.4165   -6934.7417   -6884.3855    399.14175     20533.03     2.117084 
    6290    455.45283   -6935.0963   -6884.2898    290.94162    20519.203    2.1270961 
    6300    457.43961   -6935.2458   -6884.2177    280.88174        20506    2.1393426 
    6310    448.19267    -6934.161   -6884.1645    317.72088    20493.388    2.1516283 
    6320    440.96466   -6933.3026   -6884.1123    241.67635    20481.427    2.1611464 
    6330    445.23364   -6933.7147   -6884.0482   -64.447254    20469.913    2.1658734 
    6340    446.72891   -6933.8066   -6883.9733   -95.258112    20458.256    2.1667417 
    6350    452.43824   -6934.3648   -6883.8947    88.473857     20446.34    2.1658846 
    6360    462.83369   -6935.4528    -6883.823    361.59034    20434.569    2.1653523 
    6370    463.55983   -6935.4835   -6883.7727    769.45659    20423.605    2.1665851 
    6380    462.05373   -6935.2963   -6883.7535    1187.4871    20414.359    2.1695018 
    6390    449.70843    -6933.921   -6883.7554    1845.1245    20407.875    2.1737712 
    6400    447.36394   -6933.6664   -6883.7623    2057.7365    20405.568    2.1779873 
    6410    466.49973   -6935.8177    -6883.779    1294.4379    20407.847    2.1816893 
    6420    469.23263   -6936.1736     -6883.83    635.44943    20413.223    2.1855414 
    6430    457.29145   -6934.9356   -6883.9241    399.80519    20420.221    2.1882177 
    6440    459.65532   -6935.3298   -6884.0545    308.11033    20428.245    2.1881656 
    6450    450.43903    -6934.457   -6884.2098    546.85976    20437.144    2.1871877 
    6460    442.37669   -6933.7225   -6884.3747    778.14598    20447.408    2.1865914 
    6470    450.69519   -6934.8195   -6884.5438    601.48703    20459.523    2.1866446 
    6480    447.58665   -6934.6492   -6884.7203    258.33204     20473.16    2.1877655 
    6490    448.37122   -6934.9235    -6884.907   -348.95011    20487.506    2.1876275 
    6500    460.95364   -6936.5273   -6885.1073   -1044.7748    20501.164    2.1837683 
    6510    460.54833   -6936.7119    -6885.337   -1246.1519    20512.622    2.1763119 
    6520    452.73621   -6936.1015   -6885.5981   -1517.5653    20521.226    2.1659035 
    6530    450.65402    -6936.166   -6885.8949   -1687.7437     20526.35    2.1545021 
    6540    440.54177   -6935.3592   -6886.2161   -1497.2792    20527.619    2.1451885 
    6550    428.70343    -6934.348   -6886.5255   -1149.2664    20525.389      2.13913 
    6560    432.00235   -6934.9952   -6886.8047   -750.08383     20520.43    2.1348823 
    6570    436.85935   -6935.7864   -6887.0541   -154.86323    20513.706    2.1316526 
    6580    423.75206   -6934.5305   -6887.2603    517.81288    20506.597    2.1298293 
    6590     421.8263   -6934.4662   -6887.4109    596.62268    20500.528    2.1275777 
    6600    435.08083   -6936.0554   -6887.5215    229.07459    20495.729    2.1237805 
    6610      433.817   -6935.9998   -6887.6068    13.467036     20491.48    2.1200377 
    6620    429.11873   -6935.5323   -6887.6634     -116.299    20487.254    2.1175905 
    6630    433.26259   -6936.0129   -6887.6818   -547.02509    20482.645    2.1148282 
    6640    441.48138   -6936.9171   -6887.6692   -789.96595     20476.75    2.1103236 
    6650    436.71721   -6936.3491   -6887.6326   -289.55786    20469.107    2.1059913 
    6660    423.55057   -6934.7978   -6887.5501    388.83338    20460.751    2.1039088 
    6670     436.1558   -6936.0561   -6887.4023    700.84235    20453.156    2.1046251 
    6680    444.38943   -6936.7587   -6887.1863    885.07054    20447.124    2.1100462 
    6690    435.03429   -6935.4421   -6886.9134     880.9355    20443.088    2.1196248 
    6700    435.05368   -6935.0983   -6886.5674    538.22234    20441.002    2.1291499 
    6710    436.85447   -6934.8541   -6886.1223    467.16563    20440.244    2.1360363 
    6720    445.17021   -6935.2472   -6885.5878    644.44786    20440.619    2.1408059 
    6730    442.29112   -6934.3376   -6884.9994    1027.6014    20442.543    2.1451146 
    6740    437.41286   -6933.2093   -6884.4152    1435.6006    20446.901    2.1494862 
    6750    439.94782   -6932.9454   -6883.8685    1637.1785    20454.639    2.1527677 
    6760    448.09758   -6933.3762   -6883.3902    1461.3337    20466.187    2.1534702 
    6770    450.89496    -6933.301    -6883.003    1305.2094    20481.258    2.1526753 
    6780    454.12311   -6933.3652    -6882.707    1199.7436    20499.539    2.1526327 
    6790     461.5375   -6933.9716   -6882.4864     916.8757    20520.778    2.1538383 
    6800    465.76611   -6934.2856   -6882.3287    527.71915     20544.35     2.155293 
    6810    470.79209   -6934.7518   -6882.2343    135.03664    20569.359    2.1567023 
    6820    462.79952   -6933.8214   -6882.1954    59.471109    20594.969     2.159084 
    6830    455.77259   -6933.0363   -6882.1942     59.04426     20620.95    2.1622232 
    6840    462.36691   -6933.7908    -6882.213   -77.702602    20647.269    2.1659002 
    6850    461.26889   -6933.7073    -6882.252   -162.32123    20673.643    2.1699094 
    6860    455.25536   -6933.0947   -6882.3103   -274.20437    20699.832    2.1732652 
    6870    454.35713   -6933.0581   -6882.3739   -619.57391    20725.506    2.1763309 
    6880    454.72567   -6933.1626   -6882.4373   -1090.1998    20749.855    2.1800745 
    6890     453.8021   -6933.1258   -6882.5034   -1490.9562    20771.778    2.1852564 
    6900    451.34581   -6932.9248   -6882.5765   -1932.2747    20790.232    2.1915484 
    6910    440.70227   -6931.8037   -6882.6427     -2213.28    20804.159    2.1973634 
    6920    451.28902   -6933.0455   -6882.7035   -2467.4139    20812.787    2.2009992 
    6930    461.71862   -6934.2847   -6882.7793   -2373.2779    20815.565    2.2034421 
    6940    456.08692    -6933.768   -6882.8908   -1941.1882    20812.662    2.2051187 
    6950    442.48793   -6932.3797   -6883.0195   -1391.6583    20805.072    2.2044291 
    6960    438.16943   -6932.0134   -6883.1349   -1005.0056    20794.049    2.2000507 
    6970    444.94464   -6932.8709   -6883.2366    -846.8724     20780.49    2.1940958 
    6980    443.81903   -6932.8369   -6883.3282   -795.19403    20764.818    2.1898569 
    6990    446.16212   -6933.1896   -6883.4196    -1098.298    20747.086    2.1868796 
    7000    446.81032   -6933.3513   -6883.5089   -1140.9294    20726.712    2.1842161 
    7010    452.07042   -6934.0251    -6883.596   -862.28468    20703.572    2.1823692 
    7020    447.07915   -6933.5472   -6883.6748   -305.37443    20678.352    2.1820036 
    7030    443.66529   -6933.2389   -6883.7474    116.27803    20652.281    2.1824138 
    7040    441.85598   -6933.1014   -6883.8117    577.83405    20626.422    2.1831768 
    7050     443.5299   -6933.3354    -6883.859    1003.7958    20601.871     2.184621 
    7060    455.63612   -6934.7203   -6883.8934    1217.5119    20579.608    2.1871863 
    7070    465.73449   -6935.8914    -6883.938     1492.938    20560.207    2.1910521 
    7080    463.27674   -6935.6957   -6884.0165    2037.8603    20544.355     2.194972 
    7090    458.54284   -6935.2928   -6884.1417    2393.6701    20533.237    2.1975769 
    7100    454.19546   -6934.9822    -6884.316    2274.9021    20527.655    2.1991473 
    7110    444.34446   -6934.0942   -6884.5269    1798.6598    20527.335    2.2001739 
    7120    432.94843   -6933.0411    -6884.745    1217.9369    20531.226    2.1989698 
    7130    433.19757   -6933.2737   -6884.9498    810.54825    20538.031    2.1941426 
    7140    439.41133   -6934.1584   -6885.1414    791.88659    20546.845     2.187461 
    7150     443.7232   -6934.8249   -6885.3269    945.72381    20557.606    2.1818664 
    7160    447.90776   -6935.4783   -6885.5135    718.35097    20570.569    2.1798513 
    7170    448.34419   -6935.7163   -6885.7029    309.82837    20585.264    2.1823704 
    7180    450.28805   -6936.1296   -6885.8993   -215.68736    20600.724    2.1883875 
    7190    455.61643   -6936.9396   -6886.1149   -708.22089    20615.741    2.1961268 
    7200    450.84745   -6936.6479   -6886.3552    -921.5978    20629.197    2.2038077 
    7210    448.26244   -6936.6204    -6886.616   -966.80553     20640.55    2.2098228 
    7220    440.56809   -6936.0317   -6886.8857   -1042.1651    20649.623    2.2142373 
    7230      432.111   -6935.3479   -6887.1452   -1133.5632    20656.219    2.2170558 
    7240    430.18279   -6935.3692   -6887.3816   -1155.4395     20660.14    2.2186535 
    7250    423.22792   -6934.7924   -6887.5807   -1082.2333    20661.345    2.2206231 
    7260    423.08646   -6934.9279    -6887.732   -1304.7162    20659.905    2.2225671 
    7270     428.4421   -6935.6265   -6887.8331   -1664.2496    20655.327    2.2231462 
    7280    431.46456   -6936.0262   -6887.8956   -1655.8266    20646.854    2.2217502 
    7290    435.01135   -6936.4516   -6887.9254    -1236.631    20634.499    2.2186298 
    7300    442.66865   -6937.3087   -6887.9283   -706.51331    20619.188    2.2152412 
    7310    434.83842   -6936.4113   -6887.9045    -64.94579    20602.228      2.21404 
    7320      423.496   -6935.0806    -6887.839    345.79113     20585.06    2.2145994 
    7330    427.22123   -6935.3686   -6887.7114    448.23947     20568.62    2.2143612 
    7340    427.29522   -6935.1746   -6887.5091    486.97937     20553.19     2.213526 
    7350    422.27366   -6934.3331   -6887.2279    462.60617    20538.856    2.2129203 
    7360    433.27929   -6935.1851   -6886.8522    302.43695    20525.537     2.212714 
    7370    455.64828   -6937.2121   -6886.3839    399.00993    20512.944     2.214679 
    7380    455.78211   -6936.7168   -6885.8736    1004.8408    20501.361    2.2207595 
    7390    448.87959   -6935.4482    -6885.375    1536.3454    20492.089     2.229073 
    7400    456.26759   -6935.8015   -6884.9041      1688.74    20486.289    2.2359864 
    7410    455.31316   -6935.2741   -6884.4832     2156.956    20484.504    2.2395336 
    7420     445.5086   -6933.8314   -6884.1342    2533.4567    20487.731    2.2381367 
    7430    446.02986   -6933.6003    -6883.845    2416.1753    20496.839    2.2318199 
    7440    457.87323   -6934.6792   -6883.6027    1734.2151    20511.568    2.2246659 
    7450    461.53784   -6934.8985   -6883.4133    1188.9874    20530.527    2.2205426 
    7460    457.79137   -6934.3446   -6883.2772    757.76668    20552.463    2.2195704 
    7470    468.55127    -6935.454   -6883.1864    213.72009    20576.337    2.2212224 
    7480    467.03918   -6935.2366   -6883.1376   -234.20973    20600.927    2.2266216 
    7490    454.02538   -6933.7699   -6883.1227   -637.36369    20625.165    2.2343249 
    7500    444.79535   -6932.7309   -6883.1133   -1212.0843    20648.038    2.2399617 
    7510    437.21381   -6931.8591   -6883.0872   -1665.8134    20668.238    2.2405385 
    7520    438.91109   -6931.9952    -6883.034   -2114.4354    20684.595     2.237324 
    7530    447.40055   -6932.8704   -6882.9622   -2294.7867     20696.06    2.2342516 
    7540    449.13683   -6932.9947   -6882.8928   -2072.8644      20702.2    2.2324301 
    7550    442.35805   -6932.1802   -6882.8345   -1906.2259    20703.396    2.2307424 
    7560    436.52989   -6931.4666   -6882.7711    -1945.671    20699.983    2.2280116 
    7570    441.70852   -6931.9615   -6882.6883   -2095.3786    20691.858    2.2237441 
    7580    444.58043   -6932.1813   -6882.5876   -2295.9238     20678.64    2.2195527 
    7590    451.65431   -6932.8664   -6882.4837   -2298.4591    20659.885    2.2168064 
    7600    465.18554   -6934.2802   -6882.3881   -1930.5204    20635.606    2.2153517 
    7610     470.1232   -6934.7627   -6882.3197   -1290.1933    20606.633    2.2141235 
    7620    457.96532   -6933.3644   -6882.2777   -352.81696    20574.518    2.2131896 
    7630    453.07938   -6932.7872   -6882.2455    211.88822    20541.322    2.2133325 
    7640     460.9364   -6933.6342    -6882.216    675.36437    20508.485    2.2156988 
    7650    465.05538   -6934.0725   -6882.1948    1333.3845    20477.198    2.2212979 
    7660    465.22507   -6934.0881   -6882.1915    1790.2719    20448.921    2.2293167 
    7670    461.22486   -6933.6689   -6882.2185    2101.5228    20424.757     2.237096 
    7680    452.72627   -6932.7836   -6882.2813    2487.0852    20405.484    2.2432051 
    7690    444.13679   -6931.9079   -6882.3637    2892.9663    20391.982    2.2471071 
    7700    447.11202   -6932.3296   -6882.4535    2929.8873    20385.116    2.2485225 
    7710    454.75845     -6933.29    -6882.561    2588.1728    20384.959    2.2485438 
    7720    455.28819   -6933.4901    -6882.702    2118.4627    20390.806    2.2494238 
    7730    458.76168   -6934.0608   -6882.8853    1335.1124    20401.526    2.2532267 
    7740    457.08923   -6934.1013   -6883.1123    456.56529    20415.365    2.2604191 
    7750    451.71015   -6933.7691   -6883.3801   -273.79792    20430.358    2.2685054 
    7760    459.25206   -6934.9218   -6883.6916   -1028.6571    20444.746    2.2743739 
    7770    468.84923   -6936.3716   -6884.0707   -1684.2715    20456.772    2.2766183 
    7780    467.08176   -6936.6365   -6884.5328   -1944.9906    20464.973    2.2746904 
    7790    458.02578   -6936.1496   -6885.0562   -1723.6331    20468.745    2.2697496 
    7800    450.07221   -6935.7926   -6885.5864   -1242.6156    20468.538     2.264979 
    7810    448.64574   -6936.1279   -6886.0808   -838.42884    20465.414    2.2637774 
    7820    445.71899   -6936.2318   -6886.5112   -503.21362    20460.318    2.2663747 
    7830    437.91056    -6935.707   -6886.8574   -255.79276    20454.022    2.2699546 
    7840    436.84874   -6935.8486   -6887.1175     15.19324    20447.135    2.2728689 
    7850    436.77118   -6936.0247   -6887.3022    231.04484    20440.271    2.2746353 
    7860    443.11797    -6936.865   -6887.4345    143.58501    20433.867    2.2742412 
    7870    445.54605    -6937.237   -6887.5356   -58.063097    20427.741    2.2732091 
    7880    437.33088   -6936.3965   -6887.6115   -28.557883    20421.492    2.2749338 
    7890    425.69173   -6935.1362   -6887.6496    253.73704    20415.199    2.2806313 
    7900    421.67878   -6934.6736   -6887.6347    542.89503    20409.498    2.2874151 
    7910    429.78844    -6935.511   -6887.5674    484.41121     20404.97    2.2925357 
    7920    429.27734   -6935.3452   -6887.4587    396.37823    20401.543    2.2948827 
    7930    421.52345   -6934.3342   -6887.3126    550.72112    20399.066    2.2931358 
    7940    423.05734   -6934.3127   -6887.1201    632.02939    20397.848    2.2875309 
    7950    431.64674   -6935.0301   -6886.8793    552.79111    20398.065     2.282069 
    7960    437.98044   -6935.4616   -6886.6042    692.22641    20399.636    2.2803956 
    7970    450.61272   -6936.5813   -6886.3148    689.26231    20402.808     2.282324 
    7980    465.40186   -6937.9525   -6886.0362    502.83281    20407.576    2.2859582 
    7990    468.52079   -6938.0637   -6885.7995    399.35293    20413.563    2.2898512 
    8000    464.32399   -6937.4138   -6885.6178    227.84475    20420.507    2.2926181 
    8010    462.66385   -6937.0909   -6885.4801   -252.20469    20427.976    2.2930411 
    8020    460.67113   -6936.7663   -6885.3777   -538.62271    20434.947    2.2923287 
    8030    448.83832    -6935.371   -6885.3024   -279.56472     20440.84    2.2938274 
    8040    444.19218   -6934.7838   -6885.2335    190.38599    20446.188    2.2983359 
    8050    454.63187   -6935.8764   -6885.1615    583.93203    20452.028    2.3057622 
    8060    455.25896   -6935.8817   -6885.0969    740.37381    20459.251    2.3178318 
    8070    444.46529   -6934.6233   -6885.0425    626.60845    20468.235    2.3327982 
    8080    441.27605   -6934.2016   -6884.9766    143.55175    20478.733    2.3457521 
    8090      449.793   -6935.0664   -6884.8913   -459.81172    20489.658    2.3556402 
    8100    445.55965   -6934.4963   -6884.7934   -674.89337    20499.698    2.3647345 
    8110    442.67459   -6934.0674   -6884.6864   -784.41776    20508.271    2.3752978 
    8120    442.80303   -6933.9556   -6884.5602   -853.22181    20515.095    2.3883592 
    8130    435.08842   -6932.9468   -6884.4121   -767.85138    20520.012    2.4015559 
    8140    429.84087   -6932.1727   -6884.2233   -700.07002    20523.189    2.4110328 
    8150    445.36614   -6933.6663    -6883.985   -1046.0062     20524.65    2.4162921 
    8160    447.68583   -6933.6526   -6883.7126   -1300.8174    20523.676    2.4199355 
    8170    431.26729   -6931.5328   -6883.4243   -1267.0382    20519.675    2.4220826 
    8180    434.82856   -6931.6038    -6883.098    -1128.982    20512.661     2.419714 
    8190    458.46404   -6933.8658   -6882.7234   -1145.2232    20502.865    2.4125278 
    8200    468.08673   -6934.5612   -6882.3454   -951.71583    20490.324    2.4042678 
    8210    476.73276   -6935.1956   -6882.0154   -942.00543    20475.355    2.3982892 
    8220    490.57467   -6936.4891   -6881.7647   -883.22937     20458.02    2.3968372 
    8230    481.73692   -6935.3519   -6881.6134   -193.13332    20438.559    2.4015888 
    8240    464.94293   -6933.4018   -6881.5368    601.82131    20418.457    2.4106303 
    8250    459.68502   -6932.7739   -6881.4954    883.89517    20399.412    2.4196181 
    8260    462.28648   -6933.0439   -6881.4752    1141.1443    20382.214    2.4255821 
    8270    461.91231   -6933.0053   -6881.4783    1490.5113    20367.511    2.4276026 
    8280    458.76266   -6932.6828   -6881.5071    1959.7322    20356.126    2.4255797 
    8290      459.996   -6932.8763   -6881.5631    2330.4532    20349.136    2.4191215 
    8300    469.23918   -6933.9971   -6881.6528    2228.6475    20347.381    2.4086827 
    8310    474.01166   -6934.6621   -6881.7854    1824.5378    20350.737    2.3983109 
    8320    466.20212   -6933.9648   -6881.9592    1404.4514    20358.388    2.3928532 
    8330    454.29426   -6932.8221   -6882.1449    1140.9528    20369.474    2.3927309 
    8340    457.17727   -6933.3204   -6882.3216    607.15114    20383.309    2.3946784 
    8350    457.08751   -6933.4672   -6882.4784    192.20691    20398.792    2.3957855 
    8360    462.30275    -6934.193   -6882.6224    2.3689096    20414.984    2.3939297 
    8370    467.26258   -6934.8884   -6882.7645    7.7670698    20431.444    2.3887329 
    8380    459.37475   -6934.1516   -6882.9076    17.970789    20448.122    2.3810544 
    8390    459.69589   -6934.3248    -6883.045   -151.19679    20465.014    2.3727859 
    8400    474.81585   -6936.1571   -6883.1906   -308.75349    20481.768    2.3683739 
    8410    469.66828   -6935.7459   -6883.3537   -119.15328    20498.104    2.3717908 
    8420    463.31518   -6935.2072   -6883.5237   -283.41051    20514.268    2.3808211 
    8430    465.65124   -6935.6293   -6883.6853   -519.07415    20529.945    2.3900817 
    8440    477.96131   -6937.1781   -6883.8608   -885.36398    20544.507    2.3969898 
    8450    467.87894   -6936.2568   -6884.0642   -791.44504    20557.211    2.4019996 
    8460    450.80766   -6934.5646   -6884.2763   -517.91846    20568.196    2.4032485 
    8470    450.69235   -6934.7453   -6884.4699   -615.14919    20577.973    2.3990168 
[...]
   22890    442.07989   -6941.9808   -6892.6661   -87.235468    20611.184    3.9452165 
   22900    444.43796   -6942.0772   -6892.4995   -78.208587    20620.298    3.9399794 
   22910    446.96446   -6942.1341   -6892.2745    334.87967     20629.42    3.9362626 
   22920    449.74888   -6942.1556   -6891.9854    713.20597    20639.462    3.9347194 
   22930    457.40716   -6942.6538   -6891.6293    543.57565    20651.235    3.9341352 
   22940    463.40649   -6942.9124   -6891.2187    63.588948    20664.419    3.9338346 
   22950     457.1436   -6941.7745   -6890.7794   -352.55041     20677.94    3.9341211 
   22960    448.95895   -6940.4092   -6890.3271   -670.16856    20690.796    3.9346892 
   22970    447.52283   -6939.7841   -6889.8623   -941.36443    20702.229    3.9348815 
   22980    457.93108   -6940.4779    -6889.395   -1008.0202    20711.597    3.9347992 
   22990    462.82874   -6940.5867   -6888.9575   -641.27379    20718.746    3.9378702 
   23000    447.18482   -6938.4643   -6888.5801   -117.01861    20724.505    3.9463629 
   23010    441.97095   -6937.5521   -6888.2495   -333.68876      20729.9    3.9573768 
   23020    450.67643   -6938.2136     -6887.94   -757.53308    20734.534    3.9673541 
   23030    459.61361   -6938.9357   -6887.6651   -885.85266    20737.477    3.9757896 
   23040    460.69363   -6938.8317   -6887.4406   -671.02497    20738.408    3.9846951 
   23050    465.76262   -6939.2257   -6887.2692   -626.50116    20737.708    3.9964683 
   23060    474.36954   -6940.0703   -6887.1537    -671.0916    20735.488    4.0125137 
   23070    464.71803   -6938.9386   -6887.0986   -314.31416    20731.703    4.0318417 
   23080    451.35644   -6937.4292   -6887.0797    15.588655     20727.08    4.0505808 
   23090    447.89916   -6937.0269    -6887.063   -22.936734    20722.358    4.0662625 
   23100    452.02881   -6937.4659   -6887.0414   -326.91422    20717.461     4.080104 
   23110    457.19576   -6938.0279   -6887.0271   -355.86641     20711.77    4.0949657 
   23120    449.60208   -6937.1726   -6887.0188   -220.62483    20705.192    4.1122292 
   23130    457.69301   -6938.0763   -6887.0199   -510.75478    20697.871    4.1296532 
   23140    467.47859   -6939.1893   -6887.0414   -679.11478    20689.229    4.1446536 
   23150    468.11715   -6939.3237   -6887.1046   -320.44996     20678.94    4.1546463 
   23160    457.29079   -6938.2174   -6887.2059     338.1389    20667.789    4.1589812 
   23170     446.3414   -6937.1129   -6887.3229    751.27733    20657.238    4.1595763 
   23180    452.54748   -6937.9242   -6887.4419    254.61236    20648.134    4.1579536 
   23190     458.4884   -6938.7156   -6887.5705   -527.31412    20639.453      4.15582 
   23200    455.81133   -6938.5698   -6887.7233   -912.41266    20629.454    4.1559603 
   23210    450.79008   -6938.1839   -6887.8976   -835.41751    20617.227    4.1594076 
   23220    453.10882   -6938.6324   -6888.0875    -320.8596    20602.934    4.1638915 
   23230    441.29253   -6937.4929   -6888.2661    501.00873    20587.769     4.167635 
   23240     444.7597   -6938.0368   -6888.4232     739.0049    20573.478    4.1692319 
   23250    457.62129   -6939.6296   -6888.5812    561.01457    20560.692    4.1671889 
   23260    455.76681   -6939.6039   -6888.7625    558.71655    20549.131    4.1620214 
   23270    456.04198   -6939.8514   -6888.9792    865.12025     20538.83    4.1549039 
   23280    455.49148   -6940.0416   -6889.2308    1400.2191    20530.524    4.1479516 
   23290    450.88463   -6939.8137   -6889.5168    1875.3934    20525.426    4.1427705 
   23300    444.50916   -6939.4148   -6889.8291    2275.0404    20524.696    4.1405414 
   23310    439.90551   -6939.2271    -6890.155    2477.6631    20529.314    4.1428861 
   23320    439.34865   -6939.4934   -6890.4834    2148.3512    20539.745     4.150433 
   23330    446.56599   -6940.6243   -6890.8092    1357.9989    20555.299    4.1616167 
   23340    451.02789   -6941.4509    -6891.138    851.22339    20574.343    4.1749013 
   23350    444.06291   -6941.0085   -6891.4727    695.58326    20595.738    4.1884487 
   23360    433.27478   -6940.1201   -6891.7876    362.09304    20619.024    4.1983876 
   23370    436.12226   -6940.7101     -6892.06   -125.60697    20643.446     4.201638 
   23380    440.55697   -6941.4354   -6892.2906    -475.2973    20667.911     4.199636 
   23390    433.33947   -6940.8198   -6892.4801   -768.15817    20691.553    4.1944316 
   23400    428.44726   -6940.4114   -6892.6174   -1079.0348    20713.632     4.185984 
   23410    436.30196   -6941.3714   -6892.7013   -1424.0593    20733.351    4.1751645 
   23420    442.12121   -6942.0594   -6892.7401   -1355.1722    20749.945    4.1638974 
   23430    445.68318   -6942.4694   -6892.7528   -1045.4201    20763.474    4.1541034 
   23440    456.08131   -6943.6326    -6892.756   -1167.5283    20774.493    4.1471439 
   23450    459.79909   -6944.0596   -6892.7683   -1301.4605    20782.788    4.1427113 
   23460     449.4911    -6942.939   -6892.7976   -1200.0325    20788.046    4.1390875 
   23470    444.62506    -6942.425   -6892.8264   -1161.0798    20790.426     4.134455 
   23480    451.74923   -6943.2358   -6892.8425   -1023.1094    20790.037    4.1282345 
   23490    449.89924   -6943.0375   -6892.8505   -728.04871    20787.213    4.1225146 
   23500    444.51738    -6942.441   -6892.8544    -578.6826    20782.608    4.1180055 
   23510    452.18024    -6943.293   -6892.8516   -783.22985    20776.517    4.1135662 
   23520    454.43341    -6943.543   -6892.8503   -1060.3053    20768.487    4.1083331 
   23530     439.5905   -6941.8873   -6892.8503   -1099.9448    20757.929    4.1012442 
   23540    434.96512   -6941.3588   -6892.8377   -990.77394    20744.715    4.0913769 
   23550    434.36507   -6941.2514   -6892.7973   -697.95147    20729.099    4.0785855 
   23560    428.80105   -6940.5574    -6892.724   -343.01986    20711.764    4.0633811 
   23570    431.39949   -6940.7465   -6892.6233    -139.8101    20693.537    4.0458571 
   23580    436.50231   -6941.1961   -6892.5036   -145.61078    20674.871    4.0255265 
   23590    437.01486   -6941.1222   -6892.3725   -65.750539    20655.826    4.0007719 
   23600    441.65951   -6941.5033   -6892.2356   -152.32418    20636.521    3.9720627 
   23610    444.84433   -6941.7197   -6892.0966   -286.34159    20616.788    3.9444987 
   23620    450.85248   -6942.2556   -6891.9624   -260.97385    20596.342    3.9229924 
   23630    461.30946   -6943.3002   -6891.8405   -155.42777    20575.216    3.9107154 
   23640    464.54553   -6943.5691   -6891.7484    187.87941    20553.708     3.909023 
   23650    452.32165     -6942.14   -6891.6829    810.32367    20532.627    3.9151632 
   23660    448.62531   -6941.6718    -6891.627     1458.732    20513.379    3.9233377 
   23670    445.38684   -6941.2465   -6891.5629    2149.9097    20497.532    3.9284216 
   23680     445.7909   -6941.2199   -6891.4912    2396.4701    20486.589    3.9278295 
   23690    454.46747   -6942.1149   -6891.4183    2418.2313    20481.197    3.9246674 
   23700    458.39436   -6942.4938   -6891.3592    2371.2332    20481.453    3.9260838 
   23710    454.02384   -6941.9717   -6891.3247    2068.6258    20487.241    3.9372412 
   23720    447.94767   -6941.2742    -6891.305    1543.2301    20497.887    3.9578335 
   23730    442.84591   -6940.6787   -6891.2786    832.81941    20512.188    3.9836977 
   23740    438.49683   -6940.1421   -6891.2271    71.923995    20528.507    4.0097323 
   23750      437.787   -6939.9768    -6891.141   -464.46608    20545.134    4.0332328 
   23760    437.86425   -6939.8628   -6891.0184   -791.17456    20560.806    4.0534755 
   23770    440.48843   -6939.9961   -6890.8589    -815.9543    20574.761    4.0705053 
   23780    452.39076    -6941.132   -6890.6671   -721.26467    20586.864    4.0848985 
   23790    464.03384   -6942.2282   -6890.4645   -608.03252    20597.319    4.0982846 
   23800     463.4022   -6941.9688   -6890.2756   -381.36744    20606.417    4.1134553 
   23810     456.5649   -6941.0378   -6890.1073   -160.17617    20614.654    4.1321975 
   23820    454.25789   -6940.6179   -6889.9448   -45.457872     20622.54    4.1534328 
   23830    455.84619   -6940.6286   -6889.7782   -160.34841      20630.3    4.1746884 
   23840    459.68773   -6940.8878    -6889.609   -383.45406    20637.708    4.1950394 
   23850    460.48714    -6940.812   -6889.4439   -530.66572    20644.266     4.214451 
   23860    453.49948   -6939.8707   -6889.2822   -329.01393     20649.69    4.2309534 
   23870    456.18929   -6940.0038   -6889.1152   -147.05731    20654.359    4.2409791 
   23880    457.17775   -6939.9344   -6888.9356    88.324414    20658.719    4.2436291 
   23890    449.26782   -6938.8622   -6888.7457    474.80533    20663.355    4.2416574 
   23900    453.68345   -6939.1436   -6888.5345     342.3993    20669.036    4.2384681 
   23910    464.31626   -6940.0937   -6888.2985    105.22808     20675.58    4.2360442 
   23920    458.86045   -6939.2388   -6888.0522    256.38807    20682.546     4.234219 
   23930    456.71852   -6938.7473   -6887.7996    225.74082    20690.151    4.2314707 
   23940    463.76656   -6939.2627   -6887.5289   -160.38374    20698.298    4.2289203 
   23950    461.82414   -6938.7651   -6887.2479   -581.44257    20706.127    4.2288316 
   23960    459.28155   -6938.2037   -6886.9701   -954.24532    20712.652    4.2307145 
   23970    463.08232   -6938.3484   -6886.6909   -1306.3205    20716.959    4.2319774 
   23980    469.27284   -6938.7661    -6886.418   -1415.2615    20718.216    4.2303322 
   23990    474.47092   -6939.0983   -6886.1703   -1174.1717    20716.155    4.2255134 
   24000    474.32899    -6938.878   -6885.9659   -694.87935    20711.306    4.2187228 
   24010    476.61869   -6938.9752   -6885.8077    -157.5162    20704.771    4.2120995 
   24020    484.49706   -6939.7463   -6885.6999    278.71252     20697.78    4.2096516 
   24030    473.37788   -6938.4608   -6885.6548    817.95405    20691.445    4.2131123 
   24040     461.3128   -6937.1214   -6885.6613    914.11772     20686.91    4.2195115 
   24050    463.34517   -6937.3892   -6885.7023    798.78231    20684.508      4.22523 
   24060    463.84431   -6937.5221   -6885.7796    862.95044    20684.053    4.2291271 
   24070    461.97747   -6937.4338   -6885.8995    1268.1255    20685.742    4.2318513 
   24080    465.72175   -6938.0249   -6886.0729    1672.6843    20690.512    4.2340716 
   24090     469.5763   -6938.7002   -6886.3182    1504.9478    20699.215    4.2366556 
   24100    461.20138   -6938.0871   -6886.6394     1254.486    20711.618    4.2426582 
   24110    450.43611    -6937.261   -6887.0142    861.90674    20727.139    4.2551346 
   24120    448.19471    -6937.413   -6887.4162    307.46326    20744.866    4.2737498 
   24130    441.39612   -6937.0628   -6887.8244   -63.246967    20763.557    4.2967498 
   24140    441.71379   -6937.4942   -6888.2203   -542.47208    20782.239    4.3214029 
   24150    440.52714   -6937.7305    -6888.589   -867.44259    20799.823    4.3437627 
   24160    430.08876   -6936.8874   -6888.9104   -797.84506     20815.57    4.3598239 
   24170    430.89655   -6937.2354   -6889.1682   -987.04227    20829.478    4.3694669 
   24180    444.78366   -6938.9876   -6889.3713   -1610.9093    20841.038    4.3785858 
   24190    450.73886   -6939.8295   -6889.5489   -2212.7851    20848.786    4.3922013 
   24200    442.76125   -6939.1036    -6889.713    -2236.979    20851.347    4.4091865 
   24210     439.6067   -6938.8963   -6889.8576   -2149.7588    20848.507    4.4250333 
   24220    441.52591   -6939.2258   -6889.9729   -2154.6114    20840.377    4.4340085 
   24230    451.57358    -6940.445   -6890.0713   -1943.8304    20826.976    4.4336699 
   24240    453.52523   -6940.7551   -6890.1637   -1392.4607    20808.812    4.4266249 
   24250    448.94829   -6940.3338   -6890.2529   -678.23879    20787.146    4.4159129 
   24260    439.41658    -6939.341   -6890.3234    146.69298    20763.697    4.4048425 
   24270     435.9046   -6938.9863   -6890.3605    643.13994    20740.341    4.3960993 
   24280    439.83779   -6939.4286   -6890.3641    781.69706    20718.283     4.390238 
   24290    445.00738   -6939.9875   -6890.3463    826.38713    20697.918    4.3874831 
   24300    448.13387   -6940.3078   -6890.3178    871.14875    20679.376    4.3869604 
   24310    452.27131   -6940.7394   -6890.2878    1005.7276    20662.785     4.387002 
   24320    448.87461   -6940.3305   -6890.2578    1408.5506     20648.52    4.3865456 
   24330    449.86865   -6940.4104   -6890.2268    1729.2737    20637.478    4.3839531 
   24340    457.58369   -6941.2495   -6890.2053    1516.6194    20630.336    4.3786823 
   24350    447.93464   -6940.1687   -6890.2009    1367.0498    20626.776    4.3737408 
   24360    435.63141   -6938.7906   -6890.1952     1347.357    20626.465    4.3719638 
   24370    443.01187   -6939.5874   -6890.1688    1041.5275    20629.291    4.3739582 
   24380    450.15133   -6940.3409   -6890.1258    776.16574    20634.657    4.3793668 
   24390    442.29277   -6939.4163   -6890.0779    636.77208    20641.971    4.3874155 
   24400     431.6064   -6938.1603    -6890.014    399.38359    20650.868    4.3962362 
   24410    428.42557   -6937.7056   -6889.9141    214.79159    20660.845    4.4038336 
   24420    432.32568   -6937.9923   -6889.7657    25.857489    20671.472     4.410572 
   24430    439.56532   -6938.6065   -6889.5723   -50.431225    20682.322    4.4183912 
   24440    443.43215   -6938.8083   -6889.3428   -109.49256    20693.185    4.4284224 
   24450    455.70234   -6939.9214   -6889.0871    -379.3258    20703.884    4.4402931 
   24460    459.98049   -6940.1331   -6888.8216   -500.82734    20713.857    4.4546768 
   24470    456.42533   -6939.4846   -6888.5696   -315.15606    20722.846    4.4720021 
   24480    452.53731    -6938.808   -6888.3268   -248.74458     20731.18    4.4890277 
   24490    455.93488   -6938.9423   -6888.0821   -349.67702    20739.001    4.5003588 
   24500    464.65507   -6939.6632   -6887.8303    -446.5076    20746.083    4.5040103 
   24510    467.53946   -6939.7368   -6887.5821   -605.70664    20752.171    4.5026764 
   24520    455.06486   -6938.1081   -6887.3449   -650.31735    20756.911    4.5003322 
   24530    450.48757   -6937.3516   -6887.0991   -734.77352    20760.119    4.4985196 
   24540    458.74304   -6937.9928   -6886.8193   -810.96804    20761.584    4.4983032 
   24550    462.15852   -6938.0573   -6886.5028   -398.58535    20761.231    4.5008362 
   24560    456.85738   -6937.1056   -6886.1425    263.88861     20759.97    4.5052195 
   24570    447.12994   -6935.5905   -6885.7125    817.86513    20759.318     4.510314 
   24580    453.46736   -6935.7579   -6885.1729    706.46801    20760.484    4.5158294 
   24590    465.25306   -6936.4096   -6884.5099    89.803102    20763.293    4.5209337 
   24600    472.12983   -6936.4527   -6883.7859    -687.5201    20766.346     4.523368 
   24610    477.71515   -6936.3907   -6883.1008   -1392.4913    20767.796    4.5211279 
   24620    491.40318   -6937.3518    -6882.535   -1681.1342    20765.992    4.5129001 
   24630    496.36665   -6937.5131   -6882.1426    -1321.321    20760.205    4.4987406 
   24640    489.66836   -6936.5466   -6881.9234   -579.24367    20751.209    4.4801976 
   24650     497.5514   -6937.3464   -6881.8438   -176.63749    20740.593    4.4591863 
   24660    492.86325   -6936.8572   -6881.8776    116.28244    20729.346    4.4399006 
   24670    481.73429   -6935.7336   -6881.9954    509.65798    20718.223    4.4263871 
   24680    479.01483    -6935.595   -6882.1602    596.59374    20708.067    4.4184025 
   24690    480.06695   -6935.9202    -6882.368    387.08897    20699.081    4.4133958 
   24700    466.58948   -6934.6564   -6882.6077    284.28351    20690.897    4.4065482 
   24710    458.14737   -6933.9579   -6882.8509    162.17664    20683.253    4.3918229 
   24720    466.56283    -6935.138   -6883.0922   -111.65555    20675.805    4.3672324 
   24730    472.95223   -6936.1106   -6883.3521   -7.8475023    20668.035    4.3361011 
   24740    476.08526   -6936.7523   -6883.6443    106.01636    20660.079    4.3037701 
   24750    482.20236   -6937.7668   -6883.9764   -68.781476    20652.161     4.274703 
   24760    482.62949   -6938.1865   -6884.3484   -444.85631    20643.877    4.2515339 
   24770    478.63824    -6938.144   -6884.7512   -441.94989    20634.471    4.2343265 
   24780    476.17276   -6938.2843   -6885.1666   -392.63851    20623.823     4.219177 
   24790    470.78692    -6938.099    -6885.582   -152.18675    20612.093    4.2020594 
   24800    458.59161   -6937.1287   -6885.9721    307.32928    20599.827     4.182588 
   24810    451.38062   -6936.6621   -6886.3099    736.88645    20588.065    4.1623782 
   24820     455.2389   -6937.3847   -6886.6021    850.45337    20577.793    4.1434128 
   24830    459.15822   -6938.0919   -6886.8722    761.52681    20569.343    4.1271632 
   24840        462.4   -6938.7178   -6887.1364    840.58839    20562.608    4.1138694 
   24850    456.63422   -6938.3272   -6887.3889    1203.9762    20557.833    4.1025125 
   24860    451.09464   -6937.9439   -6887.6237    1405.8878    20555.818    4.0921544 
   24870    457.09393   -6938.8374   -6887.8479    1049.5176    20556.999    4.0836638 
   24880    469.56401    -6940.463   -6888.0825    446.99936    20560.665    4.0767865 
   24890    472.51364   -6941.0567   -6888.3471    50.687627    20565.514    4.0699537 
   24900     456.9527   -6939.6046   -6888.6308    33.542819    20570.658    4.0624739 
   24910    446.69155   -6938.7263   -6888.8971   -109.52667     20575.92    4.0537037 
   24920     459.0019   -6940.3493    -6889.147    -421.4377    20580.968    4.0452399 
   24930    462.54139    -6941.001   -6889.4038   -499.39065    20585.149    4.0402874 
   24940    456.55342    -6940.605   -6889.6758   -453.62641    20588.221    4.0371853 
   24950    451.90021   -6940.3598   -6889.9496   -350.83026     20590.29    4.0329851 
   24960    451.18812   -6940.5469   -6890.2161   -352.60623    20591.542    4.0272685 
   24970    450.72317   -6940.7515   -6890.4726   -538.31567    20591.948     4.021848 
   24980    442.81651   -6940.1068     -6890.71   -678.00233    20591.097     4.018497 
   24990     437.9418   -6939.7666   -6890.9135   -542.93827    20588.687    4.0171167 
   25000    442.49432   -6940.4465   -6891.0856   -207.84984    20584.988    4.0164231 
Loop time of 14855.7 on 16 procs for 20000 steps with 864 atoms

Performance: 0.116 ns/day, 206.328 hours/ns, 1.346 timesteps/s
97.4% CPU use with 16 MPI tasks x 1 OpenMP threads

MPI task timing breakdown:
Section |  min time  |  avg time  |  max time  |%varavg| %total
---------------------------------------------------------------
Pair    | 8078.6     | 12152      | 14813      |1575.4 | 81.80
Bond    | 0.0017037  | 0.0052205  | 0.012576   |   4.3 |  0.00
Neigh   | 0.18554    | 0.27859    | 0.37567    |  11.1 |  0.00
Comm    | 37.85      | 1941.5     | 5667.5     |3867.1 | 13.07
Output  | 1.551      | 1.5802     | 2.0091     |   8.8 |  0.01
Modify  | 3.1537     | 760.4      | 1886.8     |2349.5 |  5.12
Other   |            | 0.09787    |            |       |  0.00

Nlocal:        54.0000 ave          71 max          40 min
Histogram: 2 3 1 0 4 1 1 2 1 1
Nghost:        476.750 ave         532 max         402 min
Histogram: 1 0 3 0 2 2 2 1 4 1
Neighs:         0.00000 ave           0 max           0 min
Histogram: 16 0 0 0 0 0 0 0 0 0
FullNghs:      2365.88 ave        3759 max        1320 min
Histogram: 2 3 1 1 4 0 2 0 1 2

Total # of neighbors = 37854
Ave neighs/atom = 43.812500
Ave special neighs/atom = 0.0000000
Neighbor list builds = 2000
Dangerous builds = 2000
unfix   3
                
Total wall time: 5:09:50
