LAMMPS (29 Sep 2021 - Update 3)
OMP_NUM_THREADS environment is not set. Defaulting to 1 thread. (src/comm.cpp:98)
  using 1 OpenMP thread(s) per MPI task
units	metal
atom_style	full

read_data	mixed.data
Reading data file ...
  orthogonal box = (0.0000000 0.0000000 0.0000000) to (16.534670 17.767358 74.594796)
  1 by 2 by 8 MPI processor grid
  reading atoms ...
  864 atoms
Finding 1-2 1-3 1-4 neighbors ...
  special bond factors lj:    0        0        0       
  special bond factors coul:  0        0        0       
     0 = max # of 1-2 neighbors
     0 = max # of 1-3 neighbors
     0 = max # of 1-4 neighbors
     1 = max # of special neighbors
  special bonds CPU = 0.001 seconds
  read_data CPU = 0.013 seconds

pair_style	quip
pair_coeff	* * /ocean/projects/cts180021p/wuziqi/clease/mint-PD/PhaseDiagram-Clease/Liquid/GAP_potential/gap_LiKCl.xml "Potential xml_label=GAP_2021_9_27_0_1_17_37_618" 17 19 3

neighbor	0.3 bin
neigh_modify	delay 10

timestep	0.001
compute	msd all msd
thermo_style	custom step temp pe etotal press vol c_msd[4]
thermo	10
dump	1 all custom 10 xyz-mix.dump type id x y z
dump	2 all custom 10 force-mix.dump type id fx fy fz

fix     1 all nve
run     2000
Neighbor list info ...
  update every 1 steps, delay 10 steps, check yes
  max neighbors/atom: 2000, page size: 100000
  master list distance cutoff = 6.22
  ghost atom cutoff = 6.22
  binsize = 3.11, bins = 6 6 24
  1 neighbor lists, perpetual/occasional/extra = 1 0 0
  (1) pair quip, perpetual
      attributes: full, newton on
      pair build: full/bin
      stencil: full/bin/3d
      bin: standard
Per MPI rank memory allocation (min/avg/max) = 8.894 | 8.906 | 8.915 Mbytes
Step Temp PotEng TotEng Press Volume c_msd[4] 
       0            0   -8413.4292   -8413.4292   -12531.916    21914.265            0 
      10    63.367096   -8420.5059   -8413.4372   -13062.757    21914.265 0.00028900792 
      20    162.23389   -8431.5423   -8413.4448   -13580.932    21914.265 0.0035442006 
      30    203.76318   -8436.1707   -8413.4406   -13263.999    21914.265  0.011998633 
      40     225.5427      -8438.6   -8413.4404   -13091.981    21914.265  0.023619499 
      50    238.39464   -8440.0352   -8413.4419   -13192.953    21914.265  0.036411648 
      60    237.91747   -8439.9798   -8413.4397    -13151.82    21914.265  0.049420327 
      70    242.25882   -8440.4649   -8413.4405   -12986.142    21914.265  0.062561747 
      80    243.33226   -8440.5825   -8413.4384   -12841.846    21914.265  0.075987004 
      90     256.1439    -8442.014   -8413.4408   -12985.089    21914.265  0.088683986 
     100    260.92723   -8442.5467   -8413.4399   -13129.532    21914.265   0.10092572 
     110    263.36735   -8442.8185   -8413.4395   -13314.209    21914.265   0.11296329 
     120    267.45703   -8443.2754   -8413.4402   -13403.997    21914.265   0.12509928 
     130    267.20277   -8443.2463   -8413.4395   -13198.457    21914.265   0.13819283 
     140    269.21359   -8443.4705   -8413.4393   -12839.711    21914.265   0.15259322 
     150     276.3754   -8444.2699   -8413.4398   -12564.061    21914.265   0.16775295 
     160    282.09052   -8444.9077   -8413.4401   -12400.914    21914.265   0.18315323 
     170    283.74907   -8445.0928   -8413.4402     -12430.3    21914.265    0.1989762 
     180    279.57367   -8444.6271   -8413.4402   -12727.353    21914.265   0.21536827 
     190    272.01519   -8443.7829   -8413.4391   -12943.608    21914.265   0.23180139 
     200    272.98877   -8443.8921   -8413.4397   -13066.814    21914.265    0.2476891 
     210    278.28656   -8444.4833     -8413.44   -13119.162    21914.265   0.26290373 
     220    281.61115   -8444.8543   -8413.4402    -13052.65    21914.265   0.27743582 
     230    283.45537   -8445.0589    -8413.439   -12948.839    21914.265   0.29133107 
     240    292.81696   -8446.1046   -8413.4404   -13016.029    21914.265    0.3048675 
     250    295.20203   -8446.3705   -8413.4402   -13077.887    21914.265   0.31931215 
     260    290.46684   -8445.8415   -8413.4394   -13040.528    21914.265   0.33532684 
     270    290.61991    -8445.858   -8413.4389   -13235.455    21914.265   0.35239777 
     280    301.25443   -8447.0456   -8413.4402   -13515.282    21914.265   0.36952956 
     290    308.28623   -8447.8304   -8413.4406   -13611.572    21914.265   0.38667041 
     300    309.20907   -8447.9319   -8413.4392   -13455.868    21914.265    0.4041006 
     310     314.5316   -8448.5273   -8413.4408   -13198.597    21914.265   0.42152557 
     320    312.09261   -8448.2546   -8413.4402   -12968.083    21914.265   0.43866959 
     330    305.84421   -8447.5573   -8413.4399   -12657.381    21914.265   0.45536472 
     340    303.20988   -8447.2632   -8413.4397   -12498.026    21914.265   0.47172581 
     350    307.13857   -8447.7018     -8413.44   -12492.368    21914.265   0.48754232 
     360    312.15901   -8448.2619   -8413.4401   -12369.505    21914.265   0.50223919 
     370     318.6847   -8448.9898     -8413.44   -12195.898    21914.265   0.51545083 
     380    326.66636   -8449.8808   -8413.4407   -12030.164    21914.265   0.52751087 
     390    328.67292   -8450.1043   -8413.4403   -11786.931    21914.265   0.53983918 
     400    329.42172   -8450.1875     -8413.44   -11529.418    21914.265   0.55338123 
     410    329.12824   -8450.1558   -8413.4411   -11363.621    21914.265   0.56856317 
     420    321.17839   -8449.2675   -8413.4396   -11329.503    21914.265   0.58578319 
     430    319.73313   -8449.1067     -8413.44   -11645.546    21914.265   0.60460993 
     440    321.87014   -8449.3455   -8413.4404   -12168.872    21914.265   0.62482739 
     450    321.69175   -8449.3257   -8413.4405   -12517.526    21914.265   0.64605131 
     460    321.58625   -8449.3131   -8413.4397   -12738.117    21914.265   0.66602281 
     470    327.73765   -8450.0009   -8413.4413    -13118.13    21914.265   0.68222539 
     480    325.78012   -8449.7811   -8413.4399   -13518.975    21914.265   0.69547134 
     490    325.26696   -8449.7242   -8413.4402   -13912.333    21914.265   0.70709849 
     500    326.02809   -8449.8096   -8413.4407    -14245.82    21914.265    0.7181905 
     510     321.8067   -8449.3384   -8413.4404   -14358.421    21914.265   0.73031831 
     520    314.82643   -8448.5595   -8413.4401   -14393.561    21914.265   0.74493886 
     530    311.55922   -8448.1945   -8413.4396    -14504.26    21914.265   0.76206346 
     540    316.52181   -8448.7487   -8413.4402   -14692.451    21914.265   0.78048733 
     550    323.45997   -8449.5224     -8413.44   -14675.954    21914.265   0.79880458 
     560    332.20295   -8450.4987   -8413.4409    -14432.97    21914.265   0.81596428 
     570    332.37528   -8450.5179   -8413.4409   -14008.452    21914.265   0.83234674 
     580    324.44532    -8449.632   -8413.4397   -13682.622    21914.265   0.84880328 
     590    322.54654   -8449.4211   -8413.4405   -13611.186    21914.265   0.86493346 
     600    320.03229     -8449.14   -8413.4399   -13618.158    21914.265   0.88136827 
     610     322.0694   -8449.3667   -8413.4393   -13770.866    21914.265   0.89972436 
     620    332.97088   -8450.5844    -8413.441   -14040.679    21914.265   0.91979176 
     630    336.52886   -8450.9806   -8413.4403   -14106.634    21914.265    0.9400978 
     640    340.63169   -8451.4378   -8413.4399   -14084.373    21914.265   0.95883362 
     650     349.6267   -8452.4431   -8413.4417   -14126.089    21914.265   0.97518253 
     660     345.3101   -8451.9607   -8413.4408    -13925.09    21914.265   0.98949595 
     670    335.30236   -8450.8431   -8413.4396   -13541.064    21914.265    1.0025057 
     680    335.35657   -8450.8495     -8413.44   -13120.509    21914.265    1.0157598 
     690    342.86707   -8451.6878   -8413.4405   -12807.122    21914.265    1.0306556 
     700    350.61517   -8452.5527    -8413.441   -12613.893    21914.265    1.0481195 
     710    351.61871   -8452.6647   -8413.4411    -12558.63    21914.265     1.067876 
     720    346.37378   -8452.0785     -8413.44   -12478.274    21914.265    1.0873947 
     730    347.79156   -8452.2373   -8413.4406   -12593.955    21914.265    1.1041491 
     740    351.02442    -8452.599   -8413.4417   -12781.856    21914.265    1.1188548 
     750    344.89782   -8451.9145   -8413.4406   -12888.282    21914.265     1.133643 
     760      340.342   -8451.4064   -8413.4407   -13050.736    21914.265    1.1491825 
     770    340.04955   -8451.3737   -8413.4407   -13326.749    21914.265    1.1643304 
     780      345.357   -8451.9656   -8413.4405   -13558.373    21914.265    1.1777023 
     790    357.12317   -8453.2788   -8413.4411   -13831.043    21914.265    1.1886997 
     800    366.64045   -8454.3407   -8413.4414   -14129.874    21914.265    1.1976392 
     810    368.68447   -8454.5688   -8413.4415   -14063.484    21914.265    1.2056605 
     820    366.60174   -8454.3361   -8413.4411   -13908.726    21914.265    1.2141717 
     830    365.85586   -8454.2531   -8413.4413   -13853.131    21914.265    1.2243585 
     840     368.4524   -8454.5423   -8413.4409   -13972.673    21914.265    1.2365636 
     850    371.87492   -8454.9262    -8413.443    -14131.16    21914.265    1.2503596 
     860     358.1746   -8453.3954   -8413.4405     -13818.7    21914.265    1.2649975 
     870    354.45705   -8452.9806   -8413.4404   -13465.958    21914.265     1.278191 
     880    366.65296   -8454.3425   -8413.4418   -13399.092    21914.265    1.2880847 
     890    376.93995   -8455.4909   -8413.4426    -13274.53    21914.265    1.2959326 
     900    375.96913   -8455.3817   -8413.4418   -13062.805    21914.265    1.3041818 
     910    374.01489   -8455.1632   -8413.4413   -12824.206    21914.265    1.3130528 
     920    378.94842   -8455.7136   -8413.4414   -12747.174    21914.265    1.3222121 
     930    388.54983   -8456.7859   -8413.4426   -12880.601    21914.265    1.3329508 
     940    389.80019   -8456.9258    -8413.443   -12981.003    21914.265    1.3457299 
     950    382.52604   -8456.1127   -8413.4413   -12918.004    21914.265    1.3587946 
     960    381.75271   -8456.0275   -8413.4424   -13120.356    21914.265    1.3710856 
     970    380.20365    -8455.854   -8413.4417   -13297.868    21914.265    1.3835601 
     980    384.06597   -8456.2848   -8413.4416    -13360.21    21914.265    1.3967998 
     990    391.39252    -8457.104   -8413.4436    -13319.56    21914.265    1.4114384 
    1000    385.55287   -8456.4508   -8413.4418   -13032.957    21914.265    1.4285977 
    1010    381.98963   -8456.0536   -8413.4421   -12900.345    21914.265    1.4480597 
    1020    382.08452   -8456.0644   -8413.4423   -12891.786    21914.265    1.4678099 
    1030    380.66666   -8455.9065   -8413.4425   -12820.478    21914.265    1.4859085 
    1040    378.02017   -8455.6107    -8413.442   -12814.774    21914.265    1.5012686 
    1050    381.70997   -8456.0224   -8413.4421   -12925.622    21914.265    1.5119118 
    1060    391.42566   -8457.1073   -8413.4432    -13146.33    21914.265    1.5173209 
    1070    396.24192   -8457.6441   -8413.4428   -13102.084    21914.265    1.5196151 
    1080    397.63032   -8457.7993    -8413.443   -12889.784    21914.265    1.5211703 
    1090    396.12759   -8457.6308   -8413.4422   -12537.537    21914.265    1.5231683 
    1100    400.33119   -8458.1002   -8413.4426   -12299.668    21914.265    1.5256834 
    1110    407.17314   -8458.8635   -8413.4428   -12099.612    21914.265    1.5296348 
    1120    413.19804   -8459.5369    -8413.444   -11926.861    21914.265    1.5369315 
    1130    409.94165   -8459.1721   -8413.4425   -11927.354    21914.265    1.5487344 
    1140    411.69689   -8459.3679   -8413.4425   -12274.932    21914.265    1.5644715 
    1150    417.92932   -8460.0654   -8413.4448   -12599.199    21914.265    1.5822789 
    1160    409.45399   -8459.1175   -8413.4423   -12608.558    21914.265    1.6004412 
    1170    405.75202   -8458.7057   -8413.4435   -12496.116    21914.265    1.6169469 
    1180    399.97271   -8458.0606    -8413.443   -12466.412    21914.265    1.6317671 
    1190    393.04741   -8457.2883   -8413.4433   -12618.331    21914.265    1.6460138 
    1200    381.93867   -8456.0489   -8413.4431   -12576.103    21914.265    1.6602667 
    1210    376.72969   -8455.4667   -8413.4419   -12745.258    21914.265    1.6726433 
    1220     387.4652   -8456.6661   -8413.4437   -13270.317    21914.265    1.6819979 
    1230    392.11995   -8457.1848   -8413.4433   -13698.725    21914.265    1.6894908 
    1240    392.35374   -8457.2109   -8413.4432   -14054.078    21914.265    1.6958816 
    1250    387.63167   -8456.6848   -8413.4439   -14383.659    21914.265    1.7022745 
    1260    377.01437   -8455.4984   -8413.4419   -14780.957    21914.265    1.7098627 
    1270    380.16106   -8455.8505   -8413.4429    -15291.91    21914.265    1.7186286 
    1280    386.65141    -8456.575   -8413.4435   -15684.863    21914.265    1.7280931 
    1290    386.45138   -8456.5524   -8413.4431   -15669.118    21914.265    1.7377267 
    1300    384.49318   -8456.3333   -8413.4425   -15192.167    21914.265    1.7465203 
    1310    389.16883   -8456.8559   -8413.4435   -14748.802    21914.265    1.7543822 
    1320    395.91985   -8457.6092   -8413.4437   -14540.669    21914.265    1.7626209 
    1330    402.24128   -8458.3144   -8413.4438   -14482.176    21914.265    1.7719127 
    1340    406.72312   -8458.8138   -8413.4433   -14593.779    21914.265    1.7822942 
    1350    413.88937   -8459.6138   -8413.4438   -14633.206    21914.265    1.7929881 
    1360    418.26368   -8460.1021   -8413.4441   -14272.723    21914.265    1.8043383 
    1370    412.53709   -8459.4628   -8413.4437   -13640.472    21914.265    1.8173742 
    1380    404.03017    -8458.513   -8413.4428   -13053.663    21914.265    1.8314414 
    1390    402.11865   -8458.3013   -8413.4444   -12796.252    21914.265    1.8446224 
    1400    396.75786   -8457.7017   -8413.4428   -12890.081    21914.265    1.8555613 
    1410     401.1626   -8458.1945   -8413.4442   -13251.623    21914.265    1.8625402 
    1420    405.53922    -8458.683   -8413.4445   -13540.901    21914.265    1.8651673 
    1430    404.12534   -8458.5245   -8413.4437   -13662.885    21914.265    1.8648977 
    1440    405.72045   -8458.7027    -8413.444   -13771.634    21914.265    1.8643414 
    1450    406.67484   -8458.8092    -8413.444   -13873.149    21914.265    1.8661066 
    1460    406.94702   -8458.8395   -8413.4439   -13898.845    21914.265    1.8707341 
    1470    405.99802   -8458.7335   -8413.4438    -13583.81    21914.265    1.8783175 
    1480    405.25435   -8458.6503   -8413.4436   -13097.342    21914.265    1.8881067 
    1490    408.19865    -8458.979   -8413.4439   -12662.726    21914.265    1.8977467 
    1500    414.56579   -8459.6887   -8413.4433   -12296.863    21914.265    1.9065246 
    1510    429.03716   -8461.3044   -8413.4447   -11735.577    21914.265    1.9156573 
    1520    435.43303   -8462.0188   -8413.4456   -11140.275    21914.265    1.9269758 
    1530    420.46896   -8460.3486   -8413.4446     -10759.3    21914.265    1.9420002 
    1540    404.55727   -8458.5707   -8413.4417   -10562.297    21914.265    1.9594173 
    1550     414.5371   -8459.6878   -8413.4456   -10873.945    21914.265    1.9756145 
    1560    415.64167   -8459.8093   -8413.4438    -11180.84    21914.265    1.9896674 
    1570    417.51903   -8460.0192   -8413.4444   -11574.862    21914.265      2.00287 
    1580    420.71133   -8460.3754   -8413.4444   -12084.028    21914.265    2.0173903 
    1590    422.23753   -8460.5459   -8413.4446   -12650.323    21914.265    2.0354221 
    1600    420.26548   -8460.3254   -8413.4441   -13157.964    21914.265    2.0567995 
    1610    418.97614   -8460.1816   -8413.4442   -13379.664    21914.265    2.0784503 
    1620    422.99101    -8460.629   -8413.4437   -13476.483    21914.265    2.0978277 
    1630    431.41255   -8461.5707    -8413.446   -13473.665    21914.265     2.115193 
    1640    426.28653   -8460.9963   -8413.4434   -13430.412    21914.265    2.1338075 
    1650    431.13487   -8461.5387    -8413.445   -13658.596    21914.265       2.1559 
    1660    436.17822   -8462.1019   -8413.4456   -13638.641    21914.265    2.1797337 
    1670    428.12023   -8461.2022   -8413.4447   -13252.346    21914.265    2.2035441 
    1680    422.66155   -8460.5919   -8413.4434   -13022.696    21914.265    2.2262152 
    1690    430.34848   -8461.4521    -8413.446   -12966.155    21914.265    2.2464937 
    1700    426.21611   -8460.9896   -8413.4446   -12849.343    21914.265    2.2649593 
    1710    421.63281   -8460.4781   -8413.4443    -12902.06    21914.265    2.2822078 
    1720    425.52952   -8460.9136   -8413.4451   -13254.993    21914.265    2.2992296 
    1730    433.21398   -8461.7705   -8413.4448   -13760.925    21914.265    2.3170264 
    1740    441.86781   -8462.7372   -8413.4461   -14050.542    21914.265    2.3352522 
    1750    438.27813    -8462.336   -8413.4454   -13921.401    21914.265    2.3528289 
    1760    429.17186   -8461.3192   -8413.4444   -13408.002    21914.265    2.3694072 
    1770    428.81898   -8461.2807   -8413.4453    -12917.73    21914.265    2.3858611 
    1780    433.34916   -8461.7857    -8413.445   -12638.931    21914.265    2.4026666 
    1790     441.0669   -8462.6474   -8413.4457   -12705.172    21914.265     2.419074 
    1800    447.24535   -8463.3359    -8413.445   -12842.309    21914.265    2.4345236 
    1810    451.04914   -8463.7611   -8413.4459   -13058.485    21914.265    2.4502124 
    1820    445.08252   -8463.0941   -8413.4445   -13035.825    21914.265    2.4671851 
    1830    441.70858   -8462.7187   -8413.4454   -12922.342    21914.265    2.4853863 
    1840    432.65555   -8461.7082   -8413.4449   -13058.866    21914.265    2.5046773 
    1850    428.24526   -8461.2146   -8413.4432   -13494.155    21914.265    2.5239509 
    1860    442.70809   -8462.8312   -8413.4464     -14052.9    21914.265    2.5417036 
    1870    445.34398   -8463.1238   -8413.4451   -14177.248    21914.265    2.5577578 
    1880    449.56383   -8463.5931   -8413.4436   -14088.107    21914.265    2.5732932 
    1890    469.70151   -8465.8424   -8413.4465   -13965.821    21914.265    2.5900107 
    1900    475.61979   -8466.5029   -8413.4468   -13338.709    21914.265    2.6092547 
    1910    460.77113   -8464.8444   -8413.4447   -12266.897    21914.265    2.6300063 
    1920    453.29076   -8464.0097   -8413.4444   -11600.031    21914.265    2.6488623 
    1930    455.01355   -8464.2038   -8413.4464   -11532.276    21914.265     2.664581 
    1940    446.57627   -8463.2611   -8413.4448   -11610.068    21914.265    2.6787843 
    1950    442.24787   -8462.7779   -8413.4445    -12067.88    21914.265     2.691974 
    1960    445.34565   -8463.1243   -8413.4453   -12574.104    21914.265    2.7033659 
    1970     445.3849   -8463.1293   -8413.4459   -12683.518    21914.265    2.7130116 
    1980    438.45896   -8462.3558    -8413.445   -12521.804    21914.265    2.7223802 
    1990    435.82997    -8462.062   -8413.4445   -12590.151    21914.265    2.7312795 
    2000    445.20858   -8463.1089   -8413.4452   -13039.215    21914.265    2.7384799 
Loop time of 1239.28 on 16 procs for 2000 steps with 864 atoms

Performance: 0.139 ns/day, 172.122 hours/ns, 1.614 timesteps/s
97.1% CPU use with 16 MPI tasks x 1 OpenMP threads

MPI task timing breakdown:
Section |  min time  |  avg time  |  max time  |%varavg| %total
---------------------------------------------------------------
Pair    | 388.44     | 658.91     | 1224       | 916.5 | 53.17
Bond    | 0.00017357 | 0.00043544 | 0.00077653 |   0.0 |  0.00
Neigh   | 0.017602   | 0.029681   | 0.054876   |   6.5 |  0.00
Comm    | 15.033     | 513.45     | 758.73     | 952.1 | 41.43
Output  | 0.12851    | 46.257     | 106.97     | 585.6 |  3.73
Modify  | 0.0078235  | 0.0094595  | 0.014222   |   1.4 |  0.00
Other   |            | 20.61      |            |       |  1.66

Nlocal:        54.0000 ave          84 max          36 min
Histogram: 3 3 4 0 0 2 1 0 1 2
Nghost:        477.750 ave         592 max         348 min
Histogram: 2 0 2 1 3 3 1 0 0 4
Neighs:         0.00000 ave           0 max           0 min
Histogram: 16 0 0 0 0 0 0 0 0 0
FullNghs:      2234.12 ave        4892 max        1038 min
Histogram: 5 5 0 0 2 0 2 0 0 2

Total # of neighbors = 35746
Ave neighs/atom = 41.372685
Ave special neighs/atom = 0.0000000
Neighbor list builds = 199
Dangerous builds = 198
unfix   1

velocity    all create 937.5 1312343 dist gaussian
fix     2 all npt temp 937.5 937.5 $(100.0*dt) aniso 0.0 1.01325 $(1000.0*dt)
fix     2 all npt temp 937.5 937.5 0.10000000000000000555 aniso 0.0 1.01325 $(1000.0*dt)
fix     2 all npt temp 937.5 937.5 0.10000000000000000555 aniso 0.0 1.01325 1
run     3000
Per MPI rank memory allocation (min/avg/max) = 8.894 | 8.907 | 8.916 Mbytes
Step Temp PotEng TotEng Press Volume c_msd[4] 
    2000        937.5   -8463.1089   -8358.5294   -10362.576    21914.265    2.7384799 
    2010    843.55133   -8452.6815   -8358.5821   -9214.5079    21907.677    2.7408477 
    2020    722.25982   -8439.1635   -8358.5943   -7428.8978    21889.308    2.7449784 
    2030    708.66567   -8437.4307    -8358.378    -7114.786    21861.254    2.7455893 
    2040     703.7303   -8436.3441    -8357.842   -6466.6196    21824.238     2.742796 
    2050      704.319   -8435.6208    -8357.053   -5673.7597    21779.166    2.7391213 
    2060    721.43038   -8436.6339   -8356.1573   -5072.8588    21727.206    2.7374289 
    2070    716.21772   -8435.2105   -8355.3153    -3723.833    21669.541    2.7394026 
    2080    718.03329    -8434.639   -8354.5413   -2208.9615     21608.16    2.7441563 
    2090    731.07259   -8435.2951   -8353.7428   -1365.1054    21545.257    2.7504459 
    2100    737.32217   -8435.1236   -8352.8742    -1190.568    21482.272    2.7554833 
    2110    755.62938   -8436.2261   -8351.9345   -1496.3815    21419.799    2.7569082 
    2120    770.79118   -8436.9065   -8350.9236   -1816.7949    21357.887    2.7576139 
    2130    774.85962   -8436.3118    -8349.875   -2131.5024    21296.483    2.7627851 
    2140    777.07022   -8435.4701   -8348.7868   -2603.4716    21235.542    2.7748346 
    2150    781.96259   -8434.8918   -8347.6627   -2834.4892    21174.904    2.7920698 
    2160    789.33168   -8434.5517   -8346.5005   -2449.5636    21114.676    2.8097692 
    2170     797.4146   -8434.2263   -8345.2735   -1505.5015    21055.576    2.8244033 
    2180    815.08863   -8434.8868   -8343.9624   -287.54171    20998.865     2.835671 
    2190    847.41865   -8437.1061   -8342.5753     564.0465    20945.919    2.8464113 
    2200    872.09889    -8438.474     -8341.19    1027.1396    20897.539    2.8608649 
    2210    855.86092   -8435.3426     -8339.87    1919.0237    20854.079    2.8812387 
    2220    843.00204   -8432.6519   -8338.6137    2469.1871    20816.093    2.9045707 
    2230    864.15048   -8433.7551   -8337.3578    1913.5537     20783.66    2.9265025 
    2240    879.73875   -8434.2204   -8336.0843    1144.7405    20755.789    2.9442313 
    2250    883.36304   -8433.3476   -8334.8071    874.20928    20731.305     2.960746 
    2260    879.87744   -8431.6709   -8333.5193    1386.1808    20709.648     2.981347 
    2270    894.27531   -8431.9831   -8332.2253    1705.3766    20691.016    3.0057403 
    2280    921.45593   -8433.7395   -8330.9497    1168.5385     20675.43    3.0330371 
    2290       938.39   -8434.4356   -8329.7567    486.31991    20662.112    3.0636082 
    2300    929.48534   -8432.3557   -8328.6702     834.5142    20650.232    3.0947712 
    2310     928.2724   -8431.2207   -8327.6705    1854.5589    20640.023     3.122001 
    2320    949.15571   -8432.5865   -8326.7068    2282.2931    20632.369    3.1471922 
    2330    959.40081   -8432.8102   -8325.7876    2499.5657     20627.63    3.1758861 
    2340    945.36701   -8430.4061    -8324.949     2845.662    20625.925    3.2086991 
    2350    947.70195    -8429.906   -8324.1884    2083.8676    20627.349    3.2454142 
    2360     969.7919   -8431.6555   -8323.4738    733.75983    20630.998    3.2896772 
    2370    979.47797   -8432.0959   -8322.8336    -96.92567    20635.378    3.3414892 
    2380    956.87756   -8429.0231    -8322.282    -18.05777    20639.595    3.3963031 
    2390    969.70556   -8429.9716   -8321.7995   -306.53709    20643.586    3.4500966 
    2400    1001.0162    -8433.058   -8321.3932   -570.31822    20647.094    3.5019233 
    2410    995.69085   -8432.2021   -8321.1312    -199.1309    20649.919    3.5542758 
    2420    972.86164   -8429.5527   -8321.0285    306.74663    20652.437     3.609919 
    2430    964.31452   -8428.5976   -8321.0268    640.54424    20655.214    3.6712225 
    2440    988.69063   -8431.3969    -8321.107    778.09747    20658.609    3.7400748 
    2450    1015.6826   -8434.6309     -8321.33     1286.749    20662.837    3.8166801 
    2460    1024.5319   -8436.0529   -8321.7649    1695.0363    20668.387    3.8975454 
    2470    1018.1985   -8436.0087   -8322.4271    2082.1942     20675.68    3.9748342 
    2480    1007.9611     -8435.73   -8323.2904    2558.8265    20685.128    4.0446914 
    2490     1009.109   -8436.8903   -8324.3226    2585.1643    20697.113    4.1096445 
    2500    997.07341   -8436.6905   -8325.4654    2309.0886    20711.591    4.1754087 
    2510    980.79856   -8436.0604   -8326.6509    1938.0186    20728.183    4.2466329 
    2520    961.69919   -8435.1195   -8327.8405    2191.2754    20746.473    4.3273707 
    2530    955.75684   -8435.6341    -8329.018    2804.2664    20766.636    4.4149429 
    2540    966.81848   -8438.0416   -8330.1916    3036.7439    20789.215    4.5031424 
    2550    982.88268   -8441.0138   -8331.3718    2281.4424    20814.304    4.5891971 
    2560    996.65228   -8443.7504   -8332.5723    733.07377    20840.923    4.6734561 
    2570    981.95868   -8443.3379   -8333.7989   -338.62812    20867.337    4.7580849 
    2580    949.84929   -8440.9388   -8334.9817   -707.94665    20892.334    4.8439659 
    2590    962.46238   -8443.4658   -8336.1017   -1194.3463    20915.397    4.9290738 
    2600    956.03427   -8443.8248   -8337.1778   -1246.1345    20936.108    5.0121074 
    2610    951.62059   -8444.3721   -8338.2174   -1757.0839    20954.408    5.0975056 
    2620    957.18332   -8446.0157   -8339.2404   -2799.5558    20969.776    5.1882191 
    2630    925.32763   -8443.4162   -8340.1945   -3112.0848     20981.28    5.2794606 
    2640    930.42244   -8444.8572   -8341.0672   -3517.2994    20988.624    5.3663223 
    2650    937.89143   -8446.5209   -8341.8977   -3694.6892    20991.585    5.4467301 
    2660    914.37033   -8444.6667   -8342.6674   -2921.9237    20990.266    5.5179972 
    2670    927.34016   -8446.8257   -8343.3796   -2632.3851    20985.594    5.5808989 
    2680    932.15697   -8448.0529   -8344.0694   -2593.6525    20978.121    5.6412093 
    2690    918.21677   -8447.1594    -8344.731   -2196.4328    20968.107    5.7043836 
    2700    917.52713   -8447.7223   -8345.3708    -1971.087    20956.042    5.7727367 
    2710    898.92182    -8446.234   -8345.9579   -1183.6664     20942.41    5.8459133 
    2720     914.5911   -8448.4895   -8346.4655    -717.8598    20928.087    5.9186681 
    2730    927.66575   -8450.3721   -8346.8896   -132.48046    20913.713    5.9833902 
    2740    916.81103   -8449.5087   -8347.2371    724.31222    20899.972    6.0419708 
    2750    911.29259   -8449.1762   -8347.5202    1453.3049    20887.766    6.1012131 
    2760     901.2835   -8448.2896   -8347.7501    1877.0245    20877.831    6.1651156 
    2770    906.66368   -8449.0579   -8347.9182    1664.6838    20870.495    6.2345292 
    2780    929.70691   -8451.7396   -8348.0294    1154.6441    20865.416    6.3071214 
    2790    931.15396   -8451.9777   -8348.1061    745.07866    20861.923    6.3776355 
    2800    928.64125   -8451.7594   -8348.1681    615.51175    20859.485    6.4420336 
    2810    936.55845   -8452.6717   -8348.1972     1090.912    20857.927    6.5014379 
    2820    946.24622   -8453.7624   -8348.2072    1760.9529    20857.714    6.5589131 
    2830     937.2979   -8452.7897   -8348.2328    2071.8356    20859.484    6.6171173 
    2840    936.07087   -8452.7071   -8348.2869    2234.0857    20863.522    6.6782746 
    2850    945.52112   -8453.8307   -8348.3564    1654.7297    20869.845     6.743226 
    2860    950.99416   -8454.5209   -8348.4361    617.90004    20877.726    6.8114748 
    2870    966.51845   -8456.3668   -8348.5502   -431.18023    20885.944    6.8833321 
    2880    977.23674   -8457.7421   -8348.7299   -792.40517    20893.371    6.9583291 
    2890    966.12183   -8456.7558   -8348.9835   -825.17765      20899.6    7.0345148 
    2900    949.80939    -8455.248   -8349.2954   -1136.7751    20904.604    7.1089354 
    2910    924.86226   -8452.7999   -8349.6301   -1785.3497    20908.062    7.1787666 
    2920    912.54033   -8451.7321   -8349.9368   -2543.7327     20909.33    7.2439207 
    2930    935.35301   -8454.5523   -8350.2123    -3181.762    20907.625    7.3034229 
    2940    931.84012   -8454.4272    -8350.479   -2668.7191    20902.472    7.3557764 
    2950    947.21787   -8456.4171   -8350.7535   -1944.1704     20894.49    7.4019253 
    2960    977.73859   -8460.1459   -8351.0777   -990.45725    20884.623    7.4461215 
    2970    965.33659   -8459.1694   -8351.4847    98.876892    20874.008    7.4936122 
    2980    954.03134   -8458.3896   -8351.9659    605.86131    20863.852    7.5481913 
    2990    945.81274    -8457.996   -8352.4891    755.04037    20854.747    7.6101417 
    3000    946.82987   -8458.6517   -8353.0314     652.3975     20846.83    7.6732712 
    3010    956.59127   -8460.3049   -8353.5957    486.43065    20839.938    7.7338755 
    3020    959.46191   -8461.2236   -8354.1942    527.81341    20833.873    7.7913027 
    3030    969.79999   -8463.0425   -8354.8598    541.74434    20828.626    7.8485321 
    3040    954.38796   -8462.0646   -8355.6012    726.75373     20824.21    7.9112738 
    3050     925.8477   -8459.6267    -8356.347    897.46602      20820.8    7.9835615 
    3060    947.87644   -8462.7796   -8357.0426   -112.21897    20818.405    8.0669082 
    3070    954.91006   -8464.2406   -8357.7189   -737.94967    20816.016    8.1574779 
    3080    921.58964     -8461.15   -8358.3453   -682.38782    20812.945     8.247595 
    3090    955.05819   -8465.4722    -8358.934   -1417.3137    20809.111    8.3336504 
    3100    966.61844   -8467.3789   -8359.5511   -1582.5143    20803.863    8.4175475 
    3110    939.61038   -8465.0092   -8360.1942   -904.34222    20797.084      8.50021 
    3120    944.77765   -8466.2227   -8360.8313   -551.94506    20789.475    8.5816995 
    3130    947.20459   -8467.1099   -8361.4478   -627.80085    20781.465    8.6618751 
    3140    954.46943   -8468.5366   -8362.0641   -940.44788    20772.997    8.7391873 
    3150    946.29946   -8468.2514   -8362.6902   -878.46061    20763.781    8.8154494 
    3160    935.70454   -8467.6808   -8363.3015   -731.96808    20753.902    8.8963919 
    3170    954.75933   -8470.4177   -8363.9129   -1288.4775    20743.473    8.9836867 
    3180    937.89305   -8469.1473    -8364.524   -1245.7526     20732.02    9.0731895 
    3190    913.56436   -8466.9891   -8365.0796   -906.93381    20719.575    9.1569187 
    3200    949.64661   -8471.5195    -8365.585   -991.65566    20706.496    9.2280985 
    3210    955.60548   -8472.6816   -8366.0823   -24.253487    20692.896    9.2889518 
    3220    944.83577   -8471.9694   -8366.5715    1050.7036    20679.757    9.3417374 
    3230    967.16355   -8474.9775   -8367.0889    1133.0076    20668.156    9.3889529 
    3240     963.1022   -8475.0812   -8367.6457    1248.2082     20658.26    9.4401422 
    3250    959.65117   -8475.2974   -8368.2468    1293.1974    20650.106    9.5009956 
    3260    925.58298   -8472.0814   -8368.8312    1684.8338     20643.74    9.5663291 
    3270    910.44298   -8470.9027   -8369.3414     1866.577    20639.466    9.6252111 
    3280    936.03932   -8474.2057   -8369.7891    1581.2496    20637.389    9.6698212 
    3290    944.80761   -8475.6207    -8370.226      1395.83     20637.16    9.7021709 
    3300    942.96287    -8475.853    -8370.664    1240.5897    20638.513    9.7315799 
    3310    969.72167   -8479.2974   -8371.1235    560.39442    20641.169    9.7698062 
    3320    986.05712   -8481.6472   -8371.6511     342.8417    20644.427    9.8161962 
    3330    955.44457   -8478.8359   -8372.2546    803.06497    20648.053    9.8657936 
    3340    911.78455   -8474.5577   -8372.8468    608.31945    20652.395    9.9204214 
    3350     910.6245   -8474.9435    -8373.362   -490.62207    20657.193    9.9803885 
    3360    918.54655   -8476.2546   -8373.7893   -1685.6803    20661.296    10.039632 
    3370    948.36976   -8479.9679   -8374.1758   -2833.5547    20663.369    10.093485 
    3380    969.67743    -8482.752    -8374.583   -3111.5504    20662.286     10.14245 
    3390    953.03538   -8481.3434   -8375.0309   -2524.5898    20657.824    10.189046 
    3400    934.60948   -8479.7449   -8375.4878   -1761.0052     20650.68    10.235981 
    3410    921.62028   -8478.7289   -8375.9208   -1147.8771    20641.759    10.283894 
    3420     914.8539    -8478.367   -8376.3137   -613.96831    20631.819      10.3315 
    3430    933.54877   -8480.8102   -8376.6714   -274.07647    20621.463    10.380817 
    3440    945.01084   -8482.4173   -8376.9999    186.41247    20611.125     10.44211 
    3450    966.86927   -8485.1979   -8377.3422     51.88805    20601.231    10.523277 
    3460    972.20175   -8486.2027   -8377.7521   -262.05698    20591.691    10.618898 
    3470    936.35057   -8482.6771   -8378.2257   -992.37675    20582.097    10.716038 
    3480    917.91238   -8481.0907   -8378.6962    -1711.135    20571.699    10.804874 
    3490    934.51329   -8483.3731   -8379.1268   -2583.6883    20559.688    10.883571 
    3500     953.4137   -8485.8913   -8379.5365   -2745.5662    20545.259    10.957348 
    3510    957.93864   -8486.8184   -8379.9589   -2277.5011     20528.31    11.028988 
    3520    957.29691   -8487.1871   -8380.3992   -1580.9819    20509.441    11.098528 
    3530    960.21763   -8487.9676   -8380.8539   -1327.1929    20489.429    11.167344 
    3540     965.1567   -8489.0149   -8381.3502   -1284.0137    20468.623    11.237465 
    3550    947.21186   -8487.5431   -8381.8802   -1052.0238    20447.161    11.307092 
    3560    962.65555   -8489.8209   -8382.4352   -1014.3007    20425.288    11.372574 
    3570    988.29862    -8493.286   -8383.0398   -660.11966    20403.131    11.434754 
    3580    987.87981   -8493.9088   -8383.7093    962.14285    20381.212    11.497185 
    3590    971.86709   -8492.8265   -8384.4133    2749.4471    20361.178    11.563762 
    3600    964.65734   -8492.7171   -8385.1082    3478.7078    20344.806    11.634951 
    3610    978.15265   -8494.8953   -8385.7809     2782.894      20332.7    11.707108 
    3620    976.27531   -8495.3455   -8386.4405     1561.909    20324.013    11.776073 
    3630    948.48153   -8492.8317   -8387.0272    680.74597    20317.378    11.839425 
    3640    945.65939    -8492.997   -8387.5072    102.69024    20311.746    11.901284 
    3650    948.99089   -8493.7365   -8387.8752    123.36298    20306.506    11.964701 
    3660    971.17369   -8496.5225   -8388.1866   -46.178355    20301.572    12.029739 
    3670    988.30299   -8498.7637    -8388.517   -328.83398    20296.753    12.090198 
    3680    976.20894   -8497.7911   -8388.8936   -262.45961    20291.829    12.144194 
    3690    986.52943   -8499.3834   -8389.3346   -883.69342    20286.735    12.196968 
    3700    977.87519   -8498.9167   -8389.8333   -1557.4116    20280.878    12.256457 
    3710    956.36178   -8497.0442   -8390.3606   -2232.8997    20273.536    12.324195 
    3720    937.91259   -8495.4968   -8390.8713    -2335.855    20264.128    12.392747 
    3730    936.36345   -8495.7998    -8391.347     -2599.07    20252.531    12.460873 
    3740    958.18257   -8498.6978   -8391.8111   -3078.5723    20238.534    12.527179 
    3750    966.02605   -8500.0624   -8392.3008   -2999.7324    20221.804     12.58437 
    3760    950.92999   -8498.8728   -8392.7951   -2418.2781    20202.525    12.628303 
    3770    950.10922   -8499.2651    -8393.279   -1802.7311     20181.37    12.660983 
    3780    961.86742   -8501.0678     -8393.77   -1351.5014    20159.057    12.690636 
    3790    986.80171   -8504.3863   -8394.3071   -790.19718    20136.147    12.722829 
    3800    991.83741   -8505.5702   -8394.9292    302.94909    20113.285    12.755459 
    3810    992.82613   -8506.3784   -8395.6272    1682.9269     20091.62    12.785161 
    3820    997.66263   -8507.7077   -8396.4169     2395.626    20072.464    12.809019 
    3830    960.28948   -8504.3725   -8397.2507    2813.0794    20056.522    12.831148 
    3840    949.34821   -8503.9477   -8398.0465    2287.0561    20044.032    12.855112 
    3850    981.02562   -8508.2611   -8398.8262    1160.7709    20034.348    12.880517 
    3860    972.57511    -8508.103   -8399.6108    855.71709    20026.306    12.909433 
    3870    968.66281   -8508.4356   -8400.3798    1160.0226    20019.507    12.947032 
    3880    964.48377   -8508.7243   -8401.1347    1034.6171    20014.104     13.00535 
    3890      925.959   -8505.0965   -8401.8043    1250.7073    20010.025     13.08909 
    3900    937.73525   -8506.9784   -8402.3726    492.23029    20007.283    13.187889 
    3910    945.74562   -8508.3606   -8402.8613   -605.78262    20005.134    13.290997 
    3920    965.32338   -8511.0116   -8403.3283   -1689.7435    20002.413    13.387028 
    3930    972.64001   -8512.3354   -8403.8359    -1381.243    19998.122    13.469404 
    3940    933.74009   -8508.5059   -8404.3458    206.09845    19992.617    13.545333 
    3950    949.39325   -8510.7518   -8404.8456    1118.0635    19987.418    13.627749 
    3960    952.48948   -8511.5967    -8405.345    1907.1951    19983.569    13.722745 
    3970    951.48105   -8512.0008   -8405.8617    2068.0668    19981.782    13.826063 
    3980    957.16947   -8513.1734   -8406.3997    1535.2662    19982.142    13.930016 
    3990      950.802   -8513.0118   -8406.9484    1367.0718    19984.154    14.034816 
    4000    953.56055   -8513.8667   -8407.4956    1184.8537     19987.56    14.145698 
    4010    957.79347   -8514.8875   -8408.0442    1213.4681    19992.152    14.266959 
    4020    946.10355   -8514.1291   -8408.5899     1301.175    19997.902    14.400327 
    4030    934.30087   -8513.3289   -8409.1062    876.35074    20004.809    14.545081 
    4040    937.38798   -8514.1639   -8409.5968    199.40979    20012.422    14.692914 
    4050    929.85866   -8513.7798   -8410.0527   -579.48387    20020.014    14.834523 
    4060    933.91985   -8514.6531   -8410.4729   -1787.6233    20026.717    14.968363 
    4070    937.12127   -8515.3994   -8410.8621   -2985.4307    20031.317    15.097968 
    4080    921.11137   -8513.9743   -8411.2229   -2948.5624    20032.747    15.223352 
    4090    928.24631   -8515.1029   -8411.5556   -2673.6093    20031.021    15.341518 
    4100    941.40507     -8516.88   -8411.8648   -2044.6989    20026.576    15.452308 
    4110    930.44734   -8515.9573   -8412.1645   -963.11521    20020.168     15.55779 
    4120    923.26324   -8515.4405   -8412.4491   -273.48805    20012.929    15.661398 
    4130    936.16755   -8517.1446   -8412.7137   -124.04116    20005.596    15.767966 
    4140    962.25072   -8520.3225    -8412.982   -228.16844    19998.336    15.877616 
    4150    962.83853   -8520.7077   -8413.3016    260.37232     19991.13    15.987178 
    4160    922.66137   -8516.5682   -8413.6439    1746.4151    19984.558    16.096159 
    4170    925.93909   -8517.2623   -8413.9724    2178.8219    19979.937    16.212762 
    4180    942.27166    -8519.425   -8414.3131    2184.5792    19977.717    16.341236 
    4190    905.45245   -8515.6564   -8414.6518    3239.3328     19977.99    16.479285 
    4200    908.12705   -8516.2372   -8414.9342    3404.3083     19981.58    16.622842 
    4210    955.03199    -8521.709   -8415.1737    2297.4616    19988.525    16.768573 
    4220    935.56605   -8519.7866   -8415.4228    2445.4334    19997.804    16.914572 
    4230    906.64323   -8516.8044    -8415.667    3360.6814    20009.456    17.058046 
    4240    924.91791   -8519.0568   -8415.8808     3133.355    20024.167    17.201622 
    4250    932.68693   -8520.1212   -8416.0786    3203.8333    20041.781    17.349246 
    4260    942.93969    -8521.472   -8416.2856    3165.1605     20062.22    17.502832 
    4270    956.40096   -8523.2261   -8416.5381    2691.7341    20085.301    17.664837 
    4280    945.38635   -8522.3291   -8416.8698    2358.1095    20110.519    17.837735 
    4290    935.57078    -8521.619   -8417.2547    1283.0251    20137.342    18.018633 
    4300    966.13709   -8525.4588   -8417.6848    -730.5438    20164.522    18.200314 
    4310    970.07272   -8526.4517   -8418.2386   -1426.6815    20190.122    18.374116 
    4320    930.14059   -8522.7062   -8418.9476   -411.05112    20213.488    18.540515 
    4330    920.28299   -8522.4285   -8419.7695    223.50955    20235.555    18.705669 
    4340    914.10875   -8522.6446   -8420.6744    934.24646    20257.101    18.876688 
    4350    896.20239   -8521.5736   -8421.6009    1528.2203    20278.907     19.05185 
    4360    916.80777   -8524.7702   -8422.4989    369.40849    20301.417       19.225 
    4370    936.76077   -8527.8833   -8423.3862   -1237.6925    20323.494    19.399815 
    4380    920.67946   -8526.9395   -8424.2363   -2368.9396     20343.49    19.581428 
    4390    916.66607   -8527.2364   -8424.9809    -3499.263     20360.16     19.77213 
    4400    913.33967   -8527.4762   -8425.5917   -3845.0815    20372.488    19.968365 
    4410    907.61023   -8527.3179   -8426.0726   -3625.7765    20380.224    20.151313 
    4420    927.01768   -8529.8762    -8426.466   -3640.6955     20383.69    20.304955 
    4430    935.56997   -8531.1864   -8426.8222   -3286.8164    20383.089    20.430769 
    4440    918.58031   -8529.6144   -8427.1454   -2248.6065    20378.996    20.539744 
    4450    893.08099   -8527.0119   -8427.3873   -1078.3577    20372.635    20.639942 
    4460    897.39302   -8527.6183   -8427.5128   -201.01445    20365.318     20.73405 
    4470    927.00368   -8530.9547    -8427.546   -151.68429    20357.946    20.825624 
    4480     937.1726   -8532.0851   -8427.5421    461.56406    20350.752     20.91378 
    4490    931.87829   -8531.4989   -8427.5464    1293.3004    20344.345    20.996364 
    4500    919.04375   -8530.0617    -8427.541    1678.0986    20339.519    21.080366 
    4510    947.76175   -8533.2526   -8427.5284    1281.2163    20336.608    21.173457 
    4520    948.91445    -8533.384   -8427.5312    696.57269    20335.173    21.275338 
    4530    923.30745   -8530.5438   -8427.5474    566.04408    20334.584      21.3827 
    4540    924.07672   -8530.6136   -8427.5315    253.26285    20334.603    21.493213 
    4550    946.87701   -8533.1016    -8427.476    86.767223    20334.913    21.603802 
    4560     957.2507     -8534.21   -8427.4273    362.03472    20335.333    21.712091 
    4570    943.23987   -8532.6412   -8427.4214    964.37234    20336.182     21.81578 
    4580    937.65507   -8532.0413   -8427.4445    624.37136    20337.951    21.916701 
    4590    926.34124   -8530.7964   -8427.4616   -196.83662     20340.32    22.013271 
    4600    944.25691   -8532.8063   -8427.4731   -1462.1151    20342.362    22.103985 
    4610    968.21048   -8535.5159   -8427.5105    -2283.876     20342.79    22.189931 
    4620    964.67416   -8535.2127   -8427.6019   -2580.4859    20340.774    22.266762 
    4630    992.12756   -8538.4618   -8427.7885   -3232.6572    20335.926    22.325964 
    4640    972.93574   -8536.6193   -8428.0869   -2364.4992    20327.859    22.370546 
    4650    948.47302   -8534.2705   -8428.4669   -793.40435    20317.533    22.417847 
    4660    944.30781   -8534.2147   -8428.8757    59.953601     20306.61    22.481993 
    4670    976.85464   -8538.3114   -8429.3418   -477.73604    20295.947    22.566901 
    4680    1002.1384   -8541.7541    -8429.964   -1074.9121    20285.098     22.66689 
    4690    977.46074   -8539.8182    -8430.781   -911.76731    20273.505    22.775273 
    4700    972.01754   -8540.1714   -8431.7414   -1291.0294    20261.228    22.878543 
    4710    996.11246   -8543.9818   -8432.8639   -2146.7329    20247.852    22.964497 
    4720     973.7216    -8542.693   -8434.0729    -1697.632      20232.7    23.039122 
    4730     977.8824   -8544.3493    -8435.265   -1376.3286     20216.13    23.113518 
    4740    971.93928   -8544.7637   -8436.3424   -1348.5172    20198.523    23.194372 
    4750     962.9838   -8544.6535   -8437.2312   -1002.1766    20180.036    23.281968 
    4760    954.71961   -8544.4103   -8437.9099   -818.67218    20161.035    23.363816 
    4770    969.68792   -8546.6046   -8438.4344   -1677.9236    20141.649    23.428972 
    4780    992.43803   -8549.6262   -8438.9182   -2818.4988    20121.022    23.483754 
    4790    970.79553   -8547.6998   -8439.4061   -3030.7842    20098.102     23.53723 
    4800     960.2571   -8547.0061   -8439.8879   -3221.1554     20072.68    23.587886 
    4810    970.78631   -8548.6614   -8440.3687    -3356.137    20044.661    23.629804 
    4820     977.8127   -8549.9591   -8440.8826   -2837.8464    20014.035    23.660234 
    4830     960.5879   -8548.5712   -8441.4162   -1253.5239    19981.524    23.684168 
    4840    949.19353   -8547.8146   -8441.9306    718.34884    19948.821    23.709738 
    4850    955.03485   -8548.9562   -8442.4206    1984.6249    19917.909    23.745864 
    4860    974.32271   -8551.6175   -8442.9303    2167.6744    19890.032     23.79452 
    4870    991.68795    -8554.137   -8443.5128    1849.6941    19865.344    23.844895 
    4880    995.34244    -8555.236    -8444.204    1888.4995    19843.481    23.887408 
    4890    973.02988   -8553.5154   -8444.9724    2217.6097    19824.367    23.925905 
    4900    961.37612   -8553.0188   -8445.7758    2018.2271    19808.141    23.971348 
    4910     960.9943   -8553.7817   -8446.5814     1665.544    19794.568    24.030764 
    4920    969.27584   -8555.5159   -8447.3917    1157.8216    19783.153    24.099679 
    4930    972.17614    -8556.664   -8448.2163    1457.2141    19773.381    24.178975 
    4940    944.76047   -8554.4142   -8449.0248    2424.4088    19765.508    24.266516 
    4950    929.48721   -8553.4522   -8449.7665    2848.4473    19760.357    24.355806 
    4960     933.7233   -8554.5959   -8450.4377    2662.0192    19758.251    24.445109 
    4970      894.634   -8550.8101   -8451.0123    2796.0823        19759    24.536123 
    4980    878.01612   -8549.3929   -8451.4488    2225.8565    19762.534    24.626258 
    4990     904.5003   -8552.6458   -8451.7474    1159.2053    19768.218    24.711567 
    5000    956.18776    -8558.644   -8451.9798   -118.25652    19774.901    24.793663 
Loop time of 1913.58 on 16 procs for 3000 steps with 864 atoms

Performance: 0.135 ns/day, 177.184 hours/ns, 1.568 timesteps/s
96.5% CPU use with 16 MPI tasks x 1 OpenMP threads

MPI task timing breakdown:
Section |  min time  |  avg time  |  max time  |%varavg| %total
---------------------------------------------------------------
Pair    | 623.02     | 1155.4     | 1851.6     |1096.9 | 60.38
Bond    | 0.00024104 | 0.00050266 | 0.0010848  |   0.0 |  0.00
Neigh   | 0.027581   | 0.047172   | 0.086547   |   9.2 |  0.00
Comm    | 8.8615     | 491.03     | 1136.4     |1396.8 | 25.66
Output  | 0.1861     | 0.18944    | 0.23853    |   2.9 |  0.01
Modify  | 0.32886    | 266.93     | 789.98     |1540.9 | 13.95
Other   |            | 0.01293    |            |       |  0.00

Nlocal:        54.0000 ave          86 max          35 min
Histogram: 4 3 3 0 0 1 1 1 1 2
Nghost:        503.438 ave         680 max         355 min
Histogram: 3 1 2 2 2 0 2 0 2 2
Neighs:         0.00000 ave           0 max           0 min
Histogram: 16 0 0 0 0 0 0 0 0 0
FullNghs:      2565.25 ave        5601 max        1009 min
Histogram: 6 3 1 0 0 2 1 1 0 2

Total # of neighbors = 41044
Ave neighs/atom = 47.504630
Ave special neighs/atom = 0.0000000
Neighbor list builds = 300
Dangerous builds = 300
unfix   2

fix     3 all npt temp 937.5 937.5 $(100.0*dt) aniso 1.01325 1.01325 $(1000.0*dt)
fix     3 all npt temp 937.5 937.5 0.10000000000000000555 aniso 1.01325 1.01325 $(1000.0*dt)
fix     3 all npt temp 937.5 937.5 0.10000000000000000555 aniso 1.01325 1.01325 1
run     20000
Per MPI rank memory allocation (min/avg/max) = 8.899 | 8.909 | 8.922 Mbytes
Step Temp PotEng TotEng Press Volume c_msd[4] 
    5000    956.18776    -8558.644   -8451.9798   -118.25652    19774.901    24.793663 
    5010    961.74286   -8559.2955   -8452.0116   -150.75343     19774.74    24.800162 
    5020    936.81134   -8556.5886   -8452.0858    952.34117    19774.542    24.822334 
    5030    959.48155   -8559.2176    -8452.186    1257.1748    19775.249    24.860744 
    5040    964.47151   -8559.9204   -8452.3321    1604.1834    19777.259    24.906469 
    5050    933.64004   -8556.6825   -8452.5336     1971.886    19780.972    24.954301 
    5060    928.01433   -8556.2649   -8452.7435    253.21573    19786.554      25.0039 
    5070    930.58317    -8556.747   -8452.9391   -1965.8364    19792.364    25.045958 
    5080    905.40994   -8554.1136   -8453.1138   -2268.2529    19796.326    25.070617 
    5090    922.21404   -8556.1428   -8453.2685   -1612.1972    19797.988    25.073106 
    5100    926.82209   -8556.7916   -8453.4032   -244.27894    19798.021    25.053663 
    5110    924.28983   -8556.6326   -8453.5266    1099.8893    19797.822    25.017477 
    5120    949.41105   -8559.5597   -8453.6515    1365.6748    19798.689    24.967118 
    5130    965.57433   -8561.5283    -8453.817    1687.4151    19801.005    24.907843 
    5140    953.19354   -8560.3822    -8454.052    2421.9977    19805.165    24.852042 
    5150    944.92109   -8559.7704    -8454.363    3161.3573    19811.903    24.808508 
    5160    940.22709   -8559.6294   -8454.7456    3706.5817    19821.995    24.784425 
    5170    957.43419   -8562.0438   -8455.2406    3215.8472    19835.918    24.784897 
    5180    942.22988   -8560.9658   -8455.8587     2716.049    19853.316    24.808737 
    5190    918.60973    -8559.041   -8456.5687    2164.4631    19873.644    24.855296 
    5200    917.87249   -8559.7104   -8457.3204    1615.6685    19896.361    24.929915 
    5210    937.50618   -8562.6976   -8458.1174    625.95727    19920.838    25.035243 
    5220    942.66719    -8564.127   -8458.9711    144.52347    19946.144    25.162547 
    5230    928.91753   -8563.4633   -8459.8411   -478.83073    19971.677    25.298647 
    5240    920.32413   -8563.3449   -8460.6814   -1639.5802    19996.739    25.445379 
    5250    896.63229   -8561.4471   -8461.4264   -2934.9003    20020.114    25.611029 
    5260    884.91944   -8560.7246   -8462.0105   -4082.4311    20040.413    25.794073 
    5270    917.23931   -8564.7858   -8462.4664   -4768.0035    20056.399    25.989035 
    5280    906.20514   -8563.9202   -8462.8316   -4680.2105    20067.322    26.188223 
    5290    905.80129   -8564.1641   -8463.1206   -4788.6027    20073.176    26.378622 
    5300    915.58378   -8565.4792   -8463.3445   -5066.0633    20073.835     26.54804 
    5310    883.41266   -8562.0406   -8463.4946   -4519.3965    20069.117    26.697764 
    5320    886.55721   -8562.4617   -8463.5649   -4365.1128    20059.496    26.841125 
    5330    906.68819   -8564.7062   -8463.5638   -3880.3462    20045.243    26.985854 
    5340    910.65313   -8565.0787   -8463.4939   -2351.3292    20026.998    27.132016 
    5350    935.98556   -8567.7681   -8463.3575   -1642.0307     20006.25    27.270624 
    5360    956.94343   -8569.9544   -8463.2059   -1703.5409    19983.792    27.396537 
    5370    942.05018   -8568.1682    -8463.081   -648.01853    19959.809    27.517865 
    5380    939.27288   -8567.7502   -8462.9729    814.22119     19935.37    27.651659 
    5390    937.59599   -8567.4482   -8462.8579    2362.2022    19912.038     27.81074 
    5400    934.99008    -8567.025   -8462.7255    3338.0915    19891.396    27.993378 
    5410    933.19618   -8566.6632   -8462.5638    3447.6438    19874.446    28.187957 
    5420    927.72472   -8565.8713   -8462.3822    2866.8976    19861.296    28.384517 
    5430    946.90658   -8567.8333   -8462.2045    1961.8579    19851.312    28.587064 
    5440    967.11985   -8569.9406    -8462.057    1480.2697    19843.573     28.80922 
    5450    998.41653   -8573.3646   -8461.9898    2073.8942    19837.607    29.060338 
    5460    959.82903   -8569.0637   -8461.9933    3978.5841    19834.059    29.339843 
    5470    950.79107   -8568.0975   -8462.0354    4232.5709    19834.549     29.63714 
    5480    977.55061   -8571.1423   -8462.0951    2790.4552    19839.293    29.934213 
    5490    977.39825   -8571.2566   -8462.2264    1175.6407    19846.824    30.217047 
    5500    983.37368   -8572.1989   -8462.5021    110.35755    19855.438     30.48029 
    5510    963.69756   -8570.4724   -8462.9705    138.95394    19864.059    30.726139 
    5520    916.39557   -8565.8117   -8463.5864    470.00299    19872.631    30.964621 
    5530    942.13625   -8569.4189   -8464.3222   -682.35151    19881.313    31.196375 
    5540    954.72579   -8571.7193   -8465.2182   -1508.4019    19889.083    31.408949 
    5550     915.3077   -8568.3155   -8466.2116   -1325.7888    19895.159    31.599406 
    5560    934.15977   -8571.4366   -8467.2296   -1193.8818    19899.671    31.778156 
    5570     953.0379   -8574.5603   -8468.2475   -976.44216    19902.831    31.958213 
    5580    960.60385     -8576.42   -8469.2632   -1178.5123    19904.844    32.148561 
    5590    951.03529   -8576.3267   -8470.2373   -1277.2092    19905.589    32.347676 
    5600    945.88184   -8576.6271   -8471.1126   -1095.4648    19904.998    32.542201 
    5610    948.31838   -8577.6691   -8471.8827   -864.77476    19903.271    32.719918 
    5620    926.88781   -8575.9239   -8472.5282   -198.40091    19900.738     32.87645 
    5630    916.99051    -8575.334   -8473.0423    195.91558    19898.049    33.012242 
    5640    926.17385   -8576.7584   -8473.4423   -159.68403    19895.573    33.131427 
    5650    949.12929   -8579.6677   -8473.7909   -913.40189    19892.956    33.235603 
    5660    925.76021   -8577.3648   -8474.0948   -1130.4026    19889.498    33.335881 
    5670    916.06309   -8576.5349   -8474.3467   -605.72766    19885.048    33.446268 
    5680    907.52256   -8575.7614   -8474.5259   -18.110573    19880.118    33.563487 
    5690    914.12373    -8576.607   -8474.6351     788.9603    19875.336    33.681781 
    5700    942.81768   -8579.8666   -8474.6939    1444.0428    19871.525    33.794791 
    5710     955.5855   -8581.3611   -8474.7641    1092.7253    19869.229    33.898217 
    5720    958.38188   -8581.7836   -8474.8746    645.24288    19868.144    33.993219 
    5730    975.91493   -8583.9133   -8475.0486   -511.85481    19867.669    34.079954 
    5740    952.21915   -8581.5062   -8475.2847    -1534.379    19866.692    34.153399 
    5750    942.29092   -8580.6715   -8475.5575   -2237.9955    19864.163     34.21271 
    5760    953.99492   -8582.2803   -8475.8608   -2853.5083    19859.362    34.258949 
    5770    937.84372   -8580.8188   -8476.2009   -2902.3184    19851.765    34.290874 
    5780     929.5451   -8580.2376   -8476.5455   -2849.0656    19841.344    34.304471 
    5790    955.58602   -8583.5122   -8476.9152    -3036.506    19828.193    34.299141 
    5800    928.95379   -8580.9328   -8477.3066   -2221.7852    19812.307    34.278478 
    5810    908.54363   -8579.0183   -8477.6689    -850.6763    19794.537    34.250921 
    5820     932.4902   -8582.0115   -8477.9908    217.21572    19776.262    34.224413 
    5830    928.85286   -8581.9083   -8478.2934    1171.5739    19758.652    34.193402 
    5840    928.09373   -8582.1138   -8478.5836    1226.4789    19742.567    34.149824 
    5850      973.579   -8587.5157   -8478.9115    676.05743    19728.039    34.091557 
    5860    934.50052   -8583.5488   -8479.3039    1634.1328    19714.676    34.011766 
    5870    901.73005   -8580.2591   -8479.6697    2833.0095    19703.309    33.908669 
    5880    969.74068   -8588.2108   -8480.0348    3211.6582    19694.993    33.797463 
    5890    946.57183   -8586.0401   -8480.4486    4736.3391     19690.26    33.700774 
    5900    933.25176   -8585.0273   -8480.9217    5859.0665    19690.453    33.637121 
    5910    947.14107   -8587.0986   -8481.4436    5207.7622    19696.502    33.608272 
    5920    944.78347   -8587.4072   -8482.0152    3909.3642    19707.785    33.601399 
    5930    946.66973   -8588.2411   -8482.6387    1867.4299    19722.848    33.608158 
    5940    936.25844   -8587.7294   -8483.2883    153.14955    19739.645      33.6207 
    5950    934.25521   -8588.1571   -8483.9395   -1167.3141    19756.371    33.634538 
    5960    942.99232   -8589.7793    -8484.587   -2093.5689    19771.655    33.652317 
    5970    936.05324   -8589.6555   -8485.2374   -2174.4999    19784.615    33.677872 
    5980    914.44045   -8587.8675   -8485.8603   -1989.6603    19795.151    33.708901 
    5990    920.03861    -8589.048   -8486.4163   -2481.5162    19803.383    33.733518 
    6000    953.14265   -8593.2693   -8486.9448   -2894.0915    19808.926    33.745083 
    6010    953.50753   -8593.8433   -8487.4781   -2874.5175    19811.434    33.746428 
    6020    950.54463   -8594.0516   -8488.0169   -3553.7204    19810.841     33.74016 
    6030    955.05025    -8595.085   -8488.5477    -4274.082    19806.558    33.726228 
    6040    964.99129   -8596.7274   -8489.0812   -4226.6354     19797.92    33.710358 
    6050    954.56947   -8596.0964   -8489.6128    -2570.954    19785.144    33.700621 
    6060     912.8681   -8591.9042   -8490.0724   -842.66791    19769.845    33.702781 
    6070    914.57372   -8592.4442   -8490.4221    -554.7809    19753.704      33.7197 
    6080    925.72772   -8593.9451   -8490.6788   -681.18302    19737.161    33.752412 
    6090    918.66812    -8593.344   -8490.8652    -1148.051    19720.078    33.798068 
    6100    932.02246   -8594.9836   -8491.0151   -1927.1342     19701.97    33.852817 
    6110    948.36407   -8596.9281   -8491.1367   -1956.4533    19682.158    33.909434 
    6120    974.50274   -8599.9813    -8491.274   -1489.8424      19660.6    33.956293 
    6130    952.64068   -8597.6991   -8491.4306   -483.08803    19637.823    33.997899 
    6140    948.62954   -8597.4043   -8491.5833   -174.70824    19614.766    34.041468 
    6150    967.71518   -8599.7066   -8491.7565   -268.72529    19591.786    34.089163 
    6160    966.93967   -8599.8428   -8491.9793    752.18768    19568.966    34.141617 
    6170    957.54168    -8599.058   -8492.2428     1831.827    19547.219    34.205828 
    6180    947.57312   -8598.2187   -8492.5155    2814.8574    19527.644    34.292134 
    6190    954.53532   -8599.2719    -8492.792    2824.6209    19511.103    34.404336 
    6200    968.43885   -8601.1171   -8493.0862    2561.1247    19497.644    34.540559 
    6210    962.20114   -8600.7556   -8493.4206    2747.3573    19487.022    34.691987 
    6220    957.51247   -8600.5945   -8493.7826    3071.6151    19479.352    34.844038 
    6230    986.65487   -8604.2714   -8494.2085    2721.4794    19474.808    34.995162 
    6240    980.16799   -8604.0683   -8494.7291     2794.552    19473.132    35.152821 
    6250    940.84942   -8600.2669   -8495.3138    3007.5577    19474.313    35.316455 
    6260    917.80788   -8598.2559    -8495.873    2485.3109    19478.451    35.488746 
    6270    962.86277   -8603.8227    -8496.414    860.12058    19484.937    35.680815 
    6280    963.42965   -8604.4481   -8496.9761   -299.34834    19492.257    35.895463 
    6290    940.37628     -8602.42   -8497.5196   -672.63508     19499.27    36.114108 
    6300    960.44995   -8605.1734   -8498.0338   -1701.2945     19505.43    36.314337 
    6310    949.56331   -8604.4508   -8498.5256     -2176.41    19509.871    36.480988 
    6320    961.95645   -8606.3326   -8499.0249   -3026.0593        19512     36.61909 
    6330    954.23303   -8605.9711    -8499.525   -3494.1167    19511.088    36.743582 
    6340    967.75176   -8607.9899   -8500.0357   -3489.9398    19506.693    36.864729 
    6350    981.82349   -8610.1029    -8500.579   -2508.0203    19498.912    36.980862 
    6360    974.34047   -8609.8439   -8501.1548   -1112.2162    19488.717    37.084219 
    6370    964.20331    -8609.297   -8501.7387   -259.96704    19477.472     37.17664 
    6380    952.66937   -8608.5662   -8502.2945    593.44356    19466.129    37.271178 
    6390    955.15476    -8609.365    -8502.816      1525.49    19455.557    37.377209 
    6400     952.5394   -8609.5653   -8503.3081     2920.097    19446.712    37.496911 
    6410    942.17091   -8608.8726    -8503.772    4092.9891    19440.908     37.63852 
    6420    933.80415   -8608.3827   -8504.2155    4393.0743    19439.215    37.812263 
    6430    921.50855   -8607.4133   -8504.6176    4518.2544    19441.973    38.017447 
    6440    946.21646   -8610.5332   -8504.9814    4332.1392    19449.233    38.249257 
    6450    977.22763   -8614.3788   -8505.3676    3996.2603     19460.76    38.505303 
    6460    964.04167   -8613.3691   -8505.8288    4172.4092    19476.269    38.794905 
    6470    953.02645   -8612.6501   -8506.3386    4021.2715    19495.782    39.130753 
    6480    955.34342   -8613.3945   -8506.8245    2833.0756    19519.021    39.515351 
    6490    951.76919   -8613.4193   -8507.2481    964.18704    19544.757    39.929103 
    6500    961.75772   -8614.9202   -8507.6347   -1134.2228    19571.046     40.34972 
    6510    963.13352   -8615.4391   -8508.0001   -3135.1153    19595.712    40.766636 
    6520    943.94603   -8613.6502   -8508.3516   -3579.3717    19616.868      41.1701 
    6530    945.53683   -8614.1727   -8508.6966   -3494.3084    19633.975    41.556674 
    6540    966.21899   -8616.8308   -8509.0476   -3757.9869    19647.104    41.916941 
    6550    957.49556   -8616.2461   -8509.4361   -3399.6431    19656.168    42.240942 
    6560    922.45941    -8612.738   -8509.8363   -2439.2228    19661.601     42.52365 
    6570    929.82817   -8613.9468    -8510.223   -1771.0279    19664.381    42.772285 
    6580    929.84285   -8614.3142   -8510.5888   -664.99166    19665.354     43.00602 
    6590    925.34824   -8614.1466   -8510.9226    183.53537    19665.621    43.245371 
    6600    956.31244   -8617.9091    -8511.231   -46.096723    19665.962    43.497461 
    6610    985.87444    -8621.551   -8511.5752   -200.52683    19666.247    43.752593 
    6620     953.1306   -8618.3073   -8511.9841    1070.2387     19666.47    44.004304 
    6630    943.47724   -8617.6526   -8512.4063    2176.3788    19667.791    44.266352 
    6640    969.97888   -8621.0317   -8512.8291     2001.019    19671.199    44.549075 
    6650    964.02269   -8620.8142   -8513.2761    1993.4581    19676.602    44.844633 
    6660    956.71866   -8620.4753   -8513.7519     2143.451    19683.959    45.138807 
    6670    962.74606    -8621.635   -8514.2393    1640.7315    19693.293    45.421867 
    6680    980.04705   -8624.0904   -8514.7646    1049.5915    19704.092     45.68708 
    6690    959.72529   -8622.3822   -8515.3234    1027.7202    19715.828    45.930501 
    6700    934.19602   -8620.0667   -8515.8558    273.80853     19728.33    46.151952 
    6710    945.03435   -8621.7411   -8516.3211   -1548.0319    19740.752    46.350478 
    6720    943.84078   -8622.0143   -8516.7274   -2963.6718    19751.353    46.521492 
    6730    942.52309   -8622.2355   -8517.0956   -3567.0761    19758.741    46.654209 
    6740    942.91289   -8622.6162   -8517.4329   -3787.6875    19762.334    46.734562 
    6750     940.2881   -8622.6243   -8517.7338   -3152.1427    19762.029    46.762912 
    6760    957.54481   -8624.8297   -8518.0141   -1905.8638     19758.52    46.760855 
    6770    976.69769   -8627.2639   -8518.3118   -792.96155    19753.076    46.754601 
    6780    956.89187   -8625.3834   -8518.6407    1187.3518    19747.012    46.762037 
    6790    925.94548   -8622.2413   -8518.9507    2820.0881    19742.256    46.800474 
    6800    946.75638    -8624.833   -8519.2209    2814.3243    19740.343    46.879855 
    6810    968.70803    -8627.558   -8519.4972     2763.831    19741.386    46.998778 
    6820    948.61922     -8625.61   -8519.7901    3281.7045    19745.335     47.14627 
    6830    965.37084   -8627.7995   -8520.1109    2632.1001    19752.487    47.312577 
    6840    945.99022   -8625.9682   -8520.4416    2166.8567    19762.307    47.482469 
    6850    947.80774   -8626.5072   -8520.7778    1611.4697    19774.224    47.645029 
    6860    946.68148   -8626.7095   -8521.1057    723.60338    19787.621    47.803518 
    6870    923.30292   -8624.4146   -8521.4188   -67.684629    19801.599    47.962521 
    6880     923.2159   -8624.6665   -8521.6804   -1331.1159    19815.278    48.124064 
    6890    937.39049   -8626.4564    -8521.889   -2838.6277    19827.355    48.285579 
    6900     940.8927   -8627.0308   -8522.0728   -3285.8578    19836.411    48.444819 
    6910    941.39009   -8627.2807   -8522.2672    -2746.171    19841.992    48.606051 
    6920     910.8177   -8624.0443   -8522.4412   -1849.5189    19844.664    48.769191 
    6930    936.23787   -8627.0121   -8522.5734   -2305.3293    19845.219    48.925818 
    6940    972.78453   -8631.2255   -8522.7099   -2965.0904    19843.334    49.066139 
    6950    936.14496   -8627.3226   -8522.8942   -2320.8512    19838.511    49.180809 
    6960    918.42611   -8625.5301   -8523.0783    -1784.954    19831.305     49.26202 
    6970    952.10336   -8629.4556   -8523.2471   -1598.0189    19822.288    49.311459 
    6980    963.39406   -8630.9126   -8523.4446   -675.13811    19811.811    49.343165 
    6990    964.76261    -8631.327   -8523.7062     46.37792    19800.734    49.374763 
    7000    964.34278   -8631.6159    -8524.042    949.28862    19789.878    49.427028 
    7010    951.82252   -8630.6151   -8524.4379    1845.7923    19780.158     49.51407 
    7020    943.71658   -8630.1452   -8524.8722    2420.5433    19772.464    49.614287 
    7030    936.33867     -8629.77     -8525.32    1870.9039    19767.265    49.705955 
    7040    979.56421   -8635.0967   -8525.8248    587.39587    19764.013    49.787128 
    7050    989.22976   -8636.8123   -8526.4622    319.11569    19761.509    49.859622 
    7060    929.11669   -8630.8378   -8527.1934    1659.1068     19759.52    49.929267 
    7070    908.36604   -8629.2313   -8527.9017     2516.834    19759.231    50.006803 
    7080    911.07675   -8630.1849   -8528.5529    2929.7636    19761.532    50.091067 
    7090    923.05247   -8632.1053   -8529.1374    3351.9282    19766.889    50.178862 
    7100    977.65845   -8638.7876   -8529.7283    2981.0797    19775.637    50.280049 
    7110    966.48004   -8638.1827   -8530.3704    2909.2786    19787.474    50.405152 
    7120    918.42378   -8633.4541   -8531.0025    3296.7357    19802.317    50.551933 
    7130    927.00527   -8634.9544   -8531.5456    2540.0986    19820.396    50.712817 
    7140    963.41942   -8639.5054   -8532.0345    1499.4771    19841.012    50.874595 
    7150    940.40015   -8637.3729   -8532.4698    886.36207    19863.113    51.026389 
    7160    950.13512    -8638.836    -8532.847   -325.55431    19885.928    51.162446 
    7170    950.04651   -8639.1352   -8533.1561   -1307.6886     19908.27    51.282226 
    7180    930.85656   -8637.2369   -8533.3984   -1737.0948    19929.127    51.389853 
    7190    955.24183   -8640.1414   -8533.5827   -2463.2901    19947.956    51.481355 
    7200     948.2059   -8639.5212   -8533.7474   -2072.9561    19964.169    51.558723 
    7210    905.30606   -8634.8716   -8533.8833   -1097.4824    19978.106    51.630597 
    7220    916.06866   -8636.1368   -8533.9479    -1685.074    19990.603    51.706188 
    7230    948.19979   -8639.7369   -8533.9638   -3038.6024    20001.142    51.785451 
    7240    937.55449   -8638.5639   -8533.9783    -3263.558    20008.472    51.862892 
    7250     940.5915   -8638.9326   -8534.0082   -3141.3374    20012.274    51.932142 
    7260    940.95918   -8639.0122   -8534.0468   -3179.0652     20012.69    51.978465 
    7270    935.08034   -8638.4091   -8534.0995    -3384.325    20009.687    51.981637 
    7280    941.28434   -8639.1665   -8534.1648   -3080.4026    20003.132    51.932072 
    7290    930.08329   -8637.9842    -8534.232   -2127.5033    19993.412    51.835989 
    7300    912.92396   -8636.1013   -8534.2632   -1351.9367    19981.492    51.713083 
    7310    950.68956   -8640.3078    -8534.257   -1270.0447    19968.123    51.594395 
    7320    976.94342   -8643.2506   -8534.2711    -1138.747    19953.472    51.501947 
    7330    958.19712   -8641.2455   -8534.3571   -243.05346    19937.809    51.441341 
    7340    937.07592   -8639.0212    -8534.489    174.56759    19921.934    51.404188 
    7350    941.43466   -8639.6537   -8534.6352    219.18377    19906.285    51.371162 
    7360    941.88106    -8639.854   -8534.7858    1173.1831    19891.073    51.333645 
    7370    947.25981   -8640.6041   -8534.9358    1506.1867    19877.131    51.299648 
    7380    988.44138   -8645.4166   -8535.1545    1002.7236     19864.78    51.273185 
    7390    967.65464   -8643.4199   -8535.4765    1466.5907    19853.673    51.252379 
    7400    965.41595   -8643.5884   -8535.8948     1763.473    19844.154    51.242085 
    7410    990.79073    -8646.958   -8536.4338    1803.8592    19836.497    51.249097 
    7420    975.17432   -8645.8809   -8537.0988    3031.1459    19830.922    51.273374 
    7430    979.52516   -8647.1497   -8537.8822    2889.5321    19828.408    51.313009 
    7440    1000.8592   -8650.4478   -8538.8005    1378.2401    19828.819    51.362288 
    7450    964.43723   -8647.3993   -8539.8148    326.60714    19830.738    51.417121 
    7460    926.01746   -8644.0689   -8540.7702    18.936099    19833.094    51.479065 
    7470    942.00246   -8646.6958    -8541.614   -1028.7591    19835.377    51.555173 
    7480    943.93306   -8647.6394   -8542.3422   -1532.7649    19836.672    51.642246 
    7490    956.06108   -8649.6266   -8542.9765   -2178.9021     19836.35    51.722521 
    7500    968.71426   -8651.6159   -8543.5544   -2989.5713    19833.725     51.78347 
    7510    952.24747   -8650.3189   -8544.0942   -2862.6371    19828.058    51.823406 
    7520    937.41555   -8649.1448   -8544.5747   -1715.8044    19819.492     51.84467 
    7530    934.69841   -8649.2394   -8544.9724   -524.92119    19809.137    51.855207 
    7540    959.81133   -8652.3844    -8545.316    863.40978    19798.262    51.859365 
    7550    957.85065   -8652.5026   -8545.6529    1906.0201    19788.263    51.862978 
    7560    937.11295   -8650.5094    -8545.973    1683.4926    19780.161    51.874345 
    7570    932.90381   -8650.3603   -8546.2935     792.3172    19773.781     51.88789 
    7580    911.33512   -8648.1953   -8546.5345    343.04912    19768.305    51.893339 
    7590    946.71437   -8652.3448   -8546.7374   -217.53871    19763.175    51.899286 
    7600    989.85517   -8657.3996   -8546.9798   -192.24478    19757.884    51.920827 
    7610    959.95746    -8654.381   -8547.2963    85.658593    19752.414     51.96479 
    7620    959.16872   -8654.6588   -8547.6621   -599.88943    19746.939      52.0287 
    7630    971.03637   -8656.3998   -8548.0792   -1827.1736    19740.796     52.09112 
    7640    956.11187   -8655.2021   -8548.5463   -2814.3305    19732.777    52.125621 
    7650    964.67166   -8656.6826    -8549.072   -3492.0427    19721.833    52.123783 
    7660     964.8949   -8657.2944    -8549.659   -3324.0459     19707.32    52.098881 
    7670    935.66343   -8654.6468   -8550.2722   -2100.6304    19689.412    52.059358 
    7680    901.71879   -8651.3942   -8550.8061   -663.62025    19669.312    52.005592 
    7690    924.80591   -8654.4106   -8551.2471    54.442344    19648.454    51.930048 
    7700    957.21817   -8658.4306   -8551.6515    1007.5202    19627.666    51.825506 
    7710     963.0195   -8659.4905   -8552.0643    2481.7892    19607.945    51.701024 
    7720    952.83243   -8658.7973   -8552.5074    3769.4743    19590.741    51.583461 
    7730    929.87884   -8656.6707   -8552.9413    4358.4999    19577.365    51.492628 
    7740    950.65744   -8659.4194   -8553.3722    3171.1869      19568.3    51.422001 
    7750    961.82506   -8661.1192   -8553.8262    2084.0715     19562.51    51.359629 
    7760    961.18573   -8661.5309   -8554.3092    1896.2799    19558.945    51.306788 
    7770    955.90501   -8661.4567   -8554.8241    2125.3114     19557.38    51.272534 
    7780    917.13695   -8657.6147   -8555.3067    1998.6579    19557.975    51.256103 
    7790    940.91404   -8660.7044   -8555.7441    1371.0455     19560.59    51.239936 
    7800    939.88624   -8660.9979   -8556.1521    1592.5351     19564.71    51.214028 
    7810    922.12416   -8659.3927   -8556.5284    2178.5771    19570.528    51.187545 
    7820    945.15088   -8662.3026   -8556.8696     1188.238    19578.443    51.164923 
    7830    943.49089   -8662.4326   -8557.1848    89.022198    19587.624     51.13713 
    7840    939.23604   -8662.2671   -8557.4939   -857.84369    19596.971    51.100392 
    7850    936.72657    -8662.274   -8557.7808   -1604.8882    19605.513    51.056994 
    7860    927.05245   -8661.4577   -8558.0436   -2094.0511    19612.458    51.012261 
    7870    925.88996   -8661.5496   -8558.2651   -2604.1667    19617.275    50.962387 
    7880    948.16129   -8664.2337   -8558.4649   -3068.8006     19619.43    50.893359 
    7890    961.61804   -8665.9488   -8558.6789   -3031.6389    19618.471    50.794969 
    7900    965.84929   -8666.6821   -8558.9401    -2386.772    19614.428    50.665323 
    7910    944.13002   -8664.5451   -8559.2259   -1771.3667    19607.896    50.510616 
    7920     942.8239   -8664.6744   -8559.5009   -1518.5074    19599.482     50.34057 
    7930    966.50495   -8667.5749   -8559.7598   -1078.8181    19589.502    50.167285 
    7940    977.01891   -8669.0386   -8560.0507   -333.12493    19578.405    50.009101 
    7950    947.72651   -8666.1186   -8560.3983    497.66261    19566.942    49.883176 
    7960    925.14796   -8663.9567   -8560.7551    1135.1445    19555.958    49.789685 
    7970     957.9894   -8667.9774   -8561.1123    950.22177    19546.032    49.716155 
    7980    972.01921   -8669.9319   -8561.5017    545.61798    19537.041    49.656235 
    7990    956.31992   -8668.5809    -8561.902    413.89027    19528.639    49.606705 
    8000    953.60945   -8668.6542   -8562.2777    241.14588     19520.65    49.559073 
    8010    927.40637   -8666.0604   -8562.6068    891.46594    19512.991    49.513508 
    8020    919.94076   -8665.4902   -8562.8694    1802.9245    19506.278    49.478698 
    8030    948.43244   -8668.8892   -8563.0901    1510.1555    19501.292    49.451728 
    8040    947.99249   -8669.0439   -8563.2939    963.16331    19497.848    49.424022 
    8050     947.6364   -8669.1801   -8563.4699    616.11898    19495.405     49.40418 
    8060    961.02177   -8670.8371   -8563.6337    1329.2073    19493.686    49.404416 
    8070    956.47022   -8670.5097    -8563.814    2346.9078     19493.36    49.427037 
    8080    958.42331   -8670.9419   -8564.0283    1762.1133    19495.269    49.467592 
    8090    944.43085   -8669.6003   -8564.2477    685.99303    19498.921    49.516425 
    8100     921.6679   -8667.2445    -8564.431   -170.19264    19503.276    49.561044 
    8110    926.77344   -8667.9478   -8564.5648   -1129.7047    19507.437    49.591428 
    8120    917.80623   -8667.0393   -8564.6566   -1486.5933    19510.491    49.610874 
    8130    890.60519   -8664.0325   -8564.6842   -1511.2031    19512.053     49.63682 
    8140    915.65558   -8666.7851   -8564.6424   -2186.4823    19511.995    49.679541 
    8150     927.6767   -8668.0401   -8564.5563   -1702.5164    19509.819    49.739553 
    8160    952.64461    -8670.741    -8564.472   -660.64107    19505.956    49.825593 
    8170    968.12132   -8672.4229   -8564.4275    155.50105    19501.394    49.938529 
    8180    940.20125   -8669.3043   -8564.4234    1179.5709    19497.029    50.065629 
    8190     961.4335   -8671.6946   -8564.4453    798.83464    19493.745    50.183655 
    8200     985.5785   -8674.4596   -8564.5169   -569.61887    19491.186    50.268046 
    8210    979.35049   -8673.9475   -8564.6995   -1338.2935     19488.11    50.313287 
    8220    937.87269   -8669.5707   -8564.9496   -1246.7023     19483.77    50.332384 
    8230    936.52152   -8669.6718   -8565.2015   -1513.3443    19478.116    50.341768 
    8240    981.40717   -8674.9609   -8565.4835   -1895.9002    19470.896    50.359991 
    8250    967.56129   -8673.7692   -8565.8363   -861.09922    19461.904    50.398437 
    8260    968.46318   -8674.2981   -8566.2646   -66.116974    19451.995    50.453208 
    8270    949.78917   -8672.6969   -8566.7465    1002.7271    19442.058    50.511004 
    8280    931.20847   -8671.0977     -8567.22    1641.9253     19433.09    50.566529 
    8290    985.46179   -8677.6674   -8567.7376    546.16186    19425.583    50.628999 
    8300    962.42975   -8675.6835    -8568.323     652.7183    19418.747    50.708104 
    8310    952.15116   -8675.1649    -8568.951    1460.4407     19412.63    50.812462 
    8320    966.07943   -8677.3659   -8569.5983    1816.7003    19407.968    50.953838 
    8330    960.57414   -8677.4079   -8570.2544    1704.4565    19405.123    51.138026 
    8340    948.01426   -8676.6463   -8570.8939    1376.3753    19403.998    51.356918 
    8350    923.80046   -8674.5284    -8571.477    1250.5168    19404.306    51.603614 
    8360    928.29635   -8675.5167   -8571.9638   -11.402377    19405.767    51.876828 
    8370    939.96111   -8677.2052   -8572.3511   -1546.1555    19407.211    52.165204 
    8380    937.72226   -8677.2619   -8572.6576    -1884.511    19407.238    52.446904 
    8390    931.13254    -8676.763   -8572.8938   -1124.4439    19405.486     52.70078 
    8400    919.70268   -8675.6521   -8573.0579    240.65324     19402.66    52.928341 
    8410    914.44114   -8675.1718   -8573.1645    1568.2408    19400.055     53.14157 
    8420    904.91146   -8674.1454   -8573.2011    2352.3976    19398.972    53.342402 
    8430    938.37706    -8677.857   -8573.1796    1862.8178    19400.137    53.524615 
    8440    971.57998   -8681.5364   -8573.1551    688.65073    19403.122    53.685381 
    8450    968.94679   -8681.2832   -8573.1957    134.38934    19406.853    53.829597 
    8460    941.64926   -8678.3318   -8573.2894    889.57655    19410.855     53.95983 
    8470    952.88379   -8679.7064   -8573.4108    1596.9592    19415.763     54.08664 
[...]
   22890    936.50529   -8785.5512   -8681.0827   -46.468774    18996.195    93.859435 
   22900    933.44131   -8784.7144   -8680.5876   -1965.9494    19028.771    94.279056 
   22910     934.5097   -8784.3182   -8680.0722   -4080.4025    19058.827    94.643899 
   22920    924.29806   -8782.6554   -8679.5485    -5747.781    19084.421     94.92375 
   22930    937.93957   -8783.6599   -8679.0313   -7247.1594    19103.957    95.119786 
   22940    953.57344   -8784.9318   -8678.5592   -7845.2674    19116.157    95.229528 
   22950    935.79002   -8782.5682   -8678.1794    -7481.522    19120.577    95.260365 
   22960    925.46815   -8781.0975   -8677.8601   -6743.1261    19117.695    95.239007 
   22970    967.70821   -8785.5262   -8677.5769    -5703.601     19108.36    95.194318 
   22980    969.56414   -8785.5218   -8677.3655   -3167.6643    19093.828    95.135356 
   22990    914.89401   -8779.2583   -8677.2005     157.5976    19076.628     95.06368 
   23000    919.25886   -8779.5521   -8677.0074    1720.8505    19059.787    94.979885 
   23010    948.92926    -8782.632   -8676.7775    2325.6844    19044.888    94.885994 
   23020    965.20906   -8784.2427   -8676.5722    3379.2142    19032.594    94.813105 
   23030    982.59003   -8786.0613   -8676.4519    4790.5286    19023.849    94.796285 
   23040    961.03998   -8783.6363   -8676.4308    6089.0597    19019.879    94.830934 
   23050     945.8742   -8782.0038   -8676.4901     6576.245    19021.784    94.893811 
   23060    950.85503   -8782.6616   -8676.5923    5560.5388    19029.838    94.994673 
   23070    950.02088    -8782.698   -8676.7218    3330.6945    19042.983    95.153958 
   23080    929.50004   -8780.5379   -8676.8507    1625.7942    19059.168    95.366085 
   23090    913.33561   -8778.8187   -8676.9347    769.36913    19076.725     95.61135 
   23100    937.21816   -8781.5216   -8676.9735   -143.84942     19094.71    95.865973 
   23110    943.27778   -8782.2095   -8676.9855   -997.70667    19112.277    96.111948 
   23120    952.52013   -8783.2663   -8677.0113   -2320.6941    19128.511    96.336648 
   23130    923.08459   -8780.0161   -8677.0446   -3104.6195    19142.261    96.530146 
   23140    926.45588   -8780.4169   -8677.0694   -4273.5164    19152.702    96.703665 
   23150    957.21393   -8783.8691   -8677.0904   -4996.5562    19158.845    96.864232 
   23160     956.2847   -8783.8173   -8677.1423   -4251.4846    19160.147    96.992826 
   23170     960.4547   -8784.3725   -8677.2323    -3229.064      19157.3    97.080737 
   23180      957.387    -8784.146   -8677.3481   -2309.2281    19151.357    97.132922 
   23190     945.5882   -8782.9671   -8677.4853   -1005.5119    19143.322    97.155867 
   23200    954.49514   -8784.1123   -8677.6369   -228.15768    19134.397    97.165395 
   23210    951.10618   -8783.8989   -8677.8015    77.892767    19125.387    97.168637 
   23220    942.93483   -8783.1563   -8677.9705   -720.12953    19116.516    97.169835 
   23230    953.12839   -8784.4546   -8678.1316   -2117.7721    19107.055    97.158981 
   23240    959.52983   -8785.3425   -8678.3055   -1856.4732    19095.855    97.111041 
   23250    911.06173   -8780.0871   -8678.4568    439.63555    19083.229    97.026298 
   23260    915.22625   -8780.6263   -8678.5314    1931.6327     19071.17    96.925282 
   23270    964.66663   -8786.1809   -8678.5708    2458.4896    19061.113     96.82777 
   23280    940.25894   -8783.5104   -8678.6231    3463.1142    19053.678    96.759446 
   23290     939.1456   -8783.4483   -8678.6852    2698.6264    19049.545    96.746343 
   23300    960.92577   -8785.9513   -8678.7586    943.34357    19047.996    96.781609 
   23310    963.83508   -8786.3851   -8678.8678    442.00134    19047.527    96.827503 
   23320    986.12165   -8789.0604   -8679.0571   -296.28578     19047.46    96.850385 
   23330    949.22482   -8785.1993   -8679.3119   -572.93702    19047.175    96.850202 
   23340    927.64609   -8783.0681   -8679.5878   -646.43128    19046.336     96.83939 
   23350    938.23859   -8784.5024   -8679.8405   -40.225183    19044.957    96.814017 
   23360    945.19021   -8785.5301   -8680.0927    1026.2994    19043.605    96.779575 
   23370    921.37769   -8783.1076   -8680.3266    1915.4431    19043.276    96.747501 
   23380     946.4364    -8786.114   -8680.5376    680.34925    19044.611    96.703468 
   23390    944.70539   -8786.1078   -8680.7245    167.65191    19046.679    96.635074 
   23400    919.49841   -8783.4696   -8680.8982    1307.5623    19049.031    96.554075 
   23410    934.81632   -8785.3177   -8681.0376    1886.8942    19052.574    96.476182 
   23420    957.35686   -8787.9822   -8681.1876     1821.242     19057.86    96.405686 
   23430    928.51328   -8784.9339   -8681.3569    1486.2801    19064.825     96.33829 
   23440     935.0535   -8785.8266     -8681.52    152.74615    19073.047    96.259208 
   23450    964.80663    -8789.312   -8681.6863   -1664.3332    19081.273    96.157067 
   23460    981.36421   -8791.3821   -8681.9095   -2935.0387    19087.844    96.038407 
   23470    973.00025   -8790.7629   -8682.2232   -3440.0681    19091.576    95.905956 
   23480    951.61303   -8788.7829    -8682.629   -3212.7251    19092.005     95.76777 
   23490     930.4711   -8786.8829   -8683.0875   -3284.2416    19089.288    95.633693 
   23500    921.17257   -8786.3106   -8683.5525    -3938.918    19083.365    95.502237 
   23510    937.09711   -8788.5658   -8684.0312   -4077.5137    19073.744    95.358593 
   23520    931.65104   -8788.4539   -8684.5268   -3179.7043    19060.385    95.190969 
   23530    926.88365   -8788.4195   -8685.0242   -2013.1184    19044.133    95.015622 
   23540    935.36376   -8789.8558   -8685.5146   -945.32836    19026.148     94.87867 
   23550    949.45014   -8791.9411   -8686.0285    55.223415    19007.482    94.804413 
   23560    943.72129   -8791.8595    -8686.586     675.3853    18989.062    94.767226 
   23570    937.17415   -8791.7331   -8687.1899    1105.0226    18971.465    94.725314 
   23580    917.02572   -8790.0986    -8687.803    2070.3047    18955.185     94.67704 
   23590    924.09935   -8791.4803   -8688.3957    1888.1698    18940.958    94.647528 
   23600    940.69635   -8793.9488   -8689.0127    1572.1503    18928.683    94.643998 
   23610    909.23071   -8791.0497   -8689.6236    1997.1853    18918.121    94.659831 
   23620    924.31182   -8793.3215   -8690.2131    2691.0694    18909.604    94.691585 
   23630    929.85498   -8794.5225   -8690.7958    4175.6339    18903.801     94.75129 
   23640    908.98329   -8792.7591   -8691.3607    5862.9171    18902.045    94.849539 
   23650    910.95712   -8793.5102   -8691.8915    6599.4068    18905.817    94.981669 
   23660    911.09356   -8794.0244   -8692.3905    6038.1161    18915.745    95.134045 
   23670     890.5047   -8792.1738   -8692.8367    4712.5763    18931.303    95.289206 
   23680    889.92183   -8792.4751   -8693.2029    2993.1677    18951.207    95.436805 
   23690    896.84367   -8793.5215   -8693.4772    1499.3297    18973.854    95.562695 
   23700    876.10369   -8791.3778   -8693.6472    178.38687     18997.78    95.660753 
   23710    863.76509   -8790.0233    -8693.669   -1532.8533    19021.628    95.734212 
   23720    878.42433    -8791.506   -8693.5165   -3382.1122    19043.784    95.769551 
   23730    869.84452   -8790.2144    -8693.182   -4020.7873    19062.606     95.74612 
   23740    882.41688   -8791.0774   -8692.6425   -4182.3844    19077.409    95.679013 
   23750    905.94746   -8792.8888    -8691.829   -3995.6849    19088.059    95.595146 
   23760    900.11129   -8791.1039   -8690.6951   -3307.1896    19094.782    95.502214 
   23770    915.45009    -8791.338   -8689.2182   -3529.4963    19098.139    95.407277 
   23780    937.19199   -8792.0364   -8687.4913   -3605.8988    19098.058    95.307141 
   23790    940.00006   -8790.6783   -8685.8199   -2806.4297    19094.547    95.207131 
   23800     943.1596   -8789.6837   -8684.4728   -1575.6445    19088.373     95.11338 
   23810    937.12718   -8788.0359   -8683.4979   -636.22624     19080.71    95.034089 
   23820    945.52961   -8788.3033   -8682.8281   -59.384648    19072.484    94.988941 
   23830      956.368   -8789.0457   -8682.3614    373.60042    19064.296    94.981795 
   23840    968.24806   -8790.0521   -8682.0426    624.23248    19056.547    95.006408 
   23850    976.42519   -8790.7732   -8681.8515    711.76977    19049.449    95.051771 
   23860    960.03516   -8788.8665   -8681.7731    526.24242    19043.086    95.107622 
   23870    940.01982   -8786.6234   -8681.7628   -162.75331    19037.231     95.16369 
   23880    929.91841     -8785.49   -8681.7562   -274.40811    19031.341    95.208412 
   23890    943.94738   -8787.0237   -8681.7249    333.93306    19025.313    95.231917 
   23900    957.18145   -8788.4576   -8681.6825    1832.3126    19019.735    95.237116 
   23910    943.07893   -8786.8703   -8681.6684    3618.0519        19016    95.236141 
   23920      911.842   -8783.3886   -8681.6713    4298.9771    19015.708     95.24747 
   23930    910.99215   -8783.2711   -8681.6485    3410.1685    19019.441    95.288013 
   23940    929.43033   -8785.2555   -8681.5761    2420.2709    19026.451    95.351149 
   23950    942.31216   -8786.6029   -8681.4866    1802.0978    19035.783    95.420211 
   23960    920.79406   -8784.1103   -8681.3943    971.24065    19046.773    95.499272 
   23970    913.17147   -8783.1276   -8681.2619   -922.81872    19058.561    95.592237 
   23980    954.04201   -8787.5026   -8681.0778   -3587.1215    19069.304    95.704169 
   23990    953.09285    -8787.211    -8680.892   -4925.9129    19076.597    95.820858 
   24000    938.63321   -8785.4547   -8680.7488   -5399.6164    19079.109    95.901021 
   24010    921.82185   -8783.4401   -8680.6095   -4642.0711    19076.493     95.92907 
   24020    904.04092   -8781.2776   -8680.4305   -3301.7257    19069.456    95.917276 
   24030    917.97289   -8782.5776   -8680.1763   -2263.5964    19059.251     95.88109 
   24040    937.37921   -8784.4199   -8679.8538   -1064.1906     19046.95     95.82668 
   24050    946.79518   -8785.1217   -8679.5053    241.49572    19033.723    95.764571 
   24060    977.43972   -8788.2167   -8679.1819    1467.3143     19020.82    95.713449 
   24070    971.90097   -8787.3286   -8678.9116    3000.5351    19009.449    95.690264 
   24080    984.27526   -8788.5326   -8678.7352    3799.9405    19000.987    95.704278 
   24090    976.17116   -8787.5521   -8678.6588    3734.4447    18996.173    95.763997 
   24100    940.70514   -8783.6048   -8678.6677    3823.4383    18995.015    95.856592 
   24110    925.53734   -8781.9451      -8678.7    3969.3796    18997.564     95.96287 
   24120    920.01106   -8781.3496    -8678.721    4103.2255    19003.946    96.093756 
   24130    910.38299   -8780.2542   -8678.6996    3596.2893    19014.235    96.276085 
   24140     956.9262   -8785.3872   -8678.6406    1666.8375    19027.827      96.4976 
   24150    969.43786   -8786.7288   -8678.5866    406.60102    19043.057     96.70866 
   24160    943.81449   -8783.8691   -8678.5852    111.21205    19058.719    96.881927 
   24170    956.84127   -8785.3578   -8678.6207   -907.10698    19074.357    97.017826 
   24180     939.3394   -8783.4535   -8678.6688   -1713.8825    19089.098    97.114803 
   24190    944.47923   -8784.0862   -8678.7281   -2790.9055    19102.081    97.157532 
   24200    959.81287   -8785.8719   -8678.8033   -3397.9753    19112.341    97.137753 
   24210     937.0847   -8783.4591   -8678.9259   -3043.0343    19119.315    97.069104 
   24220    932.66943   -8783.1213   -8679.0806   -1751.9183    19123.389    96.994763 
   24230     936.3647   -8783.7022   -8679.2493   -809.16538    19125.683    96.957993 
   24240    947.15981   -8785.0963   -8679.4392   -229.55288    19127.164    96.956036 
   24250    956.54395   -8786.3775   -8679.6736    208.99452    19128.399    96.957167 
   24260     957.7119   -8786.8152    -8679.981    720.62057    19129.846    96.932165 
   24270    952.37169   -8786.6014   -8680.3629    599.83888    19131.935    96.861676 
   24280    943.62042   -8786.0795   -8680.8172    643.30374    19134.618    96.747884 
   24290    932.63936   -8785.3532   -8681.3159     709.8433    19137.939    96.622574 
   24300     922.1538   -8784.7015   -8681.8338    512.72408    19141.943    96.506945 
   24310    916.99699    -8784.633   -8682.3406   -35.949098    19146.408    96.404087 
   24320    939.80363   -8787.6773   -8682.8408   -841.91179    19150.796    96.309077 
   24330    955.06414   -8789.9103   -8683.3715   -527.06574    19154.454    96.225782 
   24340    960.86191   -8791.1567   -8683.9711    193.21937    19157.614    96.174292 
   24350     947.0091   -8790.2887   -8684.6484    807.67544    19160.966    96.168106 
   24360    921.27282    -8788.114   -8685.3446    630.83174    19165.056    96.206555 
   24370    913.29708   -8787.8824   -8686.0028   -748.02706    19169.669    96.289791 
   24380    933.49891   -8790.7411   -8686.6079   -2428.0218     19173.53    96.404086 
   24390    950.79529   -8793.2757    -8687.213   -3071.6021    19175.099    96.520946 
   24400     916.7893   -8790.0769   -8687.8077   -2010.5424    19173.803    96.626141 
   24410    897.39142   -8788.4258   -8688.3204   -829.26693    19170.535    96.743811 
   24420    913.86776   -8790.6815   -8688.7382   -164.26151    19166.397    96.909113 
   24430    885.67671   -8787.8532   -8689.0547    973.29976    19162.159    97.146642 
   24440     875.0502   -8786.8686   -8689.2554    1121.6548    19158.786    97.449968 
   24450    896.71884   -8789.3763   -8689.3459    337.75689    19156.446    97.780603 
   24460    903.42466   -8790.1275   -8689.3491   -151.97017    19154.462    98.113069 
   24470    894.27114   -8789.0192   -8689.2619    334.20677    19152.408    98.446456 
   24480    898.03684   -8789.2499   -8689.0726     1311.047    19150.733     98.78714 
   24490    910.77278   -8790.3719   -8688.7739    1547.0833     19150.28    99.144429 
   24500    932.66474   -8792.4409   -8688.4007    1107.4225    19151.293    99.525673 
   24510    940.24391   -8792.8768   -8687.9911    361.92233    19153.366    99.921264 
   24520    932.56541   -8791.6141    -8687.585   -503.80209    19155.775    100.30198 
   24530    920.65461   -8789.8843   -8687.1839   -924.09359    19157.726    100.64185 
   24540    906.60715   -8787.8964    -8686.763   -941.12043    19158.806    100.91555 
   24550    912.09362   -8788.0557   -8686.3103    -698.7836    19158.977    101.09655 
   24560    910.10421   -8787.3574    -8685.834   -31.616634     19158.49     101.1789 
   24570    908.04662   -8786.6427   -8685.3487    857.99233    19158.015    101.18397 
   24580    923.44333   -8787.8688   -8684.8573     1379.968    19158.353    101.13784 
   24590    933.44415   -8788.5005   -8684.3734    2186.9931    19160.079    101.05199 
   24600    953.45855   -8790.2907    -8683.931    2954.9766    19163.948    100.94821 
   24610    963.09995   -8791.0156   -8683.5803    3528.3452    19170.702    100.84546 
   24620    950.22808   -8789.3499   -8683.3505    3616.6484    19180.862    100.75319 
   24630    942.36314   -8788.3376   -8683.2155    3270.2394    19194.477    100.66128 
   24640     925.7539   -8786.4063   -8683.1371    2882.4084    19211.256    100.56226 
   24650    922.02562   -8785.9216   -8683.0683    1715.5273    19230.755    100.45915 
   24660    925.38335   -8786.1876   -8682.9597    245.31563    19251.834    100.35171 
   24670    914.12868   -8784.7732   -8682.8008   -567.08569    19273.126    100.24734 
   24680    917.06084   -8784.8966   -8682.5971   -1153.1687    19293.758    100.15931 
   24690    927.94593   -8785.8798    -8682.366    -2004.065    19313.097    100.08489 
   24700    948.14933   -8787.9127   -8682.1452   -3011.4286    19330.293    100.01122 
   24710    962.52575   -8789.3485   -8681.9773   -3127.6917    19344.464    99.927219 
   24720    937.02744   -8786.4008    -8681.874   -2839.4755     19355.46    99.835135 
   24730    927.65712   -8785.2708   -8681.7893   -3096.8915      19363.5    99.760148 
   24740    948.61405   -8787.5311   -8681.7118   -3925.6034    19368.332    99.712662 
   24750     945.2802   -8787.1087   -8681.6613   -4060.2913    19369.274    99.670565 
   24760    943.07435   -8786.8474   -8681.6461   -3260.0842    19366.228    99.616596 
   24770    950.22017   -8787.6527   -8681.6542   -1930.6985    19359.977     99.54911 
   24780    943.88404   -8786.9761   -8681.6845   -558.25092    19351.842    99.460047 
   24790    930.31169   -8785.4948   -8681.7171   -73.960903    19343.134    99.331148 
   24800    949.75598    -8787.698   -8681.7513   -493.18733     19334.32    99.157387 
   24810    948.08421   -8787.5557   -8681.7955    53.571535    19325.162    98.962841 
   24820    941.06851   -8786.8387   -8681.8611    364.82116    19316.085    98.775147 
   24830    926.63243   -8785.2947   -8681.9275    538.43121    19307.433     98.60954 
   24840    906.28792   -8783.0664   -8681.9686    1550.4071    19299.443    98.488046 
   24850     893.3938   -8781.6003   -8681.9409    3170.9945     19293.11    98.428416 
   24860     918.9623   -8784.3491   -8681.8374    3957.3855    19289.874     98.42996 
   24870    936.95278   -8786.2058   -8681.6873    4019.9213    19290.518    98.492729 
   24880     928.5433   -8785.1025   -8681.5221    3734.5662    19295.141    98.603899 
   24890    927.22502   -8784.7642   -8681.3309     2590.844    19303.398    98.749893 
   24900    929.13283   -8784.7367   -8681.0905    1120.9925      19314.2    98.918829 
   24910    925.71218   -8784.0591   -8680.7946   -83.269877    19326.085    99.092531 
   24920    916.67273   -8782.6844   -8680.4282   -769.02063    19337.911    99.239696 
   24930    933.92905   -8784.1647   -8679.9835   -1808.8343    19348.903    99.348127 
   24940    950.33614   -8785.4741   -8679.4626   -2631.9849    19358.061    99.427861 
   24950    948.41641   -8784.7023   -8678.9051   -2513.5326    19364.666    99.482675 
   24960     947.3453   -8783.9946   -8678.3168   -2968.3717    19368.705    99.498945 
   24970    961.23669   -8784.9296   -8677.7022   -4388.2442    19369.678    99.454785 
   24980    958.40309   -8783.9969   -8677.0856   -4175.9314    19366.411    99.352463 
   24990    947.90463   -8782.2176   -8676.4774   -2995.5457     19359.04    99.223235 
   25000    973.60034   -8784.4777   -8675.8711    -2391.702    19348.622    99.075219 
Loop time of 13270.2 on 16 procs for 20000 steps with 864 atoms

Performance: 0.130 ns/day, 184.309 hours/ns, 1.507 timesteps/s
96.0% CPU use with 16 MPI tasks x 1 OpenMP threads

MPI task timing breakdown:
Section |  min time  |  avg time  |  max time  |%varavg| %total
---------------------------------------------------------------
Pair    | 2953.7     | 7037.7     | 12800      |4422.5 | 53.03
Bond    | 0.0016513  | 0.0034109  | 0.0050223  |   1.8 |  0.00
Neigh   | 0.15459    | 0.33985    | 0.63562    |  32.2 |  0.00
Comm    | 180.57     | 4669.4     | 9314.7     |4628.2 | 35.19
Output  | 1.2566     | 1.2752     | 1.5464     |   6.2 |  0.01
Modify  | 276.16     | 1561.4     | 6673.6     |5402.4 | 11.77
Other   |            | 0.08311    |            |       |  0.00

Nlocal:        54.0000 ave          97 max          25 min
Histogram: 2 6 1 1 0 0 2 0 3 1
Nghost:        506.562 ave         700 max         318 min
Histogram: 2 2 3 1 1 1 0 2 1 3
Neighs:         0.00000 ave           0 max           0 min
Histogram: 16 0 0 0 0 0 0 0 0 0
FullNghs:      2790.75 ave        6532 max         618 min
Histogram: 6 2 2 0 0 0 2 0 3 1

Total # of neighbors = 44652
Ave neighs/atom = 51.680556
Ave special neighs/atom = 0.0000000
Neighbor list builds = 2000
Dangerous builds = 2000
unfix   3
                
Total wall time: 4:33:48
