LAMMPS data file via write_data, version 2 Aug 2023, timestep = 80000, units = metal

1536 atoms
3 atom types

-0.23376689860603506 25.164379143504195 xlo xhi
-0.14108464178927527 25.071696886687732 ylo yhi
-1.4022782762863528 76.19411501097903 zlo zhi

Masses

1 35.44999999088069
2 39.09829998994218
3 6.939999998214724

Atoms # full

2 0 2 1 0.9303917853122752 2.0033727628945805 0.001123093474563408 0 0 0
6 0 1 -1 3.968004297219273 2.0515919218144925 0.0477616216463681 0 0 0
386 0 3 1 6.596399530699143 2.0314182591809584 0.4606609581051575 0 0 0
391 0 1 -1 7.247494453329117 24.988633449121934 -0.10145686155765476 0 -1 0
390 0 1 -1 10.307529263249041 2.0587160472994266 0.5705902075177773 0 0 0
770 0 2 1 13.520167456859609 2.221576318782752 0.05671660402283596 0 0 0
774 0 1 -1 16.57143038427331 2.050455459335322 0.0248235012301552 0 0 0
1154 0 2 1 19.778823957080576 2.1054374434030434 0.20607179919240992 0 0 0
1158 0 1 -1 23.036184501788295 2.3572915862490578 0.025451968133593628 0 0 0
103 0 1 -1 0.8815614818646287 5.224159878259121 0.01848405369816386 0 0 0
99 0 2 1 4.090628107223735 5.22764701649984 0.043695866546981765 0 0 0
487 0 1 -1 7.251434536767525 4.465575476478509 0.010923289581652673 0 0 0
483 0 2 1 10.197369819422992 5.13077086061405 0.0674292748129739 0 0 0
871 0 1 -1 13.42234087854016 5.416237258394482 0.005985668252917353 0 0 0
867 0 2 1 16.676280489766437 5.062474831667035 0.11151215301441031 0 0 0
1255 0 1 -1 19.944105887697162 5.232181184544978 -0.028479590551999 0 0 0
1251 0 2 1 23.048338429208275 5.488316088670199 0.26747043479339827 0 0 0
98 0 2 1 0.8234411053958481 8.517626303793323 0.044687645392560205 0 0 0
102 0 1 -1 3.954985148998219 8.244445457873292 0.46887280418538446 0 0 0
482 0 3 1 7.782202700597715 9.103532800506013 -0.45800105478479103 0 0 0
486 0 1 -1 9.965232321650003 8.531842907342362 0.16192539383730065 0 0 0
866 0 2 1 13.65062751802112 8.42616246575764 -0.03232258318696779 0 0 0
870 0 1 -1 16.896338297437776 8.3533784532435 -0.23285180775779435 0 0 0
1250 0 2 1 20.012374108720543 8.379155772862116 -0.17996197181527362 0 0 0
1254 0 1 -1 23.224901086766224 8.380976684054728 -0.216715636806752 0 0 0
199 0 1 -1 0.7329904887330477 11.50565752102508 -0.003114236737838949 0 0 0
195 0 2 1 3.880709037974168 11.508306303765027 0.025025769154876087 0 0 0
583 0 1 -1 7.001341097353401 11.194373062307513 -0.13164331832477916 0 0 0
579 0 2 1 10.378178027373377 11.529573559877779 0.18760673474740308 0 0 0
967 0 1 -1 13.54435118920754 11.675943356985071 -0.1854255908278506 0 0 0
963 0 2 1 16.65501583374834 11.63682358076763 -0.028053489286775424 0 0 0
1351 0 1 -1 19.882447179063117 11.945140728918267 0.3545552456343748 0 0 0
1347 0 2 1 23.07145601648766 11.481783256389908 0.33278597763808304 0 0 0
194 0 2 1 0.7587185385971569 14.68234142436402 -0.2180680333787075 0 0 0
295 0 1 -1 1.071168650819318 17.7022960054493 0.031395637603515825 0 0 0
198 0 1 -1 3.8893689088940873 14.604249190716715 -0.16782940293426796 0 0 0
578 0 2 1 7.146124703135891 14.533480900908406 -0.19349683881861957 0 0 0
679 0 1 -1 7.22835306705778 17.900288320494838 0.06981117629306 0 0 0
582 0 1 -1 10.335125054568664 14.45647048932941 -0.1471376299327689 0 0 0
675 0 2 1 10.296854565689268 17.51480668785679 -0.041783560695294986 0 0 0
962 0 2 1 13.493543025587345 14.792884643383125 -0.24188283653866138 0 0 0
1063 0 1 -1 13.635168152078917 17.862434091930155 -0.4460082230456739 0 0 0
966 0 1 -1 17.207914903741376 14.658425156791317 0.015798730874969857 0 0 0
1346 0 3 1 19.66112735931502 14.326769277589205 0.45454693185074246 0 0 0
1447 0 1 -1 19.931718898793115 18.0221002940944 -0.10812339670883753 0 0 0
1350 0 1 -1 22.741649174381788 14.728202774439625 -0.06278504355853798 0 0 0
1443 0 3 1 22.23261082569315 17.189263144307816 -0.43774015661671184 0 0 0
290 0 2 1 0.8562414181089142 20.954723248382635 -0.18791477499193454 0 0 0
291 0 2 1 4.159777627889201 17.742878224699865 0.11787774599583467 0 0 0
294 0 1 -1 4.190026947828647 20.946363664761236 -0.16481623969422854 0 0 0
674 0 3 1 8.290234237669392 19.741144690720837 1.5756422029102808 0 0 0
678 0 1 -1 10.028522552199012 20.6472681171132 0.053514046282204575 0 0 0
1058 0 2 1 13.213824495673183 20.883748602955208 0.17424162677301314 0 0 0
1059 0 2 1 16.69052678452418 17.855596834199368 -0.09586491841019718 0 0 0
1062 0 1 -1 16.62969105833396 20.958095724894775 -0.29704962353515585 0 0 0
1442 0 2 1 19.84112822667365 21.227276032236936 0.027914419234438714 0 0 0
1446 0 1 -1 23.084436807811255 21.236758043049242 -0.006386550025591076 0 0 0
7 0 1 -1 1.0301421190199256 24.170451425258825 0.08024372131370372 0 -1 0
3 0 2 1 4.244057241404977 24.250895948654154 -0.31974482717732844 0 -1 0
387 0 2 1 10.12999436201251 23.95374965105895 0.10931592129221901 0 -1 0
775 0 1 -1 13.36783395049489 24.15650066436111 0.19270002969840494 0 -1 0
771 0 2 1 16.496084076460743 24.03619486548066 0.18097051938846276 0 -1 0
1159 0 1 -1 19.971463965184782 24.371007806111685 0.10153415629327922 0 -1 0
1155 0 2 1 23.053522736929587 24.259355928825016 0.15974465170096308 0 -1 0
16 0 1 -1 0.8881133852441472 2.1278425739300717 3.0464167803035878 0 0 0
12 0 2 1 3.856288741754243 2.1575701928703586 3.2421919677939472 0 0 0
400 0 1 -1 6.811057604645014 2.134041128994792 3.0245748190448882 0 0 0
396 0 3 1 10.709832968607444 2.657747567650466 2.883303097301532 0 0 0
784 0 1 -1 13.32134042423605 2.358528290062076 3.165521169093111 0 0 0
780 0 2 1 16.588150977225258 2.436733328198074 3.5759752963212925 0 0 0
1168 0 1 -1 19.991650113097784 2.79799115561896 3.2069827342270196 0 0 0
1164 0 2 1 22.963387188186083 2.0266813743633505 3.2770879196873803 0 0 0
105 0 2 1 0.7423847735367239 5.221158278647968 3.2610265922817216 0 0 0
109 0 1 -1 3.9778418772482134 5.3823277154170945 3.0461101947506943 0 0 0
489 0 2 1 7.10138680290702 5.217123555456895 3.221002766832955 0 0 0
493 0 1 -1 10.081711799031572 5.076298437257079 3.1758420989557488 0 0 0
873 0 2 1 13.274225528035187 5.3897672562834975 3.5226643404617723 0 0 0
877 0 1 -1 16.313856027457973 5.468733887579131 3.3684789299344633 0 0 0
1257 0 3 1 20.50655204472821 5.050795148541131 3.698912826968603 0 0 0
1261 0 1 -1 23.063294002863163 5.401824657176777 3.5017248438115853 0 0 0
112 0 1 -1 0.6702111232090925 8.507813142352814 3.626330102943271 0 0 0
108 0 3 1 4.578707946530052 7.77113337547548 2.600165902827297 0 0 0
496 0 1 -1 6.841779106255841 8.408227428488653 3.20197469325596 0 0 0
492 0 2 1 10.202112808593549 8.024572300271513 3.3725091604951496 0 0 0
880 0 1 -1 13.270204707940591 8.400592490279534 3.2987655723178184 0 0 0
876 0 2 1 16.73922824757454 8.419654184279633 3.485526324186318 0 0 0
1264 0 1 -1 19.982583842401564 8.080503438530911 3.1060088909277503 0 0 0
1260 0 2 1 22.827225936551372 8.506077933400963 3.6249748377209503 0 0 0
201 0 2 1 0.9306853696895747 11.671385897108673 3.2683510485293166 0 0 0
205 0 1 -1 3.8885020310845384 11.66607287910779 3.1110544938692826 0 0 0
585 0 2 1 7.059594592756459 11.408123904241224 3.047117318581911 0 0 0
589 0 1 -1 10.606201474948461 11.508835516195019 3.55632125226699 0 0 0
969 0 3 1 12.777107966980148 10.567911421350628 4.001763755387192 0 0 0
973 0 1 -1 16.61466409389644 11.592501613376964 3.2203391842397586 0 0 0
1353 0 2 1 19.57858694192434 11.47051074796832 3.3949118849988187 0 0 0
1357 0 1 -1 22.9787166204824 11.765526238624995 3.440809339001337 0 0 0
208 0 1 -1 0.5938194390645212 15.235416138616973 2.867951369032947 0 0 0
297 0 3 1 0.007628821546752845 17.26032793597153 1.9445317656486578 0 0 0
204 0 2 1 4.008010962553801 14.786972862045628 3.2879051805577086 0 0 0
592 0 1 -1 7.312526043088227 14.545769936998111 2.9367850067158194 0 0 0
586 0 3 1 7.37603167272892 17.033679235176812 2.412263377862286 0 0 0
588 0 2 1 10.307676497792478 15.106536322218846 3.677031717789256 0 0 0
976 0 1 -1 13.294088380455923 15.59337495007635 3.22046443150622 0 0 0
972 0 2 1 16.6616922538172 14.745171419706452 3.139648909869824 0 0 0
1360 0 1 -1 19.696346409938098 14.696741895327833 3.0731627480843446 0 0 0
1449 0 2 1 19.771980800964624 18.01085502845192 3.1374144474049643 0 0 0
1356 0 2 1 22.706794470122656 14.831031881301326 3.3037085428454436 0 0 0
1453 0 1 -1 23.135916255350274 17.629207641488932 2.1752355118801825 0 0 0
304 0 1 -1 0.8562887640871089 20.89159212441821 3.1518492742478523 0 0 0
301 0 1 -1 5.231887676405333 17.93144988062822 3.1830001481386843 0 0 0
300 0 2 1 4.111043820501788 20.97014553875679 2.934012536621241 0 0 0
688 0 1 -1 7.343881560626937 21.332377698077487 3.249483975137884 0 0 0
685 0 1 -1 9.336736608435004 18.124440460930117 2.989564288054096 0 0 0
684 0 2 1 10.696017630605963 20.956010044097013 3.4253537132879526 0 0 0
1065 0 3 1 14.230465420705418 17.67489550913607 3.6762401699379623 0 0 0
1072 0 1 -1 13.695193188631789 20.56246576821112 3.1107246476914954 0 0 0
1069 0 1 -1 16.612719993257933 17.919232046237482 3.268800944158409 0 0 0
1068 0 2 1 16.7293613535484 21.152146317932676 3.1572868581847047 0 0 0
1456 0 1 -1 19.87283558657596 21.24142720516697 3.2271494041328026 0 0 0
1452 0 2 1 23.076834212190267 20.502830381912396 3.06244776381227 0 0 0
9 0 2 1 0.8623855117683996 24.25881588876495 3.208039760623417 0 -1 0
13 0 1 -1 3.895306733927142 24.024561575966224 3.2149003747762146 0 -1 0
393 0 2 1 7.211912952439721 24.25988002666135 3.018842536311908 0 -1 0
397 0 1 -1 10.541231946587668 23.908282402423076 3.1169904695919994 0 -1 0
777 0 2 1 13.342398500578016 24.326518852568363 3.4418781049874996 0 -1 0
781 0 1 -1 16.4845204525646 24.408545478968463 3.1861650945199695 0 -1 0
1161 0 3 1 20.693139985986466 23.34895884819975 3.799679262984168 0 -1 0
1165 0 1 -1 22.90295611749244 23.968657325507223 3.2276881901898165 0 -1 0
10 0 2 1 0.9378094275731399 1.9658272944167337 6.344075879238815 0 0 0
14 0 1 -1 4.168327946588239 2.232491257945824 6.4092708585096485 0 0 0
394 0 2 1 7.336131701699865 2.2575734500211215 6.187612246799885 0 0 0
398 0 1 -1 10.745736689774107 2.2976064814061536 7.404055822752163 0 0 0
782 0 1 -1 16.947833347755303 2.1608793151013774 6.560911372814589 0 0 0
1162 0 2 1 20.05756065347777 2.114878426410156 6.471257816113447 0 0 0
1166 0 1 -1 23.178382452414375 2.068278459311853 6.432814094923353 0 0 0
111 0 1 -1 1.0429832259627363 5.35095732016782 6.538554104457237 0 0 0
107 0 2 1 4.277133774710622 5.228781134283551 6.729982912114719 0 0 0
495 0 1 -1 7.489525005319039 5.334271903653084 7.11937225654445 0 0 0
778 0 3 1 12.878053635691833 3.011022830765985 7.214425990008065 0 0 0
497 0 3 1 9.303790602805563 6.779026958786787 7.971110797522396 0 0 0
879 0 1 -1 13.73158122579559 5.081769077130325 6.635127247490704 0 0 0
875 0 2 1 16.890042308927995 5.301188149431476 6.6173998211544 0 0 0
1263 0 1 -1 20.074559647730492 5.304953124728107 6.195467168367772 0 0 0
1259 0 2 1 23.163812813848427 5.226126539644069 6.696135482027158 0 0 0
106 0 3 1 1.3582411237057597 7.703482077816174 5.754875298002008 0 0 0
110 0 1 -1 3.675308285631797 8.196804498202429 6.495983249184656 0 0 0
490 0 2 1 6.944174957230467 8.462576656913729 6.417758025291501 0 0 0
494 0 1 -1 10.168157610813942 8.35144236794107 6.333881926845654 0 0 0
874 0 2 1 13.342749941034086 8.283472772743862 6.994972457662758 0 0 0
878 0 1 -1 16.744584106765068 8.478122065517688 6.6029936104614055 0 0 0
1258 0 2 1 19.8739912715771 8.379115556402414 6.334609588941556 0 0 0
1262 0 1 -1 23.12952999491452 8.358397526319393 6.746029971950085 0 0 0
207 0 1 -1 0.8882295772640396 11.922126608632574 6.25545179801917 0 0 0
203 0 2 1 4.010345238210017 11.47936605676837 6.2001813516453925 0 0 0
591 0 1 -1 7.006627291788422 11.360013562884678 6.27328556603453 0 0 0
587 0 2 1 10.420313128665532 11.495141429605559 6.510309059497079 0 0 0
975 0 1 -1 13.427543249682984 11.258301268286393 6.082494112927231 0 0 0
971 0 2 1 16.695073212406015 11.453164397788324 6.655152401836027 0 0 0
1359 0 1 -1 20.085597345942585 11.715481123899215 6.587082670726851 0 0 0
1355 0 2 1 23.21036379400514 11.453238009067398 6.422434483571756 0 0 0
202 0 2 1 0.6344579674380761 15.013650275986135 6.26070688915359 0 0 0
303 0 1 -1 2.1093817564701838 17.91213617829925 6.658973068857126 0 0 0
206 0 1 -1 3.977257088389461 14.711743375911455 6.312969991105185 0 0 0
299 0 3 1 4.318573108097053 16.90996640593064 6.323554238001206 0 0 0
683 0 3 1 7.710760317343423 15.14840599821196 6.955158060371746 0 0 0
687 0 1 -1 6.612656254451167 17.408161126975173 6.709340786747303 0 0 0
590 0 1 -1 9.912708344438276 14.690464692817901 6.546684176483377 0 0 0
970 0 2 1 13.16980663965886 14.598597002088317 6.368917695713072 0 0 0
1071 0 1 -1 13.652656572232173 17.988631209329995 6.029975148140661 0 0 0
974 0 1 -1 16.8034810864079 14.713996613233043 6.298556723309307 0 0 0
1067 0 2 1 16.833309597730324 17.814856486516135 6.45929453702963 0 0 0
1354 0 2 1 19.960659906683492 14.783405591817594 6.587088334842013 0 0 0
1358 0 1 -1 23.101313646078875 15.781560645208655 6.369199716737334 0 0 0
298 0 2 1 0.8193232047340853 20.54084825477417 6.385360647453183 0 0 0
681 0 3 1 6.608081784506167 19.070063238339998 4.9862795016761705 0 0 0
302 0 1 -1 5.177456572789424 21.055562740332853 6.158473905709635 0 0 0
686 0 1 -1 9.881399125019575 21.45515452718704 6.489210794273988 0 0 0
1066 0 2 1 13.486875333783958 20.943540129901706 6.263135446892906 0 0 0
1070 0 1 -1 16.878613693226924 21.015685495461405 6.3729751083665125 0 0 0
1455 0 1 -1 20.0539465055866 17.678899631336535 6.258345313146585 0 0 0
1450 0 2 1 19.968782770807447 20.627725346474556 6.800761076152357 0 0 0
1451 0 3 1 22.254351271878004 18.068000506661328 6.948008157692977 0 0 0
1454 0 1 -1 22.991205689783783 20.603539417517077 6.5694983841871535 0 0 0
15 0 1 -1 0.8568904287426369 23.912726830580617 6.213345981633727 0 -1 0
11 0 2 1 4.054207850755135 24.225722827302462 6.1486526938370885 0 -1 0
682 0 3 1 7.618369308991366 21.867105074136305 5.933822354593776 0 0 0
399 0 1 -1 7.298865129250542 24.33118372737293 6.08482477927057 0 -1 0
395 0 2 1 10.412073779670441 24.57166146422704 6.296655732941017 0 -1 0
783 0 1 -1 13.556287354479558 23.983420382237526 6.513966816152579 0 -1 0
779 0 2 1 16.73346527495432 24.18271353263058 6.101416776985303 0 -1 0
1167 0 1 -1 20.28075352888217 24.110101344493657 5.993089787869326 0 -1 0
1163 0 2 1 23.31264305095555 23.862477587636278 6.46792247365605 0 -1 0
24 0 1 -1 0.6354334854977769 2.1623004654061027 9.547955785491947 0 0 0
20 0 2 1 3.998480887095191 2.2517400429318224 9.53672386263213 0 0 0
408 0 1 -1 7.516815170215151 2.0216000089641453 9.390822537600949 0 0 0
404 0 3 1 10.96053892022501 1.440282394545495 9.869087969630224 0 0 0
792 0 1 -1 13.637122278903265 2.0717363811250107 9.51441841834547 0 0 0
788 0 2 1 16.8679795877354 1.9573099253277055 9.58108328849037 0 0 0
1176 0 1 -1 19.835933921216384 1.8988288965005138 9.641743951768616 0 0 0
1172 0 2 1 22.788690414945766 2.4118562690457024 9.599765838704842 0 0 0
113 0 2 1 0.6559783503875196 5.464774975147664 9.789388448788648 0 0 0
117 0 1 -1 3.753552160494673 5.282538744231657 9.603134739688265 0 0 0
491 0 3 1 9.066362527655375 3.835588108430409 8.736801988767654 0 0 0
501 0 1 -1 10.597192657040921 5.45293415148277 9.654120152613325 0 0 0
881 0 2 1 13.856650890756127 5.248487720301311 9.80153935169494 0 0 0
885 0 1 -1 16.95381055116486 5.2731306677241045 9.90931306214121 0 0 0
883 0 3 1 18.08474426407543 4.502047762242658 11.714985600765349 0 0 0
1265 0 3 1 20.74381629573235 6.679549710884721 11.028765047725267 0 0 0
1269 0 1 -1 22.719486161208795 5.420694004554162 9.747869796136616 0 0 0
120 0 1 -1 0.7116457070953334 8.335522498992582 10.419880856906223 0 0 0
116 0 2 1 3.750774007210351 8.31809597079404 9.413729469886327 0 0 0
504 0 1 -1 7.992159002395216 8.108735351969164 9.484152409312122 0 0 0
500 0 3 1 10.297654371645617 8.959804497941066 10.160136194375259 0 0 0
888 0 1 -1 14.092523609815922 8.975752850583337 9.925813496619442 0 0 0
884 0 2 1 17.127140891484082 8.218495450431634 10.009929585154785 0 0 0
1272 0 1 -1 20.20294689474689 8.375686530718607 9.504422458471197 0 0 0
1268 0 2 1 23.166303457745787 8.664523576246621 9.73904610666767 0 0 0
209 0 2 1 0.8896147437323436 11.317149274991278 9.471516244404839 0 0 0
213 0 1 -1 4.053525003051245 11.449781970329987 9.522208669010858 0 0 0
593 0 2 1 7.412562196883176 11.659366189023782 9.441250794298961 0 0 0
597 0 1 -1 10.591935031989232 11.270502498374094 9.740729151060341 0 0 0
977 0 3 1 14.202315745834587 11.396320279963273 10.36200341454632 0 0 0
981 0 1 -1 16.60213629367784 11.495025405885594 9.780681142868849 0 0 0
1361 0 2 1 19.867438475712945 11.67575164685337 9.742611324936075 0 0 0
1365 0 1 -1 23.24955781052931 11.83151703545878 9.623940658349415 0 0 0
216 0 1 -1 1.0007193088499182 15.346892625821587 9.413817468978086 0 0 0
305 0 3 1 1.5524363559949186 17.90208895174453 8.988944963445428 0 0 0
212 0 2 1 4.177449529868349 14.67064800043959 9.544462767719333 0 0 0
309 0 1 -1 4.018362061144143 17.934335053568596 9.814861657677017 0 0 0
600 0 1 -1 7.21260786327422 14.765299106079999 9.544129972253737 0 0 0
689 0 2 1 7.01622540217519 17.991342451342952 9.98232759014221 0 0 0
596 0 2 1 10.287283515185928 14.41837411546527 9.735851753199304 0 0 0
693 0 1 -1 10.037250031530876 17.522944910731184 9.698956456693184 0 0 0
984 0 1 -1 13.50921383049588 14.469119499802458 9.626339189115045 0 0 0
980 0 2 1 16.984772107208997 14.841083670437742 9.527329316544058 0 0 0
1368 0 1 -1 20.20459900466797 14.67759834774601 9.669276138700784 0 0 0
1364 0 2 1 23.29841323094922 14.962817099846086 9.579198478108772 0 0 0
312 0 1 -1 0.5700328588805341 20.74580747338962 9.595796134427216 0 0 0
306 0 3 1 1.075122767857139 20.3027092970715 12.173232411529616 0 0 0
308 0 2 1 3.9987186957610987 21.019749746527268 9.280461543163153 0 0 0
696 0 1 -1 7.265487978900309 20.893434248953298 9.878953533043436 0 0 0
692 0 2 1 10.267909012623937 20.54024952431599 9.520152563369335 0 0 0
1073 0 2 1 13.443223336254391 17.621077996194394 9.517703000132318 0 0 0
1080 0 1 -1 13.464029386987484 20.928000499836585 9.410558550058884 0 0 0
1077 0 1 -1 16.777505243792287 17.916378508022284 9.670002040611003 0 0 0
1076 0 2 1 16.60557685890985 21.084847771973863 9.692563791244844 0 0 0
1457 0 3 1 20.157509801149555 18.807075756052924 10.52462930892099 0 0 0
1464 0 1 -1 19.6275487752454 21.005453371963334 10.152239830634112 0 0 0
1461 0 1 -1 22.194086761157795 18.15474180221519 9.41997281177983 0 0 0
1460 0 3 1 23.740806093284906 21.195501237217563 10.351459213240656 0 0 0
17 0 2 1 0.9748349468327424 23.939656613174435 9.517612655097404 0 -1 0
21 0 1 -1 4.033840376662468 24.237086751134896 9.198056608213292 0 -1 0
401 0 2 1 7.419148245137298 24.0940307362034 9.49323458390418 0 -1 0
405 0 1 -1 10.47153994142661 24.320498050038488 9.614457719330055 0 -1 0
785 0 2 1 13.505250144059865 24.0665914428646 9.589764919338574 0 -1 0
789 0 1 -1 16.72218850980519 24.101248746620605 9.26637641249646 0 -1 0
1169 0 2 1 19.78196189250148 24.19903616896074 9.842438770511082 0 -1 0
1173 0 1 -1 23.02339355359851 23.403960355306012 9.887752078378918 0 -1 0
18 0 2 1 0.9432334930550184 2.0354170659131228 12.895913947344388 0 0 0
22 0 1 -1 4.181434285678211 2.1671153360586337 12.621413178238575 0 0 0
402 0 2 1 7.123598223116767 2.074428730124112 12.442408465961936 0 0 0
406 0 1 -1 10.49878146386411 1.9216647198946757 12.097771465012649 0 0 0
786 0 2 1 13.876408315483909 2.282908299139324 12.740800492373333 0 0 0
790 0 1 -1 17.156988534370836 2.3425328063540225 12.580187293579758 0 0 0
1170 0 2 1 20.161557737062882 1.9739927134114805 12.95346322097808 0 0 0
1174 0 1 -1 23.261933875999706 1.8971033469452765 12.585069469197004 0 0 0
119 0 1 -1 1.0483881433344355 5.113705167292788 12.65738755062333 0 0 0
115 0 2 1 4.055876717767623 5.444507178360202 12.74943962145406 0 0 0
503 0 1 -1 7.3019518660669505 5.279273052926333 13.13521142258118 0 0 0
499 0 2 1 10.293070530736623 5.11930945687289 12.593109207229688 0 0 0
887 0 1 -1 13.75377772428364 5.213928484234259 12.829818163260166 0 0 0
1271 0 1 -1 20.06221348846619 5.226603111647352 12.588371179614304 0 0 0
1267 0 2 1 23.20146661374981 5.1691653922826974 12.940938344262458 0 0 0
114 0 3 1 1.582853199537097 8.691811802260856 12.582539107705594 0 0 0
118 0 1 -1 3.9836829581978828 8.451270752678315 12.533227091199473 0 0 0
498 0 2 1 7.137870806101698 8.371538534841617 12.640966000213687 0 0 0
502 0 1 -1 10.576583718564004 8.389445061921402 12.474185133343497 0 0 0
882 0 2 1 13.967598906917754 8.275098727684854 12.87692688038854 0 0 0
886 0 1 -1 17.483754200893646 8.621425358802515 13.043409708020315 0 0 0
1266 0 3 1 19.798007900753117 9.07762561426816 13.381041115419391 0 0 0
1270 0 1 -1 22.185185837192332 8.253529931785778 12.69646521119017 0 0 0
215 0 1 -1 0.9454816939648976 11.14770956126743 12.533040263311822 0 0 0
211 0 2 1 4.276121877174269 11.4477112937111 12.672760830603726 0 0 0
599 0 1 -1 7.254040502641226 11.422435975759587 12.431061110469134 0 0 0
595 0 2 1 10.343169145839859 11.287882739312817 13.118724850575193 0 0 0
983 0 1 -1 13.901196622820832 11.394739767004532 12.686611781435762 0 0 0
979 0 2 1 16.913527816897993 11.661984605980663 13.179154925251769 0 0 0
1367 0 1 -1 19.969201151793733 11.497039516097862 12.984524838517538 0 0 0
1363 0 2 1 23.220872357291857 11.605152953024678 12.824936484290193 0 0 0
210 0 2 1 0.9734789722202828 14.981915950870281 12.528639040931772 0 0 0
311 0 1 -1 1.0933570921812545 18.165086089117843 12.930210244934608 0 0 0
214 0 1 -1 4.228189252309103 14.85627522065257 12.899069693183309 0 0 0
307 0 2 1 4.263679120632356 18.082538304038856 13.11905678143937 0 0 0
594 0 2 1 7.4348331995910435 14.508819743905772 12.684227883886692 0 0 0
598 0 1 -1 10.605344935406857 14.533547046411297 12.901106486585777 0 0 0
978 0 2 1 13.819886805227124 14.706286003113956 12.668082246489345 0 0 0
982 0 1 -1 16.929274276075077 14.713552118663916 12.654264203612534 0 0 0
1362 0 2 1 20.000515566298386 14.886766971190646 12.801200602815891 0 0 0
1366 0 1 -1 23.394071090048023 14.81306941576471 12.70827897563778 0 0 0
310 0 1 -1 3.6753858096531196 21.221815799134752 12.764198313839747 0 0 0
695 0 1 -1 7.207129215001233 17.669334399626997 12.972369741974747 0 0 0
690 0 2 1 7.168038895419502 20.989041522275564 13.107807911838535 0 0 0
691 0 2 1 10.557541454320894 17.794213183941253 12.770231958386335 0 0 0
694 0 1 -1 11.159473605579521 20.767529313016944 12.560471088744373 0 0 0
1079 0 1 -1 13.756644431263355 17.993904906123163 12.351094781995123 0 0 0
1074 0 3 1 13.536955484589823 20.50061570275343 11.881094002145481 0 0 0
1075 0 2 1 16.665441459020176 17.791247609935752 12.617150836322216 0 0 0
1078 0 1 -1 15.648935964068764 20.86604221642444 12.756935821533947 0 0 0
1463 0 1 -1 19.787872215061096 17.9016966942635 12.72738462817772 0 0 0
1458 0 2 1 18.870675576169432 21.50551154632894 13.263832884901738 0 0 0
1459 0 2 1 23.32781923795617 18.02501134586 12.671686206461526 0 0 0
1462 0 1 -1 24.36667731736975 21.047534820349178 12.548401855732356 0 0 0
23 0 1 -1 1.2985393077750282 24.166700831818076 12.673468187072288 0 -1 0
316 0 3 1 2.472618933386017 22.504505614019195 14.362209843880612 0 0 0
19 0 2 1 4.317872188652801 24.341328081143963 12.484138832227968 0 -1 0
407 0 1 -1 7.34273451336112 24.260864212260167 12.689510960697385 0 -1 0
403 0 2 1 10.537397977485698 23.965925104554294 12.873148850153923 0 -1 0
791 0 1 -1 13.61180072251812 24.240145509160726 12.782410655107261 0 -1 0
787 0 3 1 14.99865845335582 22.841176105575656 13.937410062639575 0 -1 0
1175 0 1 -1 20.173495727041306 24.18511792722628 13.068268889086294 0 -1 0
1171 0 2 1 23.37130482665099 23.98630955722853 12.81382047018645 0 -1 0
32 0 1 -1 0.7923208867206184 2.0389291521066477 16.040083877243585 0 0 0
28 0 2 1 4.027209715139552 2.096864583287212 15.685375169322622 0 0 0
416 0 1 -1 7.036414993917629 1.92359452119929 15.853088676520947 0 0 0
412 0 2 1 10.14640602332593 2.097965403412168 15.401495272401885 0 0 0
800 0 1 -1 13.477336165321095 1.6476320547983379 15.960885877733652 0 0 0
794 0 3 1 14.358199075261629 0.9293469835924995 18.247895843681388 0 0 0
796 0 2 1 16.85546367577091 1.852279552797692 15.743274807123125 0 0 0
1184 0 1 -1 19.91538255927236 1.8671478047996883 16.157902286410287 0 0 0
1180 0 2 1 23.031836705376772 2.0582491797840103 15.885169595823122 0 0 0
121 0 2 1 0.8751720722158509 5.358439744684729 15.75891805182313 0 0 0
125 0 1 -1 4.04760704830048 5.320410852313348 15.9751949258443 0 0 0
505 0 2 1 7.282571983299583 4.920469232572462 16.03986695368279 0 0 0
509 0 1 -1 10.41842389516434 5.003449568224508 15.690866624784583 0 0 0
889 0 2 1 13.68339256111274 4.8312001712662225 15.860941119427906 0 0 0
893 0 1 -1 16.937285137940844 4.931604970078741 16.000799933247222 0 0 0
1273 0 2 1 19.965283409098646 5.010896406004902 15.851230564656849 0 0 0
1277 0 1 -1 23.204567932316614 5.214926237641372 16.09047631874419 0 0 0
128 0 1 -1 0.9511257894768688 8.404534036839232 15.080499282144263 0 0 0
124 0 2 1 4.0179206529338725 8.567249955091539 16.089891846899892 0 0 0
512 0 1 -1 7.210276515044123 8.308741962369686 15.882182627352915 0 0 0
508 0 2 1 10.431339186695446 8.028547756038432 15.843737880228698 0 0 0
896 0 1 -1 13.915001520731824 8.035878477868843 16.050043549996573 0 0 0
892 0 2 1 17.07190833906168 7.905919872656163 16.071386710915675 0 0 0
1280 0 1 -1 20.245706727617122 8.540008557669678 15.856500542088384 0 0 0
1276 0 2 1 23.292907527777295 8.370722523338355 15.867362131773632 0 0 0
217 0 3 1 0.81443376520829 10.867461097350253 15.116182364885297 0 0 0
221 0 1 -1 3.0451685800003103 11.499329203903738 15.53893498226035 0 0 0
601 0 3 1 8.312788562295012 12.003937404727846 16.588485764641597 0 0 0
608 0 1 -1 7.73809153369146 14.180827092722163 15.955855510257074 0 0 0
605 0 1 -1 10.612828499566092 11.585898897185148 16.24441269985987 0 0 0
985 0 2 1 13.937012536284076 11.406687490072535 16.058960433718497 0 0 0
989 0 1 -1 17.083427350770975 11.219094999559909 16.391511285886217 0 0 0
1369 0 2 1 20.214103138860793 11.619795339544652 16.000649841438147 0 0 0
1373 0 1 -1 23.814568889376886 11.403285290339326 16.00611569109914 0 0 0
224 0 1 -1 0.9445493371501783 15.00509063631128 15.592424515116676 0 0 0
313 0 2 1 1.2587631199647173 18.03605188639242 15.999761225061341 0 0 0
220 0 2 1 3.832110000731107 14.412315816163783 15.935454677072968 0 0 0
317 0 1 -1 4.288065463731941 17.5639603233057 16.094544985619443 0 0 0
697 0 2 1 7.547575963833008 17.921487307971056 15.955629315068173 0 0 0
604 0 2 1 10.8587424839673 14.664392016350313 16.256666411268743 0 0 0
992 0 1 -1 13.888780751582313 14.484702562202429 15.646843344200612 0 0 0
988 0 3 1 16.059880381609236 15.332941312758045 16.268071012641805 0 0 0
1085 0 1 -1 16.824835974627142 17.423204744602145 15.681002951915186 0 0 0
1376 0 1 -1 20.500400802333203 14.672411145925487 15.854480220369371 0 0 0
1372 0 2 1 23.559127150925708 14.626012769956121 15.78285100639194 0 0 0
1469 0 1 -1 23.27451465939847 18.012330847904657 15.862356658647549 0 0 0
320 0 1 -1 0.9835900187058426 21.381745179360884 15.896292401182965 0 0 0
704 0 1 -1 7.902403164157821 20.851003424728333 15.934304726783783 0 0 0
701 0 1 -1 11.067762917621373 17.930550297913108 15.881891431091923 0 0 0
700 0 2 1 10.923888801769959 21.219500771747377 16.05846307955525 0 0 0
1081 0 2 1 13.999377541368569 18.910140965907452 15.543458361815794 0 0 0
1465 0 2 1 20.11222097695702 17.89541050692671 15.71469652540992 0 0 0
1472 0 1 -1 20.209339865097416 21.018519811737796 15.942478408157516 0 0 0
1468 0 2 1 23.093873977572052 21.06313853976149 15.685675320656646 0 0 0
25 0 3 1 0.6341849366719206 23.96159098803078 16.47321230090572 0 -1 0
29 0 1 -1 3.8667506162265424 23.96117870353841 15.631756165385521 0 -1 0
409 0 2 1 6.841814507133147 23.87515443389337 15.679595358886399 0 -1 0
413 0 1 -1 10.452774552410666 24.43669099985329 15.878922335238176 0 -1 0
1088 0 1 -1 13.807779972524216 21.96182647984648 15.871755483999433 0 0 0
793 0 3 1 12.85745638295054 24.342838391144397 16.333491789179657 0 -1 0
1084 0 3 1 15.39569655323841 22.963508166030174 17.366202749217294 0 0 0
797 0 1 -1 16.701108720774823 23.858555764721515 15.286639419801304 0 -1 0
1177 0 2 1 19.78032255830561 24.098814120364963 16.293998577085908 0 -1 0
1181 0 1 -1 23.51265901770848 24.295932088888904 16.055207734333607 0 -1 0
26 0 2 1 0.9242084753270969 1.993278034345526 19.100504909373957 0 0 0
30 0 1 -1 4.161119756539348 1.8804599964317497 19.074335258336088 0 0 0
410 0 3 1 7.330098307028079 2.6008200824438172 19.459719453722556 0 0 0
414 0 1 -1 9.762246240329112 1.9073802008977627 18.50285830172961 0 0 0
798 0 1 -1 16.579742541899282 1.304077900685006 19.195009348315764 0 0 0
1178 0 3 1 20.57693494598681 2.6384219641806124 19.459434819951568 0 0 0
1182 0 1 -1 23.06184095154722 2.121276493501528 19.32007614625453 0 0 0
127 0 1 -1 1.0908099101948083 5.342717262888523 18.90068164050609 0 0 0
123 0 2 1 4.184081699611032 5.124289725490897 19.007509831922004 0 0 0
511 0 1 -1 7.378770509355144 5.017473231973235 19.39417853655249 0 0 0
507 0 2 1 10.895512770313829 4.917885577883191 18.931998661307087 0 0 0
895 0 1 -1 13.729342578758311 4.909757931166621 19.326536395861574 0 0 0
891 0 2 1 16.81950651301709 4.9561164198600185 19.2350563500514 0 0 0
1279 0 1 -1 20.130973485649317 5.016964911846899 19.086439012475545 0 0 0
1275 0 2 1 23.50324598198837 5.338078707055843 19.117189800369488 0 0 0
122 0 2 1 1.028511199666726 8.729825462569147 19.224458085364443 0 0 0
126 0 1 -1 4.096135070011839 8.386348191335324 19.313159197755564 0 0 0
506 0 2 1 7.161587770369192 8.291369286579492 19.0564254883018 0 0 0
510 0 1 -1 10.512286993420021 7.935946490914555 18.99179415362502 0 0 0
890 0 2 1 13.908075584561539 8.09266073402356 19.12636899394069 0 0 0
894 0 1 -1 17.044149801852722 8.264659007807538 19.155527500844432 0 0 0
1274 0 2 1 20.071598446439893 8.282589360289968 19.128944359358822 0 0 0
1278 0 1 -1 23.236515491288174 8.390999256883177 19.099768168943374 0 0 0