LAMMPS (29 Sep 2021 - Update 3)
OMP_NUM_THREADS environment is not set. Defaulting to 1 thread. (src/comm.cpp:98)
  using 1 OpenMP thread(s) per MPI task
Reading data file ...
  orthogonal box = (0.0000000 0.0000000 0.0000000) to (17.171819 17.292452 83.119182)
  1 by 2 by 8 MPI processor grid
  reading atoms ...
  864 atoms
Finding 1-2 1-3 1-4 neighbors ...
  special bond factors lj:    0        0        0       
  special bond factors coul:  0        0        0       
     0 = max # of 1-2 neighbors
     0 = max # of 1-3 neighbors
     0 = max # of 1-4 neighbors
     1 = max # of special neighbors
  special bonds CPU = 0.001 seconds
  read_data CPU = 0.036 seconds
Neighbor list info ...
  update every 1 steps, delay 10 steps, check yes
  max neighbors/atom: 2000, page size: 100000
  master list distance cutoff = 6.22
  ghost atom cutoff = 6.22
  binsize = 3.11, bins = 6 6 27
  1 neighbor lists, perpetual/occasional/extra = 1 0 0
  (1) pair quip, perpetual
      attributes: full, newton on
      pair build: full/bin
      stencil: full/bin/3d
      bin: standard
Setting up Verlet run ...
  Unit style    : metal
  Current step  : 0
  Time step     : 0.001
Per MPI rank memory allocation (min/avg/max) = 8.894 | 8.900 | 8.906 Mbytes
Step Temp PotEng TotEng Press Volume c_msd[4] 
       0            0   -7174.3834   -7174.3834   -3403.7864    24681.648            0 
      10    59.886459   -7181.0715   -7174.3911    -3591.811    24681.648 0.0004428069 
      20    152.53511   -7191.4143   -7174.3988    -3532.456    24681.648 0.0053913133 
      30    183.53475   -7194.8677   -7174.3941   -2645.2133    24681.648  0.017829876 
      40    202.66462   -7197.0001   -7174.3926   -1813.5571    24681.648  0.032805386 
      50    235.34035   -7200.6482   -7174.3956    -1646.813    24681.648   0.04588816 
      60    247.94168    -7202.052   -7174.3938   -1842.2959    24681.648   0.05765331 
      70    253.09642   -7202.6277   -7174.3944   -2064.7915    24681.648  0.069436765 
      80    250.99467   -7202.3926   -7174.3937   -2200.0016    24681.648  0.082900901 
      90    246.12852   -7201.8494   -7174.3934   -2173.7127    24681.648  0.099028065 
     100    244.92959   -7201.7179   -7174.3956   -1978.8699    24681.648   0.11746343 
     110    242.28341    -7201.419   -7174.3919   -1729.6413    24681.648   0.13557848 
     120    255.22195   -7202.8655   -7174.3951   -1848.0783    24681.648   0.15075494 
     130    256.29683   -7202.9842   -7174.3939     -2007.52    24681.648   0.16545013 
     140    255.59143   -7202.9057   -7174.3941   -2078.8051    24681.648   0.17976362 
     150    254.71653    -7202.809    -7174.395   -2143.2247    24681.648   0.19317961 
     160    251.90206   -7202.4945   -7174.3944   -2001.6951    24681.648   0.20534635 
     170    250.97219   -7202.3902   -7174.3939   -1889.6105    24681.648   0.21663825 
     180     257.3806   -7203.1055   -7174.3943   -1934.6918    24681.648    0.2288925 
     190     260.3621   -7203.4402   -7174.3964   -1958.2977    24681.648   0.24328518 
     200    252.18366   -7202.5243   -7174.3928   -1925.8316    24681.648   0.25702409 
     210    258.35994    -7203.215   -7174.3946   -1990.3907    24681.648   0.26669152 
     220    260.53492   -7203.4573   -7174.3943   -1988.9024    24681.648    0.2748492 
     230    258.23338   -7203.2005   -7174.3942   -1795.6857    24681.648   0.28332799 
     240    252.93197   -7202.6085   -7174.3936   -1566.3378    24681.648   0.29247854 
     250    254.73094   -7202.8097   -7174.3941   -1512.6013    24681.648   0.30118823 
     260    260.13921   -7203.4133   -7174.3944   -1595.4355    24681.648   0.30980823 
     270    263.33316   -7203.7692    -7174.394   -1672.2968    24681.648    0.3193726 
     280    266.81067   -7204.1584   -7174.3953   -1641.3932    24681.648   0.32972958 
     290    262.39696   -7203.6654   -7174.3946   -1516.4449    24681.648   0.34016636 
     300    261.07623   -7203.5192   -7174.3957   -1490.2694    24681.648   0.34870802 
     310    256.60645    -7203.019   -7174.3942   -1424.9004    24681.648   0.35616095 
     320    255.12221   -7202.8537   -7174.3944   -1431.1943    24681.648   0.36426417 
     330    257.21766   -7203.0875   -7174.3944   -1535.2284    24681.648   0.37294434 
     340    260.71445   -7203.4781    -7174.395   -1738.4386    24681.648   0.38207588 
     350    260.87542   -7203.4955   -7174.3944   -1787.8195    24681.648   0.39203939 
     360    259.24296   -7203.3137   -7174.3948   -1801.5109    24681.648   0.40305256 
     370     256.8045   -7203.0415   -7174.3946    -1871.197    24681.648   0.41474987 
     380    253.74937   -7202.7006   -7174.3945   -2006.2935    24681.648   0.42675018 
     390     250.3984   -7202.3262   -7174.3939   -2133.6916    24681.648    0.4387225 
     400    253.59482   -7202.6831   -7174.3942   -2227.7267    24681.648   0.44925493 
     410    258.62293   -7203.2446   -7174.3948   -2242.4151    24681.648   0.45744528 
     420    260.59152   -7203.4634   -7174.3941   -2202.0252    24681.648   0.46381779 
     430    265.56276   -7204.0186   -7174.3947   -2285.5748    24681.648   0.46928077 
     440    267.29796   -7204.2122   -7174.3947   -2340.4066    24681.648   0.47466356 
     450     263.7688   -7203.8177   -7174.3939   -2324.3833    24681.648   0.47995391 
     460    263.97331    -7203.841   -7174.3944   -2444.9636    24681.648   0.48477747 
     470    265.08715   -7203.9653   -7174.3944   -2633.9331    24681.648   0.48948207 
     480    264.24939   -7203.8716   -7174.3942   -2661.2403    24681.648   0.49464966 
     490    265.03895   -7203.9596   -7174.3941   -2483.9795    24681.648   0.50051068 
     500     268.0228   -7204.2928   -7174.3944   -2130.0039    24681.648   0.50762008 
     510    269.68559   -7204.4783   -7174.3945   -1895.8231    24681.648   0.51677182 
     520     269.3401     -7204.44   -7174.3947   -1772.5691    24681.648   0.52791571 
     530      266.526   -7204.1254    -7174.394   -1820.7728    24681.648   0.53993524 
     540    268.21801   -7204.3142   -7174.3941   -1957.9364    24681.648   0.55113406 
     550    273.27905   -7204.8799   -7174.3952   -1952.1322    24681.648   0.56047872 
     560     270.7895   -7204.6017   -7174.3947   -1784.6397    24681.648   0.56820517 
     570    267.63087   -7204.2482   -7174.3935    -1644.341    24681.648   0.57439114 
     580    274.75017   -7205.0438    -7174.395   -1642.7538    24681.648   0.57908351 
     590    278.06846    -7205.414    -7174.395   -1634.7568    24681.648   0.58273182 
     600    275.33483   -7205.1086   -7174.3946   -1546.2732    24681.648   0.58557023 
     610    272.73058   -7204.8178   -7174.3943   -1362.5514    24681.648   0.58813395 
     620     275.6395   -7205.1428   -7174.3948   -1228.8054    24681.648   0.59107932 
     630    277.82637   -7205.3871   -7174.3952    -1223.228    24681.648   0.59521422 
     640    275.21147   -7205.0945   -7174.3942   -1328.0133    24681.648   0.60059579 
     650    276.76341   -7205.2679   -7174.3945   -1587.9159    24681.648   0.60632225 
     660    280.29592   -7205.6626   -7174.3951   -1876.3308    24681.648   0.61197812 
     670    278.94874   -7205.5114   -7174.3943   -1988.9252    24681.648    0.6176124 
     680    279.62887   -7205.5876   -7174.3946    -1854.874    24681.648   0.62312175 
     690    278.35671   -7205.4465   -7174.3954     -1626.67    24681.648   0.62896185 
     700    269.37243   -7204.4429    -7174.394   -1418.2553    24681.648   0.63559784 
     710    266.45521   -7204.1181   -7174.3946   -1472.5221    24681.648   0.64215216 
     720    265.84495   -7204.0503   -7174.3949   -1709.2555    24681.648   0.64781464 
     730    263.59964   -7203.7992   -7174.3943   -1848.2285    24681.648   0.65193307 
     740    266.57701   -7204.1317   -7174.3946   -1895.4286    24681.648   0.65412735 
     750    271.76415   -7204.7106   -7174.3949   -1968.2386    24681.648   0.65547825 
     760      275.029   -7205.0755   -7174.3956   -2013.6107    24681.648   0.65726746 
     770     271.0675   -7204.6326   -7174.3946   -1846.7085    24681.648   0.65945095 
     780    271.60028    -7204.692   -7174.3946   -1756.0037    24681.648   0.66122261 
     790    276.79844    -7205.273   -7174.3957   -1802.9901    24681.648   0.66298127 
     800    272.61055    -7204.805   -7174.3949   -1872.3043    24681.648    0.6665383 
     810    266.19836   -7204.0894   -7174.3945   -1968.7863    24681.648   0.67221854 
     820    263.38752   -7203.7759   -7174.3946   -2141.6217    24681.648   0.67891951 
     830    264.77149   -7203.9298   -7174.3941   -2417.3308    24681.648   0.68520732 
     840    272.58637    -7204.803   -7174.3955   -2752.0813    24681.648   0.69025418 
     850    272.65549   -7204.8097   -7174.3946   -2928.1991    24681.648   0.69428736 
     860    273.59711   -7204.9144   -7174.3942   -2900.3005    24681.648    0.6970968 
     870    278.19824   -7205.4288   -7174.3953    -2707.162    24681.648    0.6996263 
     880    276.53864   -7205.2424   -7174.3941   -2500.9253    24681.648   0.70364771 
     890    279.23786   -7205.5442   -7174.3948   -2415.7746    24681.648   0.70924281 
     900    280.95843   -7205.7363    -7174.395    -2364.961    24681.648   0.71595523 
     910    278.43861   -7205.4551   -7174.3949   -2292.0963    24681.648   0.72276909 
     920    274.58034   -7205.0239    -7174.394   -2145.7325    24681.648    0.7279473 
     930    277.12312   -7205.3082   -7174.3947    -2157.167    24681.648   0.73037655 
     940    279.73337   -7205.5996   -7174.3949   -2169.2816    24681.648   0.73135876 
     950    279.22126   -7205.5421   -7174.3945   -2172.7349    24681.648   0.73362662 
     960    279.34211   -7205.5558   -7174.3947    -2162.325    24681.648   0.73879001 
     970    278.76831   -7205.4918   -7174.3948   -2041.5721    24681.648   0.74667297 
     980    277.67235   -7205.3697   -7174.3949   -1885.6852    24681.648   0.75580397 
     990    276.23383    -7205.209   -7174.3947   -1855.7306    24681.648   0.76364754 
    1000    276.65338   -7205.2559   -7174.3948   -1804.2694    24681.648   0.76766421 
    1010    277.15823    -7205.313   -7174.3956    -1670.983    24681.648   0.76766874 
    1020    269.42126   -7204.4494   -7174.3951   -1424.7931    24681.648   0.76610705 
    1030     260.7554   -7203.4818   -7174.3941   -1215.0065    24681.648   0.76554395 
    1040    261.30906   -7203.5441   -7174.3947   -1098.2689    24681.648   0.76665088 
    1050    265.20034   -7203.9786   -7174.3951   -1049.7855    24681.648   0.76872121 
    1060    265.37142   -7203.9979   -7174.3953     -1168.93    24681.648    0.7710414 
    1070    262.30523   -7203.6545    -7174.394   -1216.5846    24681.648   0.77312784 
    1080     269.2805   -7204.4336   -7174.3949   -1303.2806    24681.648   0.77456841 
    1090    278.21465   -7205.4311   -7174.3958   -1474.4916    24681.648   0.77578562 
    1100    279.83218   -7205.6107    -7174.395   -1575.5621    24681.648   0.77731718 
    1110    283.74367   -7206.0469   -7174.3949   -1579.9493    24681.648   0.77887111 
    1120    290.78719   -7206.8334   -7174.3957   -1573.7467    24681.648   0.78005841 
    1130    290.95381   -7206.8511   -7174.3948   -1519.3089    24681.648   0.78128493 
    1140    291.42672   -7206.9042   -7174.3951   -1587.1629    24681.648   0.78343187 
    1150    288.83961    -7206.616   -7174.3955   -1727.5352    24681.648   0.78763344 
    1160    278.98488   -7205.5156   -7174.3944   -1780.0997    24681.648   0.79353187 
    1170     274.5083   -7205.0159   -7174.3941   -1742.9948    24681.648   0.79894507 
    1180    278.08142   -7205.4157   -7174.3953   -1700.4448    24681.648   0.80276226 
    1190    278.86175    -7205.502   -7174.3946   -1575.2201    24681.648    0.8050797 
    1200    282.48118   -7205.9064   -7174.3952   -1531.0337    24681.648   0.80550341 
    1210     282.2015   -7205.8756   -7174.3956   -1582.1964    24681.648    0.8047093 
    1220    273.66019   -7204.9216   -7174.3943   -1443.9202    24681.648   0.80424724 
    1230    271.02344   -7204.6278   -7174.3947   -1294.8219    24681.648   0.80553838 
    1240    273.21828   -7204.8729    -7174.395   -1344.7406    24681.648   0.80963811 
    1250    274.53804   -7205.0205   -7174.3953   -1557.8461    24681.648   0.81626207 
    1260    273.33761   -7204.8857   -7174.3945   -1709.4029    24681.648    0.8238996 
    1270    277.03845    -7205.299   -7174.3949   -1861.8941    24681.648   0.83066888 
    1280    279.60921   -7205.5866   -7174.3958   -1776.8315    24681.648   0.83577326 
    1290     271.8553   -7204.7208   -7174.3949   -1451.3285    24681.648    0.8390946 
    1300    264.41726   -7203.8899   -7174.3937   -1174.9198    24681.648   0.84015079 
    1310    270.14381   -7204.5298   -7174.3948   -1305.4319    24681.648   0.83955817 
    1320    276.28563    -7205.216   -7174.3959   -1616.8447    24681.648    0.8394972 
    1330    269.37516    -7204.444   -7174.3948   -1792.2063    24681.648   0.84108811 
    1340    263.66565    -7203.806   -7174.3937   -1787.5686    24681.648   0.84324181 
    1350    271.75636   -7204.7105   -7174.3956   -1789.9886    24681.648   0.84491174 
    1360    274.27239   -7204.9909   -7174.3954   -1904.3466    24681.648   0.84675977 
    1370    271.14124   -7204.6406   -7174.3944   -2044.7094    24681.648   0.84884467 
    1380    273.68352    -7204.925   -7174.3952   -2173.0979    24681.648   0.85060846 
    1390    275.02452   -7205.0744    -7174.395   -2215.3954    24681.648   0.85231893 
    1400    276.25601   -7205.2118    -7174.395   -2238.0373    24681.648   0.85406463 
    1410    278.84188   -7205.4999   -7174.3947   -2167.4859    24681.648   0.85604751 
    1420    283.63171   -7206.0351   -7174.3956   -2106.7356    24681.648   0.85860197 
    1430     281.5104   -7205.7981   -7174.3952   -2039.7153    24681.648   0.86172051 
    1440    277.08643   -7205.3037   -7174.3943   -2134.4004    24681.648   0.86445233 
    1450    280.14663   -7205.6458    -7174.395   -2425.0475    24681.648   0.86616941 
    1460    284.16882   -7206.0946   -7174.3952   -2629.1536    24681.648   0.86801931 
    1470    286.02648   -7206.3014   -7174.3947   -2499.1716    24681.648   0.87115512 
    1480    288.85345   -7206.6176   -7174.3956   -2167.0023    24681.648   0.87530865 
    1490    284.31956   -7206.1114   -7174.3951   -1635.6837    24681.648   0.87953488 
    1500    278.98283   -7205.5151   -7174.3941    -1216.743    24681.648   0.88285916 
    1510    281.81212   -7205.8323   -7174.3957   -1229.4385    24681.648   0.88582692 
    1520    276.49173   -7205.2381   -7174.3951   -1562.5155    24681.648   0.89044229 
    1530    268.60167    -7204.357   -7174.3941   -1832.8137    24681.648   0.89739602 
    1540    268.44471   -7204.3404   -7174.3949   -2013.3452    24681.648   0.90578469 
    1550    268.16938   -7204.3093   -7174.3946   -2010.8653    24681.648   0.91410017 
    1560    269.46062   -7204.4535   -7174.3947   -1942.9791    24681.648   0.92102099 
    1570    272.53021   -7204.7961    -7174.395   -1895.4867    24681.648   0.92617748 
    1580    274.16463   -7204.9785   -7174.3951   -1823.6829    24681.648   0.92969488 
    1590    274.08365    -7204.969   -7174.3945   -1694.8776    24681.648   0.93183336 
    1600    276.38809   -7205.2266   -7174.3951   -1582.4042    24681.648   0.93327697 
    1610    276.47515   -7205.2358   -7174.3946    -1514.064    24681.648   0.93523754 
    1620    278.82635   -7205.4983   -7174.3948   -1527.2623    24681.648   0.93825527 
    1630    283.05477   -7205.9703   -7174.3951   -1480.4486    24681.648   0.94238563 
    1640    283.75544   -7206.0487   -7174.3953   -1428.7453    24681.648   0.94810451 
    1650    279.65577   -7205.5907   -7174.3946   -1482.0142    24681.648   0.95569667 
    1660    277.97149   -7205.4028   -7174.3947   -1644.7201    24681.648   0.96460041 
    1670    277.63235   -7205.3655   -7174.3952   -1799.5694    24681.648   0.97399532 
    1680     273.1457   -7204.8646   -7174.3948   -1807.2549    24681.648     0.982653 
    1690     269.1131   -7204.4145   -7174.3945    -1848.628    24681.648   0.98867138 
    1700    269.43844   -7204.4513    -7174.395   -2023.5742    24681.648   0.99116369 
    1710    269.78252   -7204.4896   -7174.3949   -2209.0436    24681.648    0.9917874 
    1720    270.65906   -7204.5872   -7174.3948   -2303.1156    24681.648   0.99313368 
    1730    273.04698    -7204.854   -7174.3952   -2347.4849    24681.648   0.99679692 
    1740    274.23892   -7204.9868   -7174.3951   -2237.2262    24681.648    1.0035992 
    1750    273.69441   -7204.9263   -7174.3952   -2020.2102    24681.648    1.0135583 
    1760    270.40125   -7204.5585   -7174.3949    -1788.634    24681.648    1.0251981 
    1770    270.68343   -7204.5897   -7174.3946   -1549.0244    24681.648    1.0353833 
    1780    277.90453   -7205.3964   -7174.3957    -1511.742    24681.648    1.0415834 
    1790    279.00509   -7205.5188   -7174.3954   -1597.8653    24681.648    1.0442507 
    1800    277.00732   -7205.2948   -7174.3942   -1788.7028    24681.648    1.0451598 
    1810    282.39257   -7205.8967   -7174.3954   -2040.7403    24681.648    1.0459368 
    1820    284.13814   -7206.0911   -7174.3951   -2280.9528    24681.648    1.0481335 
    1830    282.91429   -7205.9545   -7174.3949   -2430.6285    24681.648    1.0523919 
    1840     281.3318   -7205.7782   -7174.3952   -2306.2747    24681.648    1.0583276 
    1850    277.24801   -7205.3224    -7174.395   -2023.8294    24681.648    1.0646013 
    1860    275.86189   -7205.1669   -7174.3941   -1648.8281    24681.648    1.0693247 
    1870    285.01658   -7206.1898   -7174.3957   -1237.5386    24681.648    1.0720376 
    1880    287.69204   -7206.4885    -7174.396   -948.96764    24681.648    1.0743863 
    1890    280.11635   -7205.6423   -7174.3949   -885.51677    24681.648    1.0774135 
    1900    276.31656   -7205.2185    -7174.395   -989.28796    24681.648    1.0809193 
    1910      276.623   -7205.2529   -7174.3952   -1167.7604    24681.648    1.0845535 
    1920    277.67777   -7205.3704    -7174.395   -1316.9346    24681.648    1.0879417 
    1930    280.71277   -7205.7092   -7174.3953   -1469.0337    24681.648    1.0909294 
    1940    281.53928   -7205.8014   -7174.3953   -1673.5867    24681.648     1.094033 
    1950    279.58172   -7205.5827    -7174.395   -1827.7357    24681.648    1.0978665 
    1960    278.22672   -7205.4318   -7174.3952   -1824.7991    24681.648    1.1027058 
    1970    275.53555   -7205.1314    -7174.395    -1644.041    24681.648    1.1084664 
    1980    273.96064   -7204.9552   -7174.3945   -1378.9505    24681.648    1.1145371 
    1990    277.66865   -7205.3694    -7174.395   -1245.5747    24681.648    1.1207676 
    2000    280.84548   -7205.7241   -7174.3953   -1211.1794    24681.648    1.1274187 
Loop time of 1318.55 on 16 procs for 2000 steps with 864 atoms

Performance: 0.131 ns/day, 183.132 hours/ns, 1.517 timesteps/s
97.8% CPU use with 16 MPI tasks x 1 OpenMP threads

MPI task timing breakdown:
Section |  min time  |  avg time  |  max time  |%varavg| %total
---------------------------------------------------------------
Pair    | 493.54     | 1067.6     | 1304.8     | 651.2 | 80.97
Bond    | 0.00012398 | 0.00033638 | 0.00071979 |   0.0 |  0.00
Neigh   | 0.017385   | 0.027012   | 0.038971   |   3.1 |  0.00
Comm    | 13.558     | 237.02     | 803.67     |1351.0 | 17.98
Output  | 0.12509    | 7.2356     | 19.484     | 242.8 |  0.55
Modify  | 0.0085936  | 0.010565   | 0.016376   |   2.0 |  0.00
Other   |            | 6.647      |            |       |  0.50

Nlocal:        54.0000 ave          68 max          38 min
Histogram: 2 0 1 2 1 3 1 3 1 2
Nghost:        453.312 ave         541 max         363 min
Histogram: 1 1 1 3 2 1 4 1 1 1
Neighs:         0.00000 ave           0 max           0 min
Histogram: 16 0 0 0 0 0 0 0 0 0
FullNghs:      1935.12 ave        2876 max         990 min
Histogram: 2 0 2 1 4 1 2 1 2 1

Total # of neighbors = 30962
Ave neighs/atom = 35.835648
Ave special neighs/atom = 0.0000000
Neighbor list builds = 199
Dangerous builds = 198
Setting up Verlet run ...
  Unit style    : metal
  Current step  : 2000
  Time step     : 0.001
Per MPI rank memory allocation (min/avg/max) = 8.894 | 8.901 | 8.907 Mbytes
Step Temp PotEng TotEng Press Volume c_msd[4] 
    2000        637.5   -7205.7241     -7134.61    510.56275    24681.648    1.1274187 
    2010    581.15909   -7199.4187   -7134.5896    815.92177    24682.328     1.134267 
    2020    513.89657    -7191.795   -7134.4691    1078.6019    24684.953    1.1459496 
    2030    493.71464   -7189.2299   -7134.1553    905.25155     24690.07    1.1587201 
    2040     465.4366   -7185.5266   -7133.6064    807.59905    24697.384    1.1736658 
    2050     437.1546   -7181.6307   -7132.8655    755.26535    24706.667    1.1902169 
    2060    439.64082   -7181.0548   -7132.0123    455.08921    24717.742    1.2064353 
    2070    450.34117   -7181.3982    -7131.162    35.024181    24729.926    1.2214119 
    2080     460.8677   -7181.8028   -7130.3923   -285.96711    24742.265    1.2344244 
    2090    467.37236   -7181.7964   -7129.6603   -489.77571    24753.985    1.2460723 
    2100    477.09265   -7182.1223   -7128.9019   -574.57587    24764.582    1.2573644 
    2110    483.21997   -7181.9772   -7128.0732   -446.51618    24773.861    1.2688621 
    2120    483.11241   -7181.0703   -7127.1784   -325.39338    24782.092    1.2804795 
    2130    485.37343   -7180.3683   -7126.2241   -452.00478    24789.508    1.2923331 
    2140    497.59754   -7180.7292   -7125.2214   -597.31356    24795.859     1.304878 
    2150    505.46953    -7180.573   -7124.1871   -645.54532     24800.81    1.3177206 
    2160    493.59558   -7178.2165   -7123.1552   -576.47178    24804.251    1.3305588 
    2170    490.54226   -7176.8494   -7122.1287   -610.30032    24806.291    1.3429563 
    2180    496.01888   -7176.4061   -7121.0744   -631.35387    24806.859    1.3555135 
    2190    495.86882    -7175.316   -7120.0011   -419.06405    24805.961    1.3685704 
    2200    502.45244   -7174.9637   -7118.9143   -289.58762    24804.026    1.3804007 
    2210    518.31601   -7175.6211   -7117.8022   -243.08918     24801.37    1.3890233 
    2220    525.55271   -7175.3033   -7116.6771   -293.49639      24798.1     1.395375 
    2230    520.51076   -7173.6285   -7115.5648   -507.15162    24794.067    1.4026438 
    2240    517.40241   -7172.1784   -7114.4614   -664.29654    24788.808    1.4127714 
    2250     531.2286   -7172.5997   -7113.3404    -717.6216    24781.923    1.4257046 
    2260    543.89412   -7172.8705   -7112.1983    -645.4589    24773.275    1.4403206 
    2270    542.62364   -7171.5966   -7111.0661   -451.19019    24763.029    1.4556082 
    2280    536.97988   -7169.8533   -7109.9524   -154.39909    24751.662    1.4706702 
    2290    545.21302   -7169.6558   -7108.8365   -110.94807      24739.8    1.4841568 
    2300    549.27892   -7168.9806   -7107.7077   -158.60784    24727.571     1.497245 
    2310    554.74734   -7168.4657   -7106.5828   -167.73093    24714.881    1.5118869 
    2320    563.93766   -7168.3634   -7105.4553   -150.06798    24701.696    1.5273761 
    2330    576.55858   -7168.6431   -7104.3271   -11.768376    24688.083    1.5411154 
    2340    582.13805   -7168.1481   -7103.2098    395.74927    24674.404    1.5520527 
    2350    588.52344   -7167.7645   -7102.1138      760.823    24661.567    1.5612887 
    2360    595.01556   -7167.4088   -7101.0339    845.92708    24650.405     1.571406 
    2370    590.85544   -7165.8925   -7099.9816    950.15482    24641.202    1.5844134 
    2380    590.19084   -7164.7882   -7098.9515    999.82758    24634.181    1.6002392 
    2390    590.31043   -7163.7796   -7097.9296    832.64192    24629.462    1.6183363 
    2400    608.80159   -7164.8194   -7096.9066    391.06283    24626.656    1.6374983 
    2410    622.24631   -7165.3028   -7095.8902     -114.067    24624.746    1.6572292 
    2420     601.6811   -7162.0422   -7094.9237   -223.82224     24622.64    1.6767059 
    2430    583.25516    -7159.062    -7093.999    32.202245    24620.061    1.6930304 
    2440    593.65712   -7159.2792   -7093.0558    275.47788    24617.529    1.7055013 
    2450    601.80827   -7159.2153   -7092.0827     382.5049    24615.615    1.7164823 
    2460    622.01585   -7160.4934   -7091.1066    329.09176    24614.582    1.7258881 
    2470    635.37838   -7161.0252   -7090.1478    333.78012    24614.359    1.7335774 
    2480    649.32094   -7161.6775   -7089.2448    426.38521    24614.961    1.7407152 
    2490    649.68465   -7160.8858   -7088.4125     726.4162    24616.641    1.7508873 
    2500    633.73079   -7158.3539   -7087.6602    1378.8003    24620.163    1.7668293 
    2510    623.35219   -7156.4921   -7086.9563     1929.723    24627.017    1.7855359 
    2520    632.32357   -7156.8016    -7086.265     2088.011    24638.519    1.8038312 
    2530    642.50745   -7157.2585   -7085.5858    2102.7026     24655.19    1.8230921 
    2540     638.3733   -7156.1531   -7084.9416    1804.6647    24677.113    1.8453844 
    2550    635.61915   -7155.2337   -7084.3294    1284.6414    24703.677    1.8691053 
    2560     627.3138   -7153.7041   -7083.7263    737.31595    24733.749    1.8913849 
    2570    646.26149   -7155.2055   -7083.1141   -194.11612    24765.944    1.9102185 
    2580    663.88256   -7156.5598   -7082.5027    -720.9483    24798.232    1.9267241 
    2590    655.21531   -7155.0368   -7081.9465   -748.81121    24829.323    1.9428602 
    2600    669.64804   -7156.1568   -7081.4566   -832.79488        24859    1.9579516 
    2610    691.86946   -7158.2168   -7081.0378   -1097.9745    24886.986    1.9721075 
    2620    670.59608   -7155.5419   -7080.7359   -890.63152    24912.773    1.9870775 
    2630    641.01859   -7152.0346    -7080.528   -680.22396    24936.739    2.0014257 
    2640    638.78241   -7151.6007   -7080.3436   -738.30373    24959.328     2.013519 
    2650    643.45343   -7151.9376   -7080.1594   -878.98504    24980.398    2.0248341 
    2660    648.43507   -7152.3183   -7079.9844   -1242.0824    24999.525    2.0376381 
    2670    650.78181   -7152.4266   -7079.8309   -1394.1327    25015.874    2.0527961 
    2680    651.42748   -7152.3741   -7079.7064   -1304.5691    25029.038    2.0684627 
    2690    671.69164   -7154.5489   -7079.6207   -1286.8161    25039.122    2.0809335 
    2700    681.61858   -7155.6421   -7079.6065    -1228.412    25046.147    2.0887371 
    2710    670.75524   -7154.5198    -7079.696   -1268.9764    25050.179    2.0930616 
    2720    650.98162   -7152.4796   -7079.8617   -1308.3197    25051.107    2.0942792 
    2730    655.62372   -7153.2064   -7080.0706   -1277.5503    25048.804    2.0910802 
    2740    657.12978   -7153.6239   -7080.3201   -984.63507    25043.378    2.0856539 
    2750    657.11265   -7153.9224   -7080.6205   -866.22121    25035.392    2.0816365 
    2760    656.28203   -7154.1783   -7080.9691   -928.90961    25025.119    2.0810228 
    2770    647.56446   -7153.5915   -7081.3547   -855.42234     25012.46    2.0833198 
    2780    633.44884   -7152.4165   -7081.7543   -652.42896     24997.57     2.085332 
    2790    625.06409   -7151.8632   -7082.1363   -576.19409    24980.861    2.0849673 
    2800    635.31158   -7153.3622   -7082.4922   -666.18246    24962.502    2.0834599 
    2810    650.66781   -7155.4336   -7082.8506   -658.12769    24942.337    2.0821813 
    2820     652.5109   -7156.0307   -7083.2421   -733.52573    24920.326    2.0826059 
    2830    649.17835   -7156.0804   -7083.6635   -800.27899    24896.303    2.0847994 
    2840     651.4731   -7156.7825   -7084.1097   -649.81693    24870.144    2.0890007 
    2850    633.18806   -7155.1954   -7084.5624   -175.09816    24842.254    2.0958703 
    2860    615.20166   -7153.6058   -7084.9792     277.1301    24813.719    2.1033509 
    2870    622.24953   -7154.7638    -7085.351    210.74207    24785.535    2.1103091 
    2880    626.56782   -7155.5833   -7085.6887   -40.902908     24757.67    2.1187917 
    2890     628.1297   -7156.0672   -7085.9983   -308.73986    24729.566     2.129503 
    2900      629.788   -7156.5466   -7086.2928   -618.33371    24700.574     2.141508 
    2910    629.24863   -7156.7706   -7086.5769   -674.77352    24670.067    2.1541616 
    2920    637.67047   -7157.9842   -7086.8511   -577.25795     24637.89    2.1676417 
    2930    631.85443   -7157.5932   -7087.1089   -317.91645     24604.32    2.1827091 
    2940    622.89719   -7156.8209   -7087.3357     -103.949    24569.955    2.1986324 
    2950    630.37868   -7157.8425   -7087.5228    55.699866     24535.35    2.2164884 
    2960     644.8267   -7159.6278   -7087.6964    194.31669    24500.917    2.2393088 
    2970    636.83134    -7158.921   -7087.8815    326.70752    24467.017    2.2667758 
    2980    616.19287   -7156.7966   -7088.0594    419.89492    24433.975    2.2963302 
    2990    603.04386   -7155.4606   -7088.1901    528.39652    24402.051     2.326924 
    3000     604.0666   -7155.6343   -7088.2498    702.81139    24371.514    2.3574266 
    3010    610.93458   -7156.3909   -7088.2402    899.14809    24342.754    2.3865002 
    3020    617.72816   -7157.0804   -7088.1719    1032.9803     24316.23    2.4126166 
    3030     628.7362   -7158.2055   -7088.0691    952.92928    24292.186    2.4349387 
    3040    621.12729    -7157.228   -7087.9403    972.23318    24270.517    2.4551655 
    3050    615.50979    -7156.446   -7087.7849    845.32892    24251.174    2.4743178 
    3060    606.66383    -7155.251   -7087.5768    828.56327    24233.917    2.4930529 
    3070    620.00964   -7156.4728   -7087.3098    812.35877    24218.648    2.5106264 
    3080    638.97822   -7158.2735   -7086.9946    1127.4891    24205.415    2.5270832 
    3090    648.01684   -7158.9592   -7086.6719    1574.3832    24194.867    2.5426909 
    3100    650.64933   -7158.9514   -7086.3705    1853.2741     24187.97    2.5575225 
    3110    659.64641   -7159.6925    -7086.108    1523.6316     24185.24    2.5712264 
    3120    671.74317   -7160.8345   -7085.9005    907.92763     24185.99    2.5839125 
    3130    672.58908   -7160.7967   -7085.7684    486.11971    24188.856    2.5968348 
    3140    660.71589   -7159.4173   -7085.7135     429.4098    24192.914    2.6121463 
    3150    648.37064   -7158.0367     -7085.71     342.5545    24197.949    2.6295356 
    3160    646.27174   -7157.8287   -7085.7361    159.28869    24203.745    2.6469213 
    3170     637.5886   -7156.9013   -7085.7773    66.978162    24209.908    2.6619881 
    3180    631.46159   -7156.2631   -7085.8226     8.210363    24216.198    2.6741607 
    3190    623.84663    -7155.443    -7085.852    115.54448    24222.522    2.6858733 
    3200    630.99782   -7156.2486   -7085.8598    220.46641    24229.109    2.6988785 
    3210    639.91953    -7157.236    -7085.852    89.052065     24236.17    2.7143431 
    3220    645.73809     -7157.88    -7085.847   -325.29626    24243.386    2.7315117 
    3230    650.34407   -7158.4087   -7085.8618   -670.06552    24249.863     2.749279 
    3240    641.78746   -7157.4928   -7085.9004   -701.55946    24254.856    2.7669409 
    3250    640.99325   -7157.4631   -7085.9593   -615.85957    24258.253    2.7842963 
    3260    626.95092   -7155.9517   -7086.0144   -425.17337    24260.256    2.8016804 
    3270    635.20031   -7156.9192   -7086.0616   -320.28372    24261.249    2.8168468 
    3280    637.86714   -7157.2533   -7086.0982   -270.05467    24261.492    2.8288886 
    3290    637.51962   -7157.2546   -7086.1384   -344.59359    24261.101    2.8389756 
    3300    636.22195   -7157.1555    -7086.184   -447.01711    24259.907    2.8483596 
    3310    620.73574   -7155.4604   -7086.2164   -349.08924    24257.734    2.8565674 
    3320    629.89966   -7156.4917   -7086.2254   -461.56709     24254.71    2.8629431 
    3330    636.17572   -7157.1817   -7086.2154   -532.58182    24250.625    2.8707898 
    3340    631.49632   -7156.6414   -7086.1971   -708.24397     24245.28    2.8833345 
    3350    631.09436   -7156.5657   -7086.1662   -985.31262    24238.283    2.8989118 
    3360    631.97089   -7156.6212   -7086.1239   -1070.9681    24229.041    2.9142153 
    3370    622.20476   -7155.4728   -7086.0649   -763.52167    24217.391    2.9284676 
    3380     628.6369   -7156.1075   -7085.9821   -381.74731    24203.978    2.9426406 
    3390    637.35862   -7156.9716   -7085.8733   -117.42947    24189.643    2.9563531 
    3400    632.80069   -7156.3424   -7085.7525    294.97798    24175.058    2.9673203 
    3410    620.40997   -7154.8224   -7085.6147    827.98346    24161.171     2.974291 
    3420    618.41378   -7154.4259   -7085.4409    1198.3433    24149.175    2.9782346 
    3430    633.84966   -7155.9385   -7085.2316    1075.3479     24139.83    2.9824457 
    3440     630.6405   -7155.3504   -7085.0015    963.81872    24132.964    2.9892234 
    3450     625.4088    -7154.519   -7084.7537    753.63999     24128.29    2.9964274 
    3460    637.14486   -7155.5555    -7084.481     443.7483     24125.31    3.0013771 
    3470    643.43329   -7155.9758   -7084.1999    674.68534    24123.479     3.002669 
    3480    641.69405   -7155.5112   -7083.9292    982.26512    24123.203    3.0011989 
    3490    639.89317   -7155.0468   -7083.6658    1201.1274    24125.182    2.9999148 
    3500    644.08094   -7155.2486   -7083.4004     1218.178    24129.898    3.0007627 
    3510    650.19853   -7155.6764   -7083.1458     902.8623    24137.337    3.0044429 
    3520    639.51488   -7154.2513   -7082.9125    497.54888    24146.851    3.0101314 
    3530     640.2566   -7154.1075   -7082.6859   -115.53247     24157.47    3.0144095 
    3540    654.99912   -7155.5259   -7082.4598   -531.49006    24167.868    3.0168831 
    3550    655.98232   -7155.4371   -7082.2613   -645.67534    24177.102    3.0187431 
    3560    644.28579   -7153.9742   -7082.1031   -573.03997    24184.892     3.020629 
    3570    644.87097   -7153.9047   -7081.9684   -642.65902    24191.326     3.022265 
    3580    657.49063    -7155.199   -7081.8549   -843.49251    24196.242    3.0243029 
    3590    654.85946   -7154.8332   -7081.7826   -822.53564    24199.263    3.0296563 
    3600    639.30753   -7153.0625   -7081.7468   -641.65421     24200.43    3.0396368 
    3610    641.34813   -7153.2692   -7081.7259   -470.75603    24200.112    3.0528934 
    3620    646.39707   -7153.8216    -7081.715    -69.92442    24198.781    3.0680145 
    3630    639.02939   -7153.0061   -7081.7214    344.80084    24197.295    3.0839662 
    3640     640.7896   -7153.2167   -7081.7356    514.77586    24196.566     3.098905 
    3650    666.71818   -7156.1447   -7081.7713    324.96886    24196.962    3.1104061 
    3660    675.11438   -7157.1822   -7081.8721    337.28791    24198.168    3.1192828 
    3670    659.59202   -7155.6327   -7082.0542    582.74725    24200.218    3.1283296 
    3680     649.6872   -7154.7693   -7082.2957    561.82022    24203.559    3.1407097 
    3690    636.70895   -7153.5848   -7082.5589    607.71353    24208.252    3.1571479 
    3700    643.94757   -7154.6742   -7082.8409    478.17665     24214.32    3.1746521 
    3710    639.24813   -7154.4426   -7083.1335    411.13888    24221.552    3.1914767 
    3720    636.36814   -7154.4223   -7083.4345    173.12114      24229.7    3.2066534 
    3730    635.08827   -7154.5789   -7083.7338   -49.516891    24238.289    3.2191857 
    3740    636.46875   -7155.0304   -7084.0313   -412.81023    24246.769    3.2291604 
    3750    641.80849   -7155.9277    -7084.333   -752.88168    24254.344    3.2394858 
    3760    643.56331   -7156.4347   -7084.6442   -801.74279    24260.262    3.2532683 
    3770    646.94985   -7157.1377   -7084.9695   -617.34513    24264.379    3.2713523 
    3780     643.7502   -7157.1181   -7085.3068   -439.58556    24267.086    3.2930572 
    3790    640.52497   -7157.1023   -7085.6507   -332.08137    24268.785    3.3144054 
    3800    646.13381   -7158.0859   -7086.0087   -228.86933     24269.72    3.3334897 
    3810    636.16083   -7157.3411   -7086.3764   -58.937421    24270.135    3.3522103 
    3820    621.21447   -7156.0239   -7086.7265   -49.130125    24270.402    3.3703154 
    3830    611.18691   -7155.2096   -7087.0307   -352.88434    24270.495    3.3869959 
    3840    608.38043   -7155.1309   -7087.2652    -775.6572    24269.754    3.4028613 
    3850    623.67437   -7157.0134   -7087.4416   -1264.2296    24267.197    3.4192576 
    3860    634.53095   -7158.3708    -7087.588   -1225.2017    24261.805    3.4383992 
    3870     636.7748   -7158.7553   -7087.7221   -912.49362    24253.595     3.459425 
    3880    642.44562   -7159.5239   -7087.8581   -637.38548    24243.222    3.4803995 
    3890    638.80777   -7159.2599   -7087.9999   -215.28381    24231.363    3.5023481 
    3900    635.51745   -7159.0438   -7088.1508     182.7338     24218.94    3.5257364 
    3910    633.26733   -7158.9456   -7088.3036    306.34705    24206.823    3.5497387 
    3920    630.99129   -7158.8431   -7088.4551    128.39087    24195.292    3.5744738 
    3930    619.25854   -7157.6724   -7088.5932    3.6181215    24184.018    3.6011639 
    3940    608.92722   -7156.6237    -7088.697   -42.069765    24172.699    3.6301287 
    3950    614.32057   -7157.2735   -7088.7452   -1.7837804    24161.225    3.6603105 
    3960    618.42135   -7157.7267   -7088.7408    186.56383    24149.691    3.6902329 
    3970     609.6768   -7156.6934    -7088.683    515.46346    24138.548    3.7206602 
    3980    616.15778      -7157.3   -7088.5667    437.86309    24128.439    3.7526514 
    3990    620.78608   -7157.6363   -7088.3867    220.82255     24119.25    3.7835658 
    4000    621.27049   -7157.4521   -7088.1484    375.17414    24110.582    3.8098311 
    4010    619.35261   -7156.9286   -7087.8389    871.25254    24102.784    3.8321847 
    4020    632.66215   -7158.0279   -7087.4534    1274.1995    24096.913    3.8541218 
    4030     649.5712   -7159.4684   -7087.0078    1294.6223     24093.85     3.879081 
    4040    633.71581   -7157.2254   -7086.5334    1209.2547    24093.728    3.9058675 
    4050    631.53617   -7156.4839   -7086.0351    833.39467    24096.337    3.9320984 
    4060    650.04668   -7158.0067   -7085.4931    374.30521    24100.891    3.9600408 
    4070    652.56161   -7157.7424   -7084.9482    300.57401    24106.446    3.9899562 
    4080    645.84998   -7156.4828   -7084.4372    552.70847     24112.83    4.0187378 
    4090    648.17466   -7156.2667   -7083.9619    759.34416    24120.563    4.0446528 
    4100     653.2073   -7156.3931   -7083.5268    721.42671    24130.085    4.0684424 
    4110    647.74915   -7155.4036   -7083.1462    720.68836    24141.429    4.0886466 
    4120    644.35922   -7154.6979   -7082.8186    438.06707    24154.524    4.1033613 
    4130    644.03986    -7154.373   -7082.5293    250.22162    24168.848    4.1167355 
    4140    653.83086    -7155.217   -7082.2812     170.1289    24183.967    4.1343509 
    4150    664.77264   -7156.2452   -7082.0888     157.2019    24199.716    4.1586535 
    4160    662.77535   -7155.8987   -7081.9651    150.89822    24216.062    4.1883134 
    4170     655.6976   -7155.0503   -7081.9063    300.35262    24233.052    4.2179329 
    4180    653.28056   -7154.7701   -7081.8956    532.27169    24251.029    4.2421801 
    4190    646.95335   -7154.0884   -7081.9198    637.74459     24270.53    4.2608697 
    4200    643.65025   -7153.7604   -7081.9602    128.05426    24291.723    4.2777884 
    4210    643.08974   -7153.7414   -7082.0038   -541.05483    24313.552    4.2971973 
    4220    628.47445   -7152.1495   -7082.0423   -767.51345    24334.583    4.3198737 
    4230    619.64863   -7151.1827     -7082.06    -655.7147    24354.251    4.3417058 
    4240    625.63822   -7151.8398   -7082.0489   -578.06917    24372.704     4.357918 
    4250    634.46857   -7152.7932   -7082.0173   -553.81315    24390.129    4.3636058 
    4260    641.63811   -7153.5675   -7081.9918   -576.78185     24406.55    4.3556907 
    4270    635.00289   -7152.8113   -7081.9758   -314.38965    24422.004    4.3379975 
    4280    642.56814   -7153.6452   -7081.9657   -271.09026    24436.965    4.3164856 
    4290    652.80162   -7154.7835   -7081.9625     -307.705    24451.574    4.2985455 
    4300     660.8212   -7155.7044   -7081.9888   -360.01976     24465.74    4.2880548 
    4310    651.26054    -7154.703   -7082.0539   -185.09118    24479.401    4.2838379 
    4320    647.49214   -7154.3747    -7082.146    118.49136     24492.93     4.281447 
    4330    656.50203   -7155.4888    -7082.255    27.110588    24506.918    4.2773723 
    4340    660.14218   -7156.0349    -7082.395   -256.55998    24521.219    4.2708799 
    4350    650.17882   -7155.0974    -7082.569   -281.04761    24535.277    4.2610027 
    4360     639.1273   -7154.0497   -7082.7541   -302.08289    24548.938    4.2469848 
    4370    633.89054   -7153.6369   -7082.9254   -109.48276    24562.208    4.2297741 
    4380     629.0361   -7153.2357   -7083.0658    179.23225    24575.524    4.2107726 
    4390    620.45835   -7152.3755   -7083.1624    161.72319    24589.469    4.1914906 
    4400    629.22117   -7153.4021   -7083.2115   -87.704986    24604.036    4.1755292 
    4410    651.90314   -7155.9578    -7083.237   -368.41827    24618.678    4.1660819 
    4420     657.4448   -7156.6137   -7083.2748   -526.33583    24632.762    4.1600681 
    4430    653.00904   -7156.1855   -7083.3414   -782.37918    24645.835    4.1538772 
    4440    635.43745   -7154.2995   -7083.4155   -1013.2321    24657.296    4.1471435 
    4450    633.25919   -7154.1215   -7083.4804   -1130.9707    24666.559    4.1382972 
    4460     642.2497   -7155.1755   -7083.5316   -1082.6541    24673.298    4.1288978 
    4470    651.10415   -7156.2234   -7083.5918   -669.75066    24677.641    4.1226118 
    4480    649.22687   -7156.0943   -7083.6721   -252.99224    24680.442    4.1223716 
    4490    647.57686   -7156.0143   -7083.7761   -58.499546    24682.633     4.129293 
    4500    634.36715    -7154.647   -7083.8824   -14.468034    24684.712    4.1400934 
    4510    633.82279    -7154.683   -7083.9791   -109.71291    24686.772    4.1482726 
    4520    635.23421   -7154.9225   -7084.0612   -22.075055     24688.68    4.1496468 
    4530    626.59252   -7154.0229   -7084.1256   -14.271952     24690.56    4.1444056 
    4540    619.61973   -7153.2813   -7084.1618    -188.2402    24692.417    4.1350799 
    4550    620.02731   -7153.3236   -7084.1586   -522.81153    24693.824    4.1253265 
    4560    622.04474   -7153.5046   -7084.1146   -739.13076    24694.027     4.119727 
    4570    632.86029   -7154.6403   -7084.0438   -1169.5568    24692.397     4.123058 
    4580    634.32799    -7154.727   -7083.9668   -1656.5887    24687.907    4.1367304 
    4590    622.00059   -7153.2742   -7083.8891   -1921.4982    24679.357    4.1571885 
    4600    616.14273   -7152.5208   -7083.7892   -1992.0614    24666.003    4.1785388 
    4610    618.52208   -7152.6489   -7083.6518   -2076.3834     24647.53    4.1959505 
    4620    625.28779   -7153.2329   -7083.4811   -1939.6688    24623.716    4.2091354 
    4630    638.80717   -7154.5566   -7083.2967   -1786.9861    24594.734    4.2202794 
    4640    638.82098    -7154.381   -7083.1195    -1537.643    24560.904    4.2330833 
    4650    636.38021   -7153.9381   -7082.9489    -1063.922    24522.768    4.2501854 
    4660    644.72662   -7154.6934   -7082.7732   -523.07214    24481.393    4.2739926 
    4670    651.18924   -7155.2393   -7082.5981   -128.48877    24438.015    4.3040794 
    4680    659.77433   -7156.0502   -7082.4514   -202.28325    24393.495    4.3353984 
    4690    659.91859   -7155.9707   -7082.3557   -400.13033    24347.757     4.363536 
    4700    639.72443   -7153.6648   -7082.3026   -208.08974    24300.475    4.3871734 
    4710    620.78142   -7151.5007   -7082.2516    299.04578    24252.084    4.4054536 
    4720    612.47871   -7150.4741   -7082.1511    1064.3057    24203.798    4.4169606 
    4730    613.24392   -7150.3853    -7081.977    1699.5124     24157.37    4.4216282 
    4740    627.50194   -7151.7263   -7081.7275    2121.6556    24114.316    4.4233312 
    4750    658.57803   -7154.8999   -7081.4346    2174.0221    24075.623     4.426081 
    4760    669.01035   -7155.7819   -7081.1528    2154.8368    24041.512    4.4292118 
    4770     664.7222   -7155.0694   -7080.9186    2204.0478    24012.021    4.4291149 
    4780    671.50176   -7155.6456   -7080.7386    2067.9989    23987.237    4.4247997 
    4790    673.55778   -7155.7524    -7080.616    2357.3284    23967.031    4.4193109 
    4800    676.35453   -7156.0146   -7080.5663    2841.3777    23952.046    4.4121952 
    4810    691.55013   -7157.7731   -7080.6296    3010.5186    23943.314    4.4012904 
    4820    695.16275   -7158.4228   -7080.8764    2876.0648     23941.27    4.3891633 
    4830    695.71693   -7158.9855   -7081.3772     2593.907    23945.713    4.3776296 
    4840     696.5168   -7159.8797   -7082.1822    2247.1841    23956.091    4.3667292 
    4850    671.26696   -7158.1247   -7083.2438    2181.2693    23971.786    4.3566332 
    4860    642.11168   -7156.0024   -7084.3739    2283.9248     23992.69    4.3471762 
    4870    623.61006   -7154.9492   -7085.3845    2266.5803    24019.046    4.3387775 
    4880     612.6423   -7154.5259   -7086.1848     2034.731    24050.871    4.3312776 
    4890    605.90841   -7154.3722   -7086.7822    1690.0915    24087.739     4.323616 
    4900    594.37302   -7153.5001   -7087.1969    1197.2929    24128.911    4.3145367 
    4910    598.51465   -7154.2258   -7087.4606    502.75761    24173.283     4.302819 
    4920    603.15952   -7154.8779   -7087.5946    -177.7763    24219.309    4.2887634 
    4930    608.74715   -7155.5395   -7087.6328   -702.58585     24265.42    4.2733872 
    4940    611.92521   -7155.8554   -7087.5942   -1157.9764    24310.338    4.2606742 
    4950    619.57062   -7156.6117   -7087.4976   -1568.3726    24352.942     4.254453 
    4960    617.01361   -7156.1825   -7087.3537   -1895.5435    24392.191    4.2561611 
    4970    610.90353   -7155.3097   -7087.1625   -1973.0432     24427.31    4.2618344 
    4980    621.85057   -7156.2922   -7086.9238   -2151.4138    24457.977    4.2686756 
    4990    621.66287   -7155.9888   -7086.6414   -2235.4074     24483.77    4.2772929 
    5000    635.32364   -7157.2117   -7086.3403   -2313.7748    24504.388     4.287515 
Loop time of 2160.07 on 16 procs for 3000 steps with 864 atoms

Performance: 0.120 ns/day, 200.006 hours/ns, 1.389 timesteps/s
97.7% CPU use with 16 MPI tasks x 1 OpenMP threads

MPI task timing breakdown:
Section |  min time  |  avg time  |  max time  |%varavg| %total
---------------------------------------------------------------
Pair    | 1518.3     | 1923.8     | 2151.4     | 386.2 | 89.06
Bond    | 0.00020695 | 0.00061138 | 0.0015893  |   0.0 |  0.00
Neigh   | 0.031678   | 0.03966    | 0.049455   |   2.6 |  0.00
Comm    | 7.905      | 188.01     | 558.49     |1130.5 |  8.70
Output  | 0.17759    | 0.18038    | 0.22137    |   2.5 |  0.01
Modify  | 0.5172     | 48.047     | 99.304     | 552.8 |  2.22
Other   |            | 0.01436    |            |       |  0.00

Nlocal:        54.0000 ave          65 max          47 min
Histogram: 2 5 0 4 0 2 0 0 1 2
Nghost:        454.438 ave         493 max         402 min
Histogram: 1 1 0 2 0 3 4 2 2 1
Neighs:         0.00000 ave           0 max           0 min
Histogram: 16 0 0 0 0 0 0 0 0 0
FullNghs:      1901.75 ave        2541 max        1560 min
Histogram: 5 2 0 4 0 2 0 1 1 1

Total # of neighbors = 30428
Ave neighs/atom = 35.217593
Ave special neighs/atom = 0.0000000
Neighbor list builds = 300
Dangerous builds = 300
Setting up Verlet run ...
  Unit style    : metal
  Current step  : 5000
  Time step     : 0.001
Per MPI rank memory allocation (min/avg/max) = 8.899 | 8.902 | 8.907 Mbytes
Step Temp PotEng TotEng Press Volume c_msd[4] 
    5000    635.32364   -7157.2117   -7086.3403   -2313.7748    24504.388     4.287515 
    5010    642.08351   -7157.9703   -7086.3449   -2126.4894    24501.714    4.2999559 
    5020    643.29658    -7158.126   -7086.3653   -1781.1443    24494.063     4.308688 
    5030    638.50244   -7157.6286   -7086.4027    -1518.837    24482.182    4.3100611 
    5040    619.05482   -7155.4932   -7086.4367   -1208.5919    24466.723     4.304108 
    5050    611.08574   -7154.6009   -7086.4333   -926.64316    24448.413    4.2935268 
    5060    619.65396   -7155.5005   -7086.3772   -842.19226    24427.871    4.2819819 
    5070    608.36813   -7154.1263   -7086.2619   -400.46948    24405.441    4.2732577 
    5080    611.36505   -7154.2718   -7086.0732    171.99697     24382.11    4.2701391 
    5090    633.86006   -7156.5126   -7085.8046     392.3607    24359.098    4.2725726 
    5100    646.02142    -7157.549   -7085.4843    428.90007    24336.964    4.2784981 
    5110    653.90487   -7158.0945   -7085.1504    365.39416    24315.804    4.2851611 
    5120     642.5843   -7156.4915   -7084.8103    461.62774    24295.528    4.2878744 
    5130    656.13758   -7157.6535   -7084.4603    604.08502    24276.327    4.2833588 
    5140    671.86677   -7159.0504   -7084.1026    834.84371    24258.547    4.2763724 
    5150    667.25635   -7158.2162   -7083.7827    1091.6479    24242.683    4.2736561 
    5160    644.09409   -7155.3519   -7083.5022    1296.8686    24229.317    4.2788765 
    5170    632.70878   -7153.8038   -7083.2242    1166.6076    24218.866    4.2888785 
    5180    633.56102   -7153.5823   -7082.9076     944.5768    24211.096    4.2985942 
    5190    641.77811   -7154.1267   -7082.5354    726.55751    24205.506      4.30419 
    5200    651.90844   -7154.8324   -7082.1111    541.57003    24201.607    4.3047213 
    5210    654.13576   -7154.6246   -7081.6548    595.59539    24199.014    4.3023804 
    5220     664.1275   -7155.2735    -7081.189    409.68817    24197.739    4.2998516 
    5230     678.0622   -7156.3768   -7080.7379   -65.401523    24197.343    4.3007567 
    5240    673.21537   -7155.4327   -7080.3345   -89.271482    24196.902    4.3085387 
    5250    677.91664   -7155.6176    -7079.995     114.2005    24196.302    4.3221129 
    5260    675.45003   -7155.0724   -7079.7249    357.48836    24195.975    4.3401149 
    5270    659.43174   -7153.0851   -7079.5245    677.73611    24196.496    4.3591547 
    5280    660.45096   -7153.0463    -7079.372    920.01365    24198.564    4.3733218 
    5290     654.9378   -7152.3099   -7079.2506    1223.6112    24202.797    4.3809658 
    5300    660.95067   -7152.8958   -7079.1657    1119.8569    24209.779    4.3825998 
    5310    661.78496   -7152.9469   -7079.1237    1024.8648    24219.409     4.380815 
    5320    657.77488   -7152.5112   -7079.1354    846.21545    24231.457     4.377569 
    5330    663.87302   -7153.2594   -7079.2033    660.86017    24245.563    4.3748452 
    5340    673.56083   -7154.4892   -7079.3525    521.22723    24261.287    4.3736915 
    5350    670.42602   -7154.4082   -7079.6211    563.11267    24278.359    4.3746305 
    5360    654.72653   -7153.0455   -7080.0097    778.07716    24296.901    4.3769465 
    5370    666.19115    -7154.835   -7080.5204    646.44191    24317.306    4.3784199 
    5380     668.9965   -7155.7926    -7081.165    359.30453    24339.335    4.3802559 
    5390    651.00503   -7154.5458   -7081.9252    254.40939    24362.379    4.3835578 
    5400    624.53198   -7152.3619   -7082.6945     283.5597    24386.207    4.3869282 
    5410    637.64098   -7154.5443   -7083.4144   -76.487063    24410.766    4.3882974 
    5420    651.51038   -7156.7584   -7084.0815   -556.55199    24435.269    4.3882993 
    5430    645.97985   -7156.7498   -7084.6898   -656.56702    24458.687     4.388376 
    5440    632.54105   -7155.7767   -7085.2158   -737.43453    24480.684    4.3874191 
    5450    620.75584   -7154.8825   -7085.6362   -867.41764     24501.05    4.3860611 
    5460    615.49854   -7154.6149   -7085.9551   -874.54952    24519.493      4.38648 
    5470    601.67575   -7153.2861   -7086.1682   -751.19516    24535.988    4.3880739 
    5480    606.68504   -7153.9632   -7086.2865   -678.52445    24550.775     4.387722 
    5490    615.08448   -7154.9423   -7086.3287     -612.432    24564.016    4.3852535 
    5500    620.87911   -7155.5837   -7086.3237   -590.65959    24575.849    4.3825139 
    5510    631.88626   -7156.7782   -7086.2903   -732.25824    24586.276    4.3802183 
    5520     637.5575   -7157.3606   -7086.2401   -707.68238     24595.04    4.3785981 
    5530     636.6108   -7157.2041   -7086.1892   -587.15718    24602.192    4.3790969 
    5540    626.79556   -7156.0493   -7086.1293   -624.49828    24607.946    4.3798414 
    5550    638.14669   -7157.2443   -7086.0581   -775.26983    24612.211    4.3767151 
    5560    646.25321    -7158.078   -7085.9875   -946.13035    24614.628    4.3711269 
    5570    632.13873   -7156.4477   -7085.9317   -736.52045    24614.882    4.3660906 
    5580    628.97411   -7156.0361   -7085.8731   -625.76726     24613.35    4.3606889 
    5590    639.39101   -7157.1302   -7085.8051   -976.95357    24610.223    4.3526522 
    5600    627.64373   -7155.7389   -7085.7243   -1224.0553    24604.785    4.3439872 
    5610    624.08552   -7155.2385   -7085.6208   -1289.6578    24596.434    4.3367161 
    5620    632.44067   -7156.0321   -7085.4824   -1413.2029    24584.958    4.3318803 
    5630    648.66305   -7157.6911   -7085.3317    -1775.891    24569.991    4.3311302 
    5640    650.72163   -7157.7811   -7085.1921   -1562.4851    24550.892    4.3369772 
    5650    652.65626   -7157.8811   -7085.0763   -1123.8995    24528.046    4.3480097 
    5660    646.34128   -7157.0839   -7084.9836   -808.54295    24502.397    4.3602156 
    5670    635.10364   -7155.7449   -7084.8982   -317.79578    24474.802    4.3670979 
    5680    644.03792   -7156.6478   -7084.8044    -194.6678    24446.266    4.3637343 
    5690    651.35651   -7157.3728    -7084.713   -179.71833    24417.143    4.3518704 
    5700    640.54781   -7156.0878   -7084.6338    29.518361    24387.542     4.336618 
    5710    641.51044   -7156.1182   -7084.5568    181.51056    24357.897    4.3218454 
    5720     661.8143   -7158.3143    -7084.488    434.94783    24328.602    4.3119556 
    5730    661.08222   -7158.1998   -7084.4551    959.33194    24300.285     4.310783 
    5740    656.04544   -7157.6556   -7084.4727    1352.6555    24274.106    4.3159291 
    5750    661.66189   -7158.3614   -7084.5521    1184.0123    24250.864    4.3225183 
    5760    649.71166   -7157.1764   -7084.7001     1035.396    24230.307    4.3279943 
    5770    641.55493    -7156.473   -7084.9066    1055.9306     24212.11    4.3312442 
    5780     639.7824   -7156.5186   -7085.1499      1218.51    24196.335    4.3328911 
    5790    632.70459   -7156.0046   -7085.4254    1371.4138    24183.312    4.3355498 
    5800    622.08304    -7155.105   -7085.7107    1621.1443    24173.424    4.3410216 
    5810    632.95265   -7156.6161   -7086.0093    1713.4292    24167.215    4.3479417 
    5820    643.32795    -7158.104   -7086.3398     1500.486    24164.883    4.3540419 
    5830    651.31938   -7159.3808   -7086.7251    922.47581    24165.925    4.3587723 
    5840    650.89365   -7159.7758   -7087.1677    427.42766    24169.132    4.3645207 
    5850    645.71387   -7159.6968   -7087.6664    451.40599    24173.453    4.3742308 
    5860    634.06043   -7158.9175   -7088.1871    714.48935    24178.869    4.3884999 
    5870     637.3212   -7159.7973   -7088.7031    775.65502    24185.913    4.4038723 
    5880    637.33739   -7160.3034   -7089.2074    548.27298    24194.694    4.4167634 
    5890    627.42908   -7159.6707   -7089.6801    655.93205     24204.86    4.4240456 
    5900    626.65209   -7160.0118   -7090.1079    715.23759    24216.566    4.4247609 
    5910    625.82059   -7160.3011   -7090.4899    580.47158    24229.912    4.4220881 
    5920    616.70554   -7159.6092   -7090.8147    637.19193    24244.682    4.4207609 
    5930    611.08864    -7159.237   -7091.0692    659.97414    24260.941    4.4249428 
    5940    606.97036   -7158.9531   -7091.2446    624.60926     24278.77    4.4364822 
    5950    613.44426   -7159.7791   -7091.3484    513.83771    24298.073     4.454176 
    5960    617.95414   -7160.3249   -7091.3912    266.86542    24318.566     4.476735 
    5970    615.64743   -7160.0616   -7091.3852    156.56731    24339.732    4.5011987 
    5980     617.7513   -7160.2439   -7091.3328    137.35192    24361.285    4.5258289 
    5990    621.58125   -7160.5794   -7091.2411    266.15479    24383.214    4.5498196 
    6000    615.54441   -7159.7827   -7091.1178    465.35307    24405.798    4.5691952 
    6010    613.53097    -7159.398   -7090.9577    523.86158    24429.456    4.5806476 
    6020    621.61738   -7160.0961   -7090.7538    418.60273    24454.326    4.5870579 
    6030    625.05906    -7160.237   -7090.5107    324.01951     24480.21    4.5957635 
    6040    631.15401   -7160.6477   -7090.2416    80.069842    24506.835     4.609659 
    6050    638.57772   -7161.1898   -7089.9555   -256.31762    24533.635    4.6251057 
    6060    629.02165   -7159.8306   -7089.6623   -506.43427    24559.841    4.6381179 
    6070    620.94606   -7158.6251   -7089.3577   -673.95449    24584.848    4.6472176 
    6080    626.68598   -7158.9291   -7089.0213   -894.43115    24608.235    4.6538741 
    6090    630.32358   -7158.9696   -7088.6561    -1099.623    24629.473    4.6632846 
    6100    625.05031    -7158.008   -7088.2827   -1128.9075      24648.1    4.6797761 
    6110    612.62836   -7156.2381   -7087.8985   -1126.8134    24664.014       4.7001 
    6120    609.47153   -7155.4774   -7087.4899   -1081.7653    24677.235    4.7161318 
    6130    605.53739   -7154.6004   -7087.0518   -1057.3187    24687.844    4.7225306 
    6140    604.20782   -7153.9928   -7086.5925   -1158.3292    24695.874    4.7195772 
    6150    611.43183   -7154.3356   -7086.1295   -1175.2341    24701.124    4.7108748 
    6160    619.29332   -7154.7712   -7085.6881   -1102.4057    24703.568    4.7025117 
    6170    634.40651   -7156.0674   -7085.2984   -1295.8448    24703.298    4.7013001 
    6180    635.62268   -7155.8859   -7084.9813   -1143.7178    24700.002    4.7096448 
    6190    630.38564   -7155.0483   -7084.7278   -633.76077    24694.061    4.7237915 
    6200    650.05867   -7157.0346   -7084.5196    -532.4464    24686.519    4.7373221 
    6210    661.91887   -7158.2055   -7084.3674   -590.36771    24677.703    4.7442943 
    6220    653.61985   -7157.1996   -7084.2873   -563.33506    24667.509    4.7432109 
    6230    640.24286    -7155.678   -7084.2579   -530.72084    24655.977    4.7374716 
    6240    633.33077   -7154.8943   -7084.2453   -607.30243    24643.166    4.7314365 
    6250    628.97385   -7154.3966   -7084.2336   -603.16949    24628.945    4.7282206 
    6260    623.18402   -7153.7211   -7084.2039   -617.19985    24613.306    4.7294352 
    6270    628.91954   -7154.3083   -7084.1513   -876.28584    24596.165    4.7332171 
    6280    640.78884   -7155.5681   -7084.0871   -1049.9254    24576.997    4.7346296 
    6290    645.82351   -7156.0728   -7084.0302   -993.02481     24555.42    4.7311262 
    6300    636.57724    -7154.996   -7083.9849   -715.47995    24531.602    4.7238819 
    6310    633.48234   -7154.6121   -7083.9462   -465.08346    24506.141     4.716306 
    6320    619.24283    -7152.964   -7083.8866    42.075839    24479.738    4.7137441 
    6330     623.9866   -7153.3982   -7083.7915    276.20697    24453.471    4.7185972 
    6340    635.03699   -7154.5038   -7083.6645    302.00542    24427.903    4.7299474 
    6350    630.65974   -7153.8637   -7083.5127    687.95466    24403.242    4.7420953 
    6360    656.17496    -7156.544   -7083.3467     814.5929     24380.25    4.7460997 
    6370    669.92501   -7157.9363   -7083.2051    862.34551    24359.259    4.7431319 
    6380    644.52456   -7155.0124   -7083.1147    1322.9091     24340.49    4.7397838 
    6390    646.14509   -7155.1332   -7083.0547    1581.8492     24324.87    4.7382893 
    6400    650.51835   -7155.5722   -7083.0059    1568.0755    24312.994     4.739502 
    6410     652.2233   -7155.7462   -7082.9897    1272.3226     24304.77     4.741928 
    6420    643.60661   -7154.7947   -7082.9994    1167.2382    24299.608    4.7435274 
    6430     638.2932   -7154.2279   -7083.0253    979.59683    24297.159    4.7430738 
    6440    637.97869   -7154.2231   -7083.0556    683.25875    24296.977    4.7412023 
    6450    643.72186   -7154.9023   -7083.0941     513.1633    24298.421    4.7379929 
    6460    645.82848   -7155.1938   -7083.1507    564.51399    24301.098    4.7334585 
    6470    649.14553   -7155.6476   -7083.2345    378.34974    24305.021    4.7305543 
    6480    660.02327   -7156.9976    -7083.371   -78.710846    24309.729    4.7305736 
    6490    650.68637   -7156.1582   -7083.5731    -140.2182    24314.313    4.7314244 
    6500    638.78984    -7155.091    -7083.833    -79.08561    24318.582     4.731805 
    6510    634.42405   -7154.8956   -7084.1247   -218.70488      24322.6    4.7326772 
    6520     644.5877   -7156.3547     -7084.45   -428.18595    24326.073    4.7320514 
    6530    654.91935   -7157.8925   -7084.8352   -598.80153    24328.542    4.7269123 
    6540    653.00798   -7158.1367   -7085.2927   -439.25814    24329.677    4.7176151 
    6550    658.63806   -7159.3031   -7085.8311   -178.82452    24329.801    4.7052186 
    6560    650.28133   -7158.9792   -7086.4394     91.09633    24329.519    4.6903994 
    6570    637.27314   -7158.1591   -7087.0704    117.68881    24329.405    4.6742331 
    6580    634.05713   -7158.4172   -7087.6872     97.93356    24329.564    4.6593944 
    6590    628.46009   -7158.3529   -7088.2472    260.86518    24329.995    4.6479673 
    6600    632.80091   -7159.3331   -7088.7432    469.31852    24331.034    4.6399262 
    6610    627.67625    -7159.186   -7089.1678    813.66033    24333.195     4.638643 
    6620    626.33763    -7159.392   -7089.5231    964.48601    24337.182    4.6480694 
    6630    624.32042   -7159.4503   -7089.8064    949.25644    24343.339     4.663462 
    6640    634.88999   -7160.8566   -7090.0337    1052.4737    24351.678    4.6753002 
    6650    643.48582   -7162.0169   -7090.2351    1370.9867    24362.441    4.6786425 
    6660    632.01318   -7160.9286   -7090.4266    1758.4853     24376.32    4.6757333 
    6670    618.48108   -7159.5868   -7090.5943    1708.3799    24394.044    4.6722043 
    6680    611.37785    -7158.908   -7090.7079    1376.6565    24415.517    4.6715353 
    6690    616.79167   -7159.5645   -7090.7605    866.88892    24439.945     4.676333 
    6700    605.98744   -7158.3506   -7090.7518    551.99944    24466.189    4.6873196 
    6710    587.70073   -7156.2327   -7090.6738    324.34195    24493.453    4.6987727 
    6720    604.11575   -7157.8991    -7090.509    -321.1979     24521.05    4.7035712 
    6730    621.77905   -7159.6212   -7090.2608   -863.07519    24547.564     4.700579 
    6740    627.76246    -7160.009   -7089.9811   -971.07778    24571.782    4.6901626 
    6750    622.93939   -7159.1794   -7089.6896   -914.82769    24593.411    4.6771106 
    6760    627.74303   -7159.4201   -7089.3944   -879.92129    24612.574    4.6678644 
    6770    631.50502   -7159.5396   -7089.0943   -860.31519    24629.366    4.6672378 
    6780    626.89649   -7158.7308   -7088.7995   -588.77405    24643.938    4.6761577 
    6790    628.13047    -7158.571   -7088.5021   -579.32027    24656.826    4.6900771 
    6800    610.66976   -7156.3108   -7088.1897   -526.67735    24668.159    4.7010989 
    6810    598.33838   -7154.5935   -7087.8479   -684.91621    24677.992    4.7030227 
    6820    608.40694   -7155.3272   -7087.4585   -997.25922    24685.985    4.6969197 
    6830     610.0347   -7155.0812   -7087.0309   -1052.8629     24691.53     4.688106 
    6840    627.59173   -7156.6059   -7086.5971   -1151.8823    24694.447    4.6778238 
    6850    645.08603   -7158.1487   -7086.1884   -1148.0269    24694.608    4.6691242 
    6860    648.60715   -7158.1985   -7085.8453    -1085.531    24692.058    4.6647321 
    6870      640.183   -7156.9837   -7085.5703   -1154.8197    24686.948    4.6637974 
    6880    631.17355   -7155.7524   -7085.3441   -1152.3317    24679.216    4.6658816 
    6890    629.04459   -7155.3146   -7085.1437   -1020.2921    24668.933    4.6707321 
    6900     627.3255   -7154.9347   -7084.9556    -587.9085    24656.514    4.6766547 
    6910    630.12726    -7155.061   -7084.7694   -138.45571    24642.985    4.6824253 
    6920    639.32437   -7155.9174   -7084.5998    113.07265    24629.362    4.6888607 
    6930    617.03732   -7153.2698   -7084.4383    677.56827    24616.375    4.6948542 
    6940    625.17508   -7154.0031   -7084.2638    1039.0245    24605.218    4.6950859 
    6950    646.87543   -7156.2366   -7084.0767    912.32959     24596.66    4.6899486 
    6960    643.93044   -7155.7444   -7083.9129    613.69918    24590.416    4.6834681 
    6970    641.37552   -7155.3235   -7083.7771    387.32946    24585.766    4.6785655 
    6980    650.84301   -7156.2623   -7083.6598     355.9599     24582.17    4.6789705 
    6990    648.17387   -7155.8766   -7083.5719    659.83297    24579.589    4.6864836 
    7000    643.56638   -7155.3054   -7083.5146    820.77897    24578.597     4.697158 
    7010    649.86758   -7155.9738   -7083.4801    714.08685    24579.505    4.7070213 
    7020     656.1677   -7156.6719   -7083.4754    630.54483     24582.09    4.7155717 
    7030    663.48347   -7157.5272   -7083.5146    528.24529    24586.115    4.7198933 
    7040     679.5196   -7159.4262   -7083.6248    430.21555    24591.296    4.7186925 
    7050    674.21496   -7159.0343   -7083.8246    404.50158    24597.408    4.7155037 
    7060    664.78848   -7158.2695   -7084.1114    250.62081    24604.329    4.7118353 
    7070    655.05978   -7157.5326   -7084.4597   -19.955277    24611.679    4.7075457 
    7080    648.00937   -7157.1334    -7084.847   -343.72628    24618.833    4.7030151 
    7090    643.21283   -7157.0088   -7085.2574   -624.37042    24625.044    4.6999947 
    7100    633.99122   -7156.3941   -7085.6715   -703.83829    24629.712     4.697763 
    7110    638.37069   -7157.2832   -7086.0719   -759.90869    24632.628    4.6944982 
    7120    638.46508    -7157.679   -7086.4573   -676.51426    24633.718    4.6917348 
    7130    635.68558   -7157.7344   -7086.8227    -385.6572    24633.235    4.6915212 
    7140    630.11489   -7157.4506   -7087.1603    283.72466    24631.946    4.6920576 
    7150    622.48112   -7156.8954   -7087.4567    858.85974    24631.348    4.6889868 
    7160    623.54082   -7157.2608   -7087.7039    963.99925      24632.7    4.6810734 
    7170    628.47686   -7158.0116   -7087.9041    949.82717    24636.287    4.6713598 
    7180    636.29459   -7159.0514   -7088.0718    1012.6013    24642.087    4.6642351 
    7190    638.47683   -7159.4453   -7088.2222     894.5566    24650.138    4.6645233 
    7200    633.19201   -7158.9897   -7088.3562     711.2902    24660.157    4.6724817 
    7210     640.0228   -7159.8716   -7088.4761    567.95931    24671.688    4.6837588 
    7220    654.33064   -7161.5835   -7088.5919    499.21878     24684.38    4.6947896 
    7230    659.50569   -7162.3017   -7088.7328    467.05049    24698.037    4.7039806 
    7240    641.68668   -7160.4723   -7088.8912     353.4607    24712.558    4.7099812 
    7250     641.9992     -7160.66    -7089.044   -111.98189    24727.599    4.7135622 
    7260    647.85396   -7161.4541    -7089.185   -580.31608    24742.126    4.7185221 
    7270    643.26002   -7161.0839   -7089.3273   -925.19008    24755.039    4.7269046 
    7280    632.22665   -7159.9855   -7089.4597   -1085.1645    24765.579    4.7373876 
    7290    626.55098   -7159.4592   -7089.5665   -1357.5507    24773.328    4.7509573 
    7300    623.75122   -7159.2178   -7089.6374   -1618.8661    24777.698    4.7682347 
    7310    629.53968   -7159.9069   -7089.6808   -1687.8177    24778.142    4.7872457 
    7320    624.01383   -7159.3136   -7089.7039   -1364.9099    24774.612    4.8072458 
    7330    606.07621   -7157.3003   -7089.6916   -688.08325    24767.965     4.826579 
    7340    617.43774   -7158.5053   -7089.6291   -451.27639    24759.684    4.8421919 
    7350    631.75124   -7160.0024   -7089.5296   -611.90252    24750.363    4.8533763 
    7360    623.73974   -7159.0002   -7089.4211   -700.91587    24739.757    4.8619582 
    7370    623.10796   -7158.8109   -7089.3023   -716.96444    24727.678     4.870622 
    7380     626.7691   -7159.0828   -7089.1658   -707.02789    24714.071    4.8801723 
    7390    621.18755   -7158.3094    -7089.015   -418.00027     24699.06    4.8883929 
    7400    631.64027   -7159.3107   -7088.8503   -364.71346    24683.247    4.8917727 
    7410    647.15023   -7160.8793   -7088.6887   -710.84541    24666.734    4.8908746 
    7420    636.44173   -7159.5475   -7088.5515   -691.97123    24648.891    4.8900856 
    7430    628.07321   -7158.4884   -7088.4259   -394.62584    24629.746    4.8919242 
    7440     635.1318   -7159.1434   -7088.2935   -199.08286    24609.938    4.8986884 
    7450    636.66101   -7159.1785    -7088.158    92.658292     24590.01     4.910079 
    7460    641.08804   -7159.5434    -7088.029    367.26531    24570.625    4.9192728 
    7470    639.51458    -7159.247   -7087.9082    505.53437    24552.385    4.9224139 
    7480    623.83573   -7157.3822   -7087.7924    654.81462    24535.634    4.9247108 
    7490    618.06444   -7156.6057   -7087.6597    801.69084    24520.691    4.9338336 
    7500    621.67995   -7156.8433    -7087.494    1007.8849    24507.885    4.9496813 
    7510    617.50241   -7156.1736   -7087.2902    1218.9805    24497.669    4.9645584 
    7520    630.00152   -7157.3379   -7087.0603    1024.0879    24490.396    4.9724467 
    7530    637.36526    -7157.914    -7086.815    693.47636    24485.631    4.9746066 
    7540    639.05318   -7157.8596   -7086.5723    501.86418    24482.617    4.9742538 
    7550    645.14921   -7158.3081   -7086.3408    232.87679    24480.793    4.9731476 
    7560    653.61717   -7159.0461   -7086.1341    75.617596    24479.588    4.9723965 
    7570    655.18549   -7159.0551   -7085.9682     171.9792     24478.64    4.9726778 
    7580    651.21277   -7158.4906   -7085.8469    305.25038    24478.125    4.9752323 
    7590    647.60785   -7158.0024   -7085.7608    194.88861    24478.291    4.9821587 
    7600    643.92729   -7157.5315   -7085.7005    123.38936    24478.937    4.9922553 
    7610     637.2958   -7156.7428   -7085.6515    77.627359    24479.883    5.0020011 
    7620    633.12043   -7156.2308   -7085.6052    65.382817    24481.011    5.0107369 
    7630    635.14813   -7156.4049   -7085.5532   -20.949605    24482.277    5.0181257 
    7640    646.02559   -7157.5681   -7085.5029   -307.18387    24483.442    5.0247361 
    7650    637.98536   -7156.6298   -7085.4616   -324.92759    24483.934     5.034875 
    7660     644.8725    -7157.365   -7085.4285   -169.67713      24483.7    5.0488223 
    7670    670.71674   -7160.2403   -7085.4208   -269.40055     24483.01    5.0650284 
    7680    663.82245   -7159.5295   -7085.4791   -397.88824    24481.697    5.0842992 
    7690    644.24229   -7157.4669   -7085.6007   -614.62345    24479.455     5.102932 
    7700    645.84529   -7157.8075   -7085.7624   -1175.1076    24475.725     5.115964 
    7710    650.69929   -7158.5591   -7085.9726   -1593.9275     24469.32    5.1257655 
    7720    646.74064   -7158.4089    -7086.264   -1603.3499     24459.33    5.1366623 
    7730     619.7872    -7155.776   -7086.6378   -1324.1522     24445.74    5.1500993 
    7740    594.79749   -7153.4071   -7087.0565   -911.49814    24429.222    5.1632624 
    7750     606.8865   -7155.2119   -7087.5128   -776.06283    24410.689    5.1727285 
    7760    613.65722   -7156.4893   -7088.0349   -694.59261    24390.517    5.1793094 
    7770    615.67413   -7157.3099   -7088.6306   -588.08929    24368.933     5.184182 
    7780    628.46382   -7159.4073   -7089.3012    -499.6834    24346.221    5.1837458 
    7790    630.21468   -7160.3434    -7090.042   -276.99133    24322.613     5.174835 
    7800    608.60695   -7158.6633   -7090.7723    104.90916     24298.64    5.1599198 
    7810    611.28207   -7159.6135   -7091.4241    212.66626    24275.085    5.1435553 
    7820    631.12358   -7162.4044   -7092.0017    290.91027    24252.256    5.1323587 
    7830    633.76833   -7163.2149   -7092.5171    647.74851    24230.375    5.1320796 
    7840    626.44053   -7162.8417   -7092.9613    1324.2714    24210.272    5.1407785 
    7850    615.83372   -7162.0178   -7093.3206    1935.3353    24193.394    5.1515416 
    7860     609.8533    -7161.626    -7093.596    2172.8979    24181.053    5.1580271 
    7870    604.14445   -7161.1815   -7093.7882    1972.6556    24173.732    5.1566836 
    7880      609.587   -7161.9103   -7093.9099    1687.3813    24170.963    5.1485229 
    7890    616.18934   -7162.7061   -7093.9692    1789.6994    24172.181    5.1412193 
    7900     633.2966   -7164.6324   -7093.9872    1709.6711    24177.468    5.1416739 
    7910    640.86962   -7165.4838   -7093.9939    1410.3393    24186.599    5.1520705 
    7920    628.22246    -7164.079   -7093.9998     1252.643    24198.956     5.167528 
    7930    638.79185   -7165.2624   -7094.0042    719.06626    24214.027    5.1825846 
    7940    631.69411   -7164.4715   -7094.0051     304.4127    24230.698    5.1975215 
    7950    604.53501   -7161.4258   -7093.9891    104.70991    24248.017    5.2111166 
    7960    610.21551   -7161.9833   -7093.9128   -275.45899    24265.432    5.2189783 
    7970    636.81763   -7164.8068   -7093.7688   -683.96632    24282.091    5.2200513 
    7980    628.71031   -7163.7266    -7093.593   -471.15655    24297.188    5.2202812 
    7990    613.73734   -7161.8664   -7093.4031   -12.491754    24311.132    5.2260621 
    8000    614.23564   -7161.6822   -7093.1633    222.00789    24324.903    5.2359564 
    8010    616.08978   -7161.5857     -7092.86    385.32868    24339.094    5.2461738 
    8020    625.26292   -7162.2523   -7092.5033    146.08842     24353.98    5.2564597 
    8030    611.94084   -7160.3584   -7092.0955   -30.720231    24369.109    5.2691214 
    8040    605.25197   -7159.1561   -7091.6393    -121.5865    24384.066    5.2840758 
    8050    616.64227   -7159.9011   -7091.1137   -389.61475    24398.578    5.3003097 
    8060     621.2487    -7159.843   -7090.5418     -593.181    24412.072    5.3198823 
    8070    624.67304   -7159.6539   -7089.9707   -564.72008    24424.125    5.3425553 
    8080    629.38115   -7159.6388   -7089.4304   -359.46055    24434.777    5.3623093 
    8090    638.20267   -7160.1405   -7088.9481   -214.95648    24444.481    5.3745458 
    8100    638.07412   -7159.7143   -7088.5361   -323.98981     24453.55      5.37988 
    8110    640.50095   -7159.6444   -7088.1956   -495.05149    24461.762    5.3796842 
    8120    644.42844   -7159.8039    -7087.917   -314.71232    24468.825    5.3765305 
    8130    638.72937   -7158.9484   -7087.6971    91.379906    24475.157    5.3756648 
    8140    634.57132   -7158.3068   -7087.5194     141.5769    24481.572    5.3790236 
    8150    635.76439   -7158.2862   -7087.3657    210.96426    24488.285    5.3849751 
    8160    638.14739   -7158.4165   -7087.2302    260.86081     24495.43    5.3909753 
    8170    641.13808   -7158.6333   -7087.1134    182.78128    24503.107    5.3958536 
    8180    646.82635   -7159.1712   -7087.0167    72.010138    24511.169    5.4005657 
    8190    651.20556   -7159.5902   -7086.9472    17.594991     24519.36    5.4054733 
    8200    649.76506   -7159.3914   -7086.9091    104.91333    24527.566     5.408971 
    8210    657.57275   -7160.2576   -7086.9044    63.339696     24535.91    5.4082635 
    8220    671.37742    -7161.845   -7086.9518    153.67869    24544.368    5.4033155 
    8230    662.69481   -7160.9919   -7087.0673    505.28971    24553.189    5.3981683 
    8240    650.50833   -7159.8062    -7087.241    804.76342    24563.145    5.3981066 
    8250    644.69638   -7159.3625   -7087.4457    767.38148    24574.877    5.4064913 
    8260    636.97798   -7158.7165   -7087.6606    507.52612    24588.338    5.4207515 
    8270    634.45886   -7158.6447   -7087.8699   -97.806645    24602.854    5.4354913 
    8280    633.01127   -7158.6797   -7088.0664   -606.41213    24617.077    5.4482803 
    8290    626.82664   -7158.1726   -7088.2491   -799.21579    24629.851    5.4575818 
    8300    616.59077   -7157.1879   -7088.4062   -762.80521     24640.71    5.4628275 
    8310    619.93859   -7157.6828   -7088.5277   -848.52246    24649.663    5.4665787 
    8320    625.38231   -7158.3791   -7088.6167   -938.17237    24656.551    5.4715997 
    8330    620.71439   -7157.9208   -7088.6792   -887.96807    24661.205    5.4779552 
    8340    623.55186   -7158.2679   -7088.7097   -951.68301    24663.693    5.4859441 
    8350    636.61641   -7159.7344   -7088.7189   -1097.1322    24663.871    5.4969839 
    8360    631.65697   -7159.1787   -7088.7164   -905.49778    24661.513    5.5108131 
    8370    639.75596   -7160.0774   -7088.7116   -770.92522     24656.99    5.5240804 
    8380    645.30628   -7160.6925   -7088.7076   -761.07037    24650.625    5.5363929 
    8390    644.53648   -7160.6205   -7088.7215   -556.81033    24642.514    5.5492844 
    8400    644.24197   -7160.6221    -7088.756   -346.15584    24633.084    5.5641164 
    8410    637.69589   -7159.9425   -7088.8065   -32.073274    24622.905    5.5797463 
    8420    637.72005   -7160.0099   -7088.8713     114.0166    24612.636    5.5901865 
    8430    630.85288   -7159.3145   -7088.9419    85.977519    24602.632    5.5926647 
    8440    627.32294   -7158.9915   -7089.0127   -149.60459    24592.816    5.5912278 
    8450    624.23822   -7158.7067    -7089.072    -307.1971    24582.698    5.5934302 
    8460    616.01799    -7157.826   -7089.1083   -448.19324    24571.871    5.6011234 
    8470    620.63325   -7158.3379   -7089.1053   -511.47982    24560.017    5.6106137 
    8480    639.63422   -7160.4196   -7089.0675   -537.91002    24546.979    5.6169146 
    8490    649.47055   -7161.4711   -7089.0217   -510.16708    24532.695     5.616608 
    8500    645.51217   -7160.9969    -7088.989   -206.59245    24517.296    5.6106426 
    8510    639.97459   -7160.3589   -7088.9688    151.41113    24501.439    5.6023928 
    8520    636.78913   -7159.9814   -7088.9466    366.36617    24485.947    5.5966371 
    8530    643.65983   -7160.7278   -7088.9265   -54.224182    24471.174    5.5976465 
    8540    642.50211   -7160.5877   -7088.9156   -351.70667    24456.337    5.6078579 
    8550    636.81515   -7159.9525   -7088.9148   -178.77981    24440.814    5.6268087 
    8560    639.21088   -7160.2202   -7088.9152    10.953063    24424.899    5.6486107 
    8570    633.06742   -7159.5309   -7088.9113    218.58826    24409.058    5.6658365 
[...]
   22890    628.14176   -7153.0475   -7082.9774   -630.71377    24231.672     17.67684 
   22900    627.40243   -7153.0007    -7083.013   -514.64231      24213.9    17.683548 
   22910    632.36201   -7153.5678   -7083.0269   -441.33417    24194.907    17.700467 
   22920    638.30403   -7154.2347    -7083.031   -293.01196    24174.902    17.722673 
   22930    634.31865   -7153.7905   -7083.0313    11.888588    24154.253    17.745177 
   22940    626.34307   -7152.8868   -7083.0173    411.33928    24133.655    17.764788 
   22950    632.23271   -7153.5047   -7082.9782    358.84683      24113.9     17.78209 
   22960    644.44278   -7154.8133   -7082.9247    167.44045    24094.939    17.798869 
   22970    650.54823   -7155.4474   -7082.8778    278.37274    24076.407    17.815229 
   22980    651.16798   -7155.4905   -7082.8518    494.77886    24058.518    17.833011 
   22990    651.96101   -7155.5822    -7082.855    471.10596    24041.695    17.856622 
   23000    649.93155   -7155.3975   -7082.8967    670.59631     24026.01    17.886663 
   23010    637.37789   -7154.0705   -7082.9701    1144.1204      24011.9    17.917249 
   23020    626.63176   -7152.9612   -7083.0595    1563.2731    24000.358    17.942762 
   23030    618.39118   -7152.1244    -7083.142    1936.1549    23992.357    17.964402 
   23040    624.98425   -7152.9238   -7083.2059    2082.9346    23988.702    17.982182 
   23050     640.2362   -7154.6814   -7083.2621    1939.5038    23989.722     17.99257 
   23060    640.76677   -7154.8176   -7083.3391    1747.6165    23995.123     17.99789 
   23070    630.92484   -7153.8196    -7083.439    1747.6129    24004.549    18.002663 
   23080    636.86718   -7154.6027   -7083.5592    1763.1088    24017.987    18.007232 
   23090     637.1148   -7154.7653   -7083.6942    1787.6728    24035.503    18.009224 
   23100    653.11817   -7156.7207   -7083.8644    1594.3942    24057.111    18.006478 
   23110    658.59334   -7157.5561   -7084.0891    1429.5683    24082.448    18.001805 
   23120    658.43519   -7157.8372   -7084.3878    1092.7438    24111.123    17.996878 
   23130    658.76818   -7158.2493   -7084.7627     334.7376    24142.323    17.996169 
   23140    645.71406   -7157.2239   -7085.1935   -268.45139    24174.439    18.002302 
   23150    635.55946   -7156.5509   -7085.6533   -697.26725    24206.048    18.012278 
   23160    628.43078   -7156.2134    -7086.111   -661.25903    24236.227    18.024038 
   23170    631.57614   -7157.0096   -7086.5563   -443.09546    24264.967    18.035699 
   23180    630.06096   -7157.2689   -7086.9846   -408.10584    24292.665     18.04641 
   23190    618.44368    -7156.359   -7087.3707   -319.09394     24319.46    18.058576 
   23200    629.82936   -7157.9701   -7087.7117   -467.87148    24345.462    18.073373 
   23210    636.91935   -7159.0704   -7088.0211   -626.11882    24370.392    18.091314 
   23220    637.80354   -7159.4671   -7088.3192    -782.2295    24393.866    18.111391 
   23230    637.04448   -7159.6766   -7088.6133    -943.5832    24415.497    18.134175 
   23240    622.34694   -7158.3111   -7088.8874   -951.90907     24434.95    18.164705 
   23250    618.61122   -7158.1315   -7089.1245     -1103.78     24452.12    18.205459 
   23260    612.41462   -7157.6279   -7089.3122   -1185.4197    24466.709    18.248517 
   23270    607.12467   -7157.1655   -7089.4398   -1408.3017    24478.474    18.279598 
   23280    617.30655   -7158.3717   -7089.5102   -1599.9275    24486.933     18.29479 
   23290    617.75169   -7158.4481    -7089.537   -1424.7008    24491.704     18.29771 
   23300    607.67371     -7157.31   -7089.5231   -1227.2365    24493.112    18.288091 
   23310    597.98222   -7156.1534   -7089.4476    -1126.383    24491.612    18.267879 
   23320    606.96061   -7157.0026   -7089.2952   -1078.7241    24487.432    18.248436 
   23330    623.38709   -7158.6107   -7089.0709   -946.19719    24480.729    18.242169 
   23340    625.86606   -7158.6161   -7088.7998   -779.15687    24471.796    18.255051 
   23350    621.43297   -7157.8135   -7088.4917    -656.5505    24460.995    18.287676 
   23360     630.4364   -7158.4661     -7088.14   -487.39906    24448.665    18.332174 
   23370    645.53205   -7159.7681    -7087.758   -431.67911    24435.149    18.375224 
   23380    635.75322   -7158.2921   -7087.3729   -356.00774    24420.618     18.41423 
   23390     622.3733   -7156.4167     -7086.99   -379.57775     24405.22    18.455347 
   23400    624.50243   -7156.2477   -7086.5835   -490.75322     24388.91    18.498856 
   23410    627.86845   -7156.1915   -7086.1518    -499.7434    24371.443    18.537065 
   23420    623.88023   -7155.3031   -7085.7083   -188.95724    24352.851    18.560898 
   23430     625.6934   -7155.0535   -7085.2565    250.33455    24333.829     18.56867 
   23440    635.02019    -7155.643   -7084.8056    420.06752    24315.311    18.573331 
   23450    643.37723   -7156.1526   -7084.3829    617.89088    24297.763    18.586051 
   23460    654.03607   -7156.9753   -7084.0166     786.2504    24281.616    18.607185 
   23470    672.97099   -7158.8019   -7083.7309    805.77621    24267.234    18.634518 
   23480    681.02637   -7159.5246   -7083.5551    895.79139    24254.716    18.661084 
   23490    668.62151   -7158.0799   -7083.4941    1050.9422    24244.264    18.679846 
   23500    658.77567   -7156.9987   -7083.5113    1228.0286    24236.244    18.687639 
   23510    660.78314   -7157.2894   -7083.5781    1331.2876    24231.048    18.687822 
   23520    646.93467   -7155.8468   -7083.6803    1141.3181    24228.853    18.690932 
   23530    634.66092   -7154.5795   -7083.7821    793.64105    24229.287    18.701626 
   23540    637.52186   -7154.9862   -7083.8697    196.70882    24231.511     18.71882 
   23550    625.74729   -7153.7366   -7083.9335   -403.59817    24234.222    18.741364 
   23560    622.45154   -7153.4068   -7083.9714   -1077.6032    24235.995     18.76438 
   23570     626.6887   -7153.8868   -7083.9788   -1363.2041    24235.367    18.783333 
   23580     632.7867   -7154.5539   -7083.9656   -1190.5224    24231.676    18.797657 
   23590    636.56411   -7154.9534   -7083.9437   -1047.4015    24225.198    18.815681 
   23600    639.40894   -7155.2477   -7083.9207   -929.09671    24216.273    18.848309 
   23610    639.31936   -7155.2226   -7083.9056   -751.56795    24205.171     18.89516 
   23620    626.56204    -7153.782    -7083.888   -316.45395    24192.337    18.946865 
   23630    626.26046   -7153.7126   -7083.8523    66.149982    24178.697      18.9895 
   23640    634.76234   -7154.6013   -7083.7926    349.25443    24165.132    19.011623 
   23650    642.84489   -7155.4346   -7083.7243    588.00922    24152.299    19.014747 
   23660    661.88053   -7157.5055   -7083.6717    821.28757    24140.758    19.007274 
   23670    676.83941   -7159.1784    -7083.676    980.17977    24131.023    18.996431 
   23680    659.65756   -7157.3465   -7083.7607    1428.9294     24123.58    18.986895 
   23690    644.93548   -7155.8367   -7083.8932    1547.5743    24119.316    18.982356 
   23700    659.40359   -7157.6247   -7084.0672     1228.074    24118.502    18.982853 
   23710    638.37731   -7155.4897   -7084.2777    1114.3147    24120.579    18.990563 
   23720    626.98166   -7154.4411   -7084.5003    582.57497    24125.136    19.008255 
   23730    640.28512   -7156.1363   -7084.7115    -148.2907    24131.055    19.031828 
   23740    649.37866   -7157.3825   -7084.9433   -748.89686    24136.698    19.054027 
   23750    639.01502   -7156.4912   -7085.2081   -909.45294    24140.761    19.067696 
   23760    643.07636   -7157.2427   -7085.5066   -1152.8295    24142.745    19.070115 
   23770    643.57528   -7157.6398    -7085.848   -1377.6656    24142.099    19.069432 
   23780    624.86104   -7155.9251   -7086.2209   -1188.9838    24138.357    19.073869 
   23790    612.11017   -7154.8771   -7086.5952   -688.27636    24131.892    19.087201 
   23800     605.5854   -7154.4963   -7086.9424   -20.019673    24123.839    19.109594 
   23810      603.721   -7154.5929   -7087.2469    205.94101    24115.585    19.136359 
   23820    618.25213   -7156.4878   -7087.5209    62.397136    24107.669    19.163955 
   23830    633.74921   -7158.4914   -7087.7957   -22.601954    24099.838    19.193008 
   23840    630.42413   -7158.4198    -7088.095    164.23091    24091.949    19.220057 
   23850    630.12482   -7158.7209   -7088.4296    224.01666    24084.341    19.235335 
   23860    633.33249   -7159.4545   -7088.8053    278.89121    24077.198    19.240266 
   23870    629.40182   -7159.4507     -7089.24    593.17027    24070.692    19.247568 
   23880    619.01835    -7158.773   -7089.7206    939.08987    24065.516    19.266512 
   23890    623.04183   -7159.7492   -7090.2479    701.49202    24062.328    19.294935 
   23900    615.90155   -7159.5148     -7090.81    243.77945    24060.688    19.327124 
   23910    610.93085   -7159.5321   -7091.3818   -318.99107    24059.561    19.355934 
   23920     603.3465   -7159.2357   -7091.9314   -694.71844    24057.737    19.380868 
   23930    593.94575   -7158.6771   -7092.4216   -717.76169    24054.373    19.404373 
   23940    591.18206   -7158.7774   -7092.8302   -399.76583     24049.41     19.43129 
   23950    577.56317   -7157.5614   -7093.1333    39.284009    24043.518    19.471043 
   23960    565.82949   -7156.4256   -7093.3065    352.98203     24037.65    19.522427 
   23970     563.7085   -7156.2191   -7093.3366    460.19753    24032.513    19.573198 
   23980    566.80825   -7156.4518   -7093.2235    361.18258    24028.336    19.616462 
   23990    580.81251   -7157.7585   -7092.9679    107.90595    24024.906    19.655605 
   24000    600.11347   -7159.5219   -7092.5783    34.932108    24021.726    19.698517 
   24010    616.27064   -7160.8322   -7092.0862    140.75106    24018.643    19.750973 
   24020    626.85785   -7161.4657   -7091.5388    323.37481    24015.888    19.811986 
   24030    626.21126   -7160.8327   -7090.9779    468.63942    24013.842    19.877723 
   24040    633.79946   -7161.1328   -7090.4315    335.34692    24012.793    19.944581 
   24050    643.49161   -7161.7068   -7089.9244    313.41804    24012.535    20.006681 
   24060    647.25473   -7161.6959   -7089.4937    515.51438    24013.039    20.060263 
   24070    643.69822   -7160.9593   -7089.1538    789.45769    24014.733    20.108843 
   24080    636.43286   -7159.8887   -7088.8936    999.30667    24018.227    20.166604 
   24090    637.97218   -7159.8638   -7088.6971    1002.3651    24023.983    20.242948 
   24100    626.09358   -7158.3895   -7088.5478    1073.4241    24032.093    20.333249 
   24110    606.70953   -7156.0926   -7088.4132    1402.4448    24042.792    20.425271 
   24120    616.68477   -7157.0517   -7088.2596    1231.9233    24056.665    20.506313 
   24130    629.11044   -7158.2582     -7088.08    922.97176    24073.439    20.572128 
   24140    617.70692   -7156.8007   -7087.8946    1087.7885    24092.538    20.619137 
   24150    607.53443   -7155.4603   -7087.6889    1436.0369    24114.312    20.643036 
   24160    619.56407   -7156.5654   -7087.4521    1337.4831    24139.439    20.648062 
   24170     621.1911   -7156.4864   -7087.1916    895.74483     24167.76    20.645845 
   24180    620.61251   -7156.1466   -7086.9163    74.458099    24198.224    20.653619 
   24190    626.44797   -7156.4996   -7086.6184   -571.79553     24229.06    20.682066 
   24200    631.80923   -7156.7855   -7086.3062   -729.81451    24258.821    20.725512 
   24210    639.38046   -7157.3249   -7086.0011   -582.88934    24287.089     20.77318 
   24220    643.26204    -7157.469   -7085.7121   -429.14121    24314.138     20.81614 
   24230     642.4473   -7157.1157   -7085.4498   -244.99356    24340.315    20.845218 
   24240    629.57354   -7155.4372   -7085.2073   -68.164246    24366.016    20.854048 
   24250    636.99319   -7156.0302   -7084.9726   -47.094381     24391.62    20.843327 
   24260    651.92982   -7157.4619   -7084.7381   -308.62343    24417.141    20.826307 
   24270    658.61713   -7158.0008    -7084.531   -599.45676    24442.044    20.817028 
   24280    651.43152   -7157.0338   -7084.3656   -1039.8776    24465.595    20.822512 
   24290    656.16341   -7157.4324   -7084.2364   -1637.2058    24486.728    20.839748 
   24300    663.61268   -7158.1723   -7084.1453    -2094.713    24504.079    20.856993 
   24310     648.5256   -7156.4518   -7084.1078   -2330.0364    24516.571    20.868819 
   24320    619.73458   -7153.2285   -7084.0962   -2407.3325     24523.62    20.875877 
   24330    621.41716   -7153.3903   -7084.0703    -2585.956    24524.943    20.877214 
   24340    624.82979   -7153.7198   -7084.0191   -2416.7397    24520.216    20.878134 
   24350    608.56182    -7151.821    -7083.935   -2148.4981     24509.77    20.889816 
   24360    611.40634   -7152.0018   -7083.7985   -2294.0096    24494.111    20.914857 
   24370    627.25777   -7153.5733   -7083.6017   -2270.3508    24473.026    20.947221 
   24380    635.15815   -7154.2131   -7083.3602    -1777.404    24446.621    20.978317 
   24390    641.97741   -7154.7007   -7083.0872   -1244.3784    24415.974    21.000143 
   24400    653.78537   -7155.7246   -7082.7939   -964.50172    24382.284    21.009952 
   24410    653.38523   -7155.3849   -7082.4988   -605.63028    24346.306    21.012713 
   24420    651.99744   -7154.9413     -7082.21   -331.68005    24308.877     21.01587 
   24430     658.4094   -7155.3761   -7081.9295   -189.56662    24270.657     21.02321 
   24440    650.12846   -7154.1843   -7081.6615   -23.475407    24232.002    21.031744 
   24450     657.4175   -7154.7424   -7081.4065    65.165418    24193.284    21.032033 
   24460    673.91327   -7156.3445   -7081.1685    223.10262    24154.789    21.020147 
   24470    677.47486   -7156.5524    -7080.979    677.27559    24116.954    21.001551 
   24480    665.29403   -7155.0673   -7080.8527    1090.3678    24080.725    20.989458 
   24490    647.58938   -7153.0143   -7080.7747    1281.9173    24047.038    20.984402 
   24500    648.09587   -7153.0182   -7080.7221    1268.0305    24016.339    20.976602 
   24510    660.31106   -7154.3582   -7080.6995    1088.7527    23988.573    20.963658 
   24520    659.75703   -7154.3315   -7080.7346    931.53631    23963.345    20.947921 
   24530    654.94672   -7153.8954   -7080.8351    858.66531     23940.31    20.927276 
   24540    664.56168   -7155.1487   -7081.0158      863.239    23919.283      20.9033 
   24550    657.69325   -7154.6611   -7081.2944    1282.9263    23900.338    20.883776 
   24560    647.75049   -7153.9289   -7081.6714    1620.6851    23884.284    20.872651 
   24570    655.29893   -7155.2397   -7082.1401    1666.5924    23871.869    20.866129 
   24580    670.04848   -7157.4718   -7082.7269     1517.313    23863.182    20.862679 
   24590    661.74146   -7157.2437   -7083.4255    1524.6828    23857.974    20.861186 
   24600    648.84795   -7156.5601   -7084.1801    1316.4272    23856.155    20.853415 
   24610    642.14953    -7156.559   -7084.9262    1132.4212     23857.31     20.83061 
   24620    629.98506   -7155.8844   -7085.6086     914.5507    23860.991    20.798101 
   24630    616.52748   -7154.9536    -7086.179    556.80524    23866.699    20.770455 
   24640    618.60912   -7155.6319   -7086.6251    149.55364    23873.647    20.754825 
   24650    629.28177   -7157.1714    -7086.974    82.801205    23881.017    20.748988 
   24660    635.73222   -7158.1842   -7087.2673    242.74726    23888.623    20.742624 
   24670     626.7768   -7157.4394   -7087.5215    550.35455     23896.81    20.727705 
   24680    608.83024   -7155.6398   -7087.7239    801.90102    23906.219    20.707049 
   24690    599.19966   -7154.6915   -7087.8499    935.82253     23917.43     20.68446 
   24700    605.89497   -7155.4833   -7087.8948    953.59185    23930.762    20.659172 
   24710    613.70461   -7156.3357   -7087.8761    878.57037    23946.259    20.627578 
   24720    603.09604   -7155.0785   -7087.8023    762.81225    23963.766    20.591086 
   24730    606.47591   -7155.3157   -7087.6624    511.12826    23983.011     20.55763 
   24740    627.33953   -7157.4387    -7087.458    350.45908    24003.495    20.529956 
   24750    620.02879   -7156.3799   -7087.2147    414.19238    24024.894    20.503915 
   24760    623.10355   -7156.4541   -7086.9459    330.11595    24047.257      20.4738 
   24770    628.94976   -7156.8006   -7086.6403    203.42369    24070.421    20.435868 
   24780     626.2073   -7156.1692   -7086.3148    225.00245    24094.148     20.38817 
   24790    618.84973   -7155.0056    -7085.972    248.70306    24118.431    20.334758 
   24800    610.05882    -7153.653   -7085.6001    391.06664    24143.362    20.283866 
   24810    608.19325   -7153.0336   -7085.1887    408.23914    24169.226     20.24365 
   24820    615.64673   -7153.4035   -7084.7272   -35.539293    24195.993    20.217111 
   24830    633.04183   -7154.8496   -7084.2328   -629.68433    24222.695    20.197202 
   24840    637.49124   -7154.8548   -7083.7417   -881.49162    24248.056    20.178714 
   24850    645.63894   -7155.3138   -7083.2918   -994.34154    24271.433    20.157639 
   24860    654.54826   -7155.9146   -7082.8988   -1047.5155    24292.538    20.130234 
   24870    645.15699    -7154.546   -7082.5778   -810.83465    24311.307    20.100297 
   24880    641.00007   -7153.8225   -7082.3179   -910.99165    24328.125    20.073362 
   24890    637.61511   -7153.2167   -7082.0898   -1224.2014    24342.801    20.050715 
   24900    647.33986   -7154.0988    -7081.887   -1369.7618    24354.694    20.032139 
   24910    661.29358   -7155.4933    -7081.725   -1413.7326    24363.425    20.016022 
   24920    661.43928    -7155.412   -7081.6274   -1234.7891    24368.916    20.003226 
   24930    651.54935   -7154.2731   -7081.5918   -981.47964    24371.554    19.998172 
   24940    653.11503   -7154.4536   -7081.5976   -1132.6646     24371.83    20.006312 
   24950    650.98053   -7154.2567   -7081.6388   -1618.7197    24369.388    20.029072 
   24960    639.25041   -7153.0156   -7081.7062   -1854.4954    24363.225     20.05753 
   24970    650.67479   -7154.3793   -7081.7955   -2113.4927    24352.697    20.081567 
   24980    655.21581   -7155.0149   -7081.9245   -2113.3576     24337.27    20.102966 
   24990     637.4531   -7153.1919    -7082.083   -1776.7095    24316.947      20.1237 
   25000    636.13157   -7153.2086   -7082.2472    -1516.735    24292.419    20.137991 
Loop time of 15128 on 16 procs for 20000 steps with 864 atoms

Performance: 0.114 ns/day, 210.111 hours/ns, 1.322 timesteps/s
97.5% CPU use with 16 MPI tasks x 1 OpenMP threads

MPI task timing breakdown:
Section |  min time  |  avg time  |  max time  |%varavg| %total
---------------------------------------------------------------
Pair    | 12898      | 13744      | 15107      | 532.4 | 90.85
Bond    | 0.0036013  | 0.0082022  | 0.016437   |   4.4 |  0.00
Neigh   | 0.28254    | 0.31216    | 0.37561    |   4.2 |  0.00
Comm    | 12.145     | 1089.4     | 1837.6     |1623.7 |  7.20
Output  | 1.3244     | 1.3487     | 1.704      |   7.9 |  0.01
Modify  | 6.5753     | 293.15     | 560.08     |1355.5 |  1.94
Other   |            | 0.2395     |            |       |  0.00

Nlocal:        54.0000 ave          64 max          46 min
Histogram: 3 1 1 2 2 2 2 1 1 1
Nghost:        454.312 ave         517 max         408 min
Histogram: 2 2 3 1 1 1 4 1 0 1
Neighs:         0.00000 ave           0 max           0 min
Histogram: 16 0 0 0 0 0 0 0 0 0
FullNghs:      1897.00 ave        2564 max        1503 min
Histogram: 3 2 1 3 2 2 2 0 0 1

Total # of neighbors = 30352
Ave neighs/atom = 35.129630
Ave special neighs/atom = 0.0000000
Neighbor list builds = 2000
Dangerous builds = 2000
Total wall time: 5:10:16
