LAMMPS (29 Sep 2021 - Update 3)
OMP_NUM_THREADS environment is not set. Defaulting to 1 thread. (src/comm.cpp:98)
  using 1 OpenMP thread(s) per MPI task
units	metal
atom_style	full

read_data	mixed.data
Reading data file ...
  orthogonal box = (0.0000000 0.0000000 0.0000000) to (15.502212 15.402052 70.841525)
  2 by 1 by 8 MPI processor grid
  reading atoms ...
  864 atoms
Finding 1-2 1-3 1-4 neighbors ...
  special bond factors lj:    0        0        0       
  special bond factors coul:  0        0        0       
     0 = max # of 1-2 neighbors
     0 = max # of 1-3 neighbors
     0 = max # of 1-4 neighbors
     1 = max # of special neighbors
  special bonds CPU = 0.005 seconds
  read_data CPU = 0.023 seconds

pair_style	quip
pair_coeff	* * /ocean/projects/cts180021p/wuziqi/clease/mint-PD/PhaseDiagram-Clease/Liquid/GAP_potential/gap_LiKCl.xml "Potential xml_label=GAP_2021_9_27_0_1_17_37_618" 17 19 3

neighbor	0.3 bin
neigh_modify	delay 10

timestep	0.001
compute	msd all msd
thermo_style	custom step temp pe etotal press vol c_msd[4]
thermo	10
dump	1 all custom 10 xyz-mix.dump type id x y z
dump	2 all custom 10 force-mix.dump type id fx fy fz

fix     1 all nve
run     2000
Neighbor list info ...
  update every 1 steps, delay 10 steps, check yes
  max neighbors/atom: 2000, page size: 100000
  master list distance cutoff = 6.22
  ghost atom cutoff = 6.22
  binsize = 3.11, bins = 5 5 23
  1 neighbor lists, perpetual/occasional/extra = 1 0 0
  (1) pair quip, perpetual
      attributes: full, newton on
      pair build: full/bin
      stencil: full/bin/3d
      bin: standard
Per MPI rank memory allocation (min/avg/max) = 8.904 | 8.909 | 8.916 Mbytes
Step Temp PotEng TotEng Press Volume c_msd[4] 
       0            0   -6414.6092   -6414.6092   -8996.9866    16914.539            0 
      10    95.860065   -6425.3161   -6414.6228   -10882.275    16914.539 0.00077933166 
      20    229.03731    -6440.185   -6414.6355   -12475.142    16914.539 0.0093775226 
      30    249.34477   -6442.4428    -6414.628     -10213.3    16914.539  0.030212741 
      40    248.24655    -6442.315   -6414.6227   -8336.8682    16914.539  0.053808265 
      50    285.14769    -6446.437   -6414.6283   -8615.1952    16914.539  0.072000809 
      60    292.72184   -6447.2808   -6414.6272   -9342.9381    16914.539  0.087153748 
      70    280.17142   -6445.8771   -6414.6236   -9869.2499    16914.539   0.10198109 
      80    281.19207   -6445.9951   -6414.6277    -10294.65    16914.539   0.11798926 
      90    268.26029   -6444.5494   -6414.6246   -9784.8729    16914.539   0.13582886 
     100    263.60742   -6444.0319   -6414.6261   -9260.1077    16914.539   0.15297691 
     110    266.81408   -6444.3885    -6414.625   -9324.2282    16914.539   0.16905869 
     120    277.26539   -6445.5556   -6414.6262   -9888.0881    16914.539    0.1846357 
     130    285.07553   -6446.4267   -6414.6261    -10213.05    16914.539   0.20084172 
     140    284.14138   -6446.3223   -6414.6259   -10193.515    16914.539   0.21791648 
     150    279.03191   -6445.7517   -6414.6253   -10301.408    16914.539   0.23440376 
     160    280.06863   -6445.8685   -6414.6264   -10527.708    16914.539   0.24944995 
     170    273.73993   -6445.1618   -6414.6257   -10301.134    16914.539   0.26342452 
     180    268.00203    -6444.521   -6414.6249   -9641.2173    16914.539    0.2755889 
     190    273.83964   -6445.1737   -6414.6265   -9293.2599    16914.539   0.28642792 
     200    272.45085   -6445.0193    -6414.627   -9401.3798    16914.539   0.29775171 
     210    266.52225   -6444.3555   -6414.6245    -9739.952    16914.539   0.30975692 
     220    277.26483   -6445.5568   -6414.6275   -10274.008    16914.539   0.32155584 
     230    271.03398   -6444.8608   -6414.6265   -10197.129    16914.539   0.33326886 
     240    256.99297   -6443.2921   -6414.6241   -9796.9787    16914.539   0.34420392 
     250      260.518   -6443.6868   -6414.6256   -10082.712    16914.539   0.35319632 
     260    269.24542   -6444.6609   -6414.6262   -10817.477    16914.539   0.36024544 
     270    272.22344   -6444.9933   -6414.6263   -11178.931    16914.539   0.36660869 
     280    269.37878   -6444.6751   -6414.6255   -10808.686    16914.539   0.37346839 
     290    271.00389   -6444.8563   -6414.6254   -10344.777    16914.539   0.38086972 
     300    276.76784   -6445.4999    -6414.626   -10017.839    16914.539   0.38795838 
     310    280.46562   -6445.9129   -6414.6265   -10033.139    16914.539    0.3941169 
     320    277.07214   -6445.5343   -6414.6265   -10046.112    16914.539   0.40018262 
     330    269.95649   -6444.7383   -6414.6242   -9805.4895    16914.539   0.40670818 
     340    277.76904    -6445.612   -6414.6265   -9619.6934    16914.539   0.41197492 
     350    285.05274   -6446.4248   -6414.6267   -9485.1667    16914.539   0.41648156 
     360    281.88575   -6446.0712   -6414.6264   -9140.4937    16914.539   0.42146503 
     370    274.53044   -6445.2493    -6414.625    -8962.175    16914.539   0.42701601 
     380    276.18295   -6445.4346    -6414.626   -9426.8139    16914.539   0.43273687 
     390    277.57134   -6445.5897   -6414.6262   -10070.673    16914.539   0.43923402 
     400     276.8595   -6445.5103   -6414.6262    -10303.89    16914.539   0.44707416 
     410    275.46607   -6445.3545   -6414.6259   -10360.075    16914.539   0.45492711 
     420    275.69775   -6445.3806   -6414.6261   -10312.296    16914.539   0.46006875 
     430    277.65506   -6445.5987   -6414.6258   -10210.723    16914.539   0.46173996 
     440    281.42642   -6446.0203   -6414.6268   -10308.419    16914.539    0.4617939 
     450    276.88831    -6445.514   -6414.6267   -10250.708    16914.539   0.46269964 
     460    270.21574   -6444.7677   -6414.6248   -9929.1914    16914.539   0.46518425 
     470    276.62755   -6445.4853   -6414.6271   -9753.2735    16914.539   0.46909827 
     480    275.65992   -6445.3765   -6414.6262   -9607.8074    16914.539   0.47463575 
     490    271.78497   -6444.9435   -6414.6255   -9553.3315    16914.539   0.48058495 
     500    272.32251   -6445.0046   -6414.6266   -9909.1382    16914.539   0.48553511 
     510    270.37544   -6444.7864   -6414.6256   -10365.506    16914.539   0.48834362 
     520    275.17373   -6445.3223   -6414.6263    -10515.66    16914.539   0.48843099 
     530    278.78936   -6445.7259   -6414.6265   -10437.285    16914.539   0.48792995 
     540    277.10642   -6445.5367   -6414.6251   -10771.458    16914.539   0.48938579 
     550    282.60439   -6446.1508   -6414.6259   -11859.636    16914.539   0.49278637 
     560    285.47147   -6446.4709   -6414.6262   -12796.498    16914.539   0.49690199 
     570    281.74023   -6446.0538   -6414.6252   -13126.326    16914.539   0.50034525 
     580    281.37788   -6446.0138   -6414.6257    -13240.78    16914.539   0.50202219 
     590    281.57404   -6446.0359   -6414.6258   -12844.509    16914.539   0.50251947 
     600    279.80949   -6445.8394   -6414.6262   -12078.209    16914.539   0.50341715 
     610    275.08337   -6445.3114   -6414.6254   -11496.883    16914.539    0.5053235 
     620    273.83436   -6445.1722   -6414.6256   -11201.877    16914.539   0.50732064 
     630    275.31248   -6445.3374   -6414.6259   -11206.933    16914.539   0.50828438 
     640    275.60187     -6445.37   -6414.6262    -11537.36    16914.539   0.50794637 
     650    274.21825   -6445.2155   -6414.6261   -11690.872    16914.539   0.50662649 
     660    272.65227   -6445.0411   -6414.6263   -11698.657    16914.539   0.50518157 
     670     269.8069   -6444.7228   -6414.6254   -11783.391    16914.539   0.50451723 
     680    274.15038   -6445.2075   -6414.6256   -11810.462    16914.539   0.50456436 
     690    280.99552   -6445.9719   -6414.6264   -11861.031    16914.539   0.50555103 
     700    280.63072   -6445.9305   -6414.6257   -11627.854    16914.539   0.50781264 
     710    278.92562   -6445.7406    -6414.626   -11080.463    16914.539   0.51097066 
     720    273.95593   -6445.1857   -6414.6255   -10327.151    16914.539   0.51457431 
     730    270.75852   -6444.8288   -6414.6252   -9765.8913    16914.539   0.51787072 
     740    276.18815   -6445.4342    -6414.625   -9492.6985    16914.539   0.51977351 
     750    290.40662   -6447.0224   -6414.6271   -9560.4488    16914.539   0.52017505 
     760    291.76733   -6447.1737   -6414.6266   -9561.5036    16914.539   0.52117133 
     770    283.11091   -6446.2069   -6414.6254   -9453.5946    16914.539   0.52378958 
     780    279.64758   -6445.8206   -6414.6255   -9604.3927    16914.539   0.52683471 
     790    283.69703   -6446.2721   -6414.6253   -9946.1137    16914.539   0.52917358 
     800    294.07987   -6447.4316   -6414.6265   -10564.719    16914.539   0.53017696 
     810    295.44119   -6447.5838   -6414.6269   -10778.266    16914.539   0.53058912 
     820    284.62085    -6446.375   -6414.6251   -10769.398    16914.539   0.53152004 
     830    283.14102   -6446.2102   -6414.6254    -11181.41    16914.539   0.53258998 
     840    287.99305   -6446.7525   -6414.6265   -11723.574    16914.539   0.53389001 
     850    287.09189   -6446.6515    -6414.626   -11500.578    16914.539   0.53659046 
     860      284.553   -6446.3684    -6414.626   -10897.209    16914.539   0.54081319 
     870    282.67441   -6446.1585   -6414.6257   -10433.812    16914.539   0.54539106 
     880    283.51653   -6446.2522   -6414.6255   -10209.532    16914.539    0.5489499 
     890    288.50338    -6446.809    -6414.626   -10354.377    16914.539   0.55135174 
     900    291.76454   -6447.1726   -6414.6258   -10876.976    16914.539   0.55353637 
     910    292.97848   -6447.3082    -6414.626   -11347.991    16914.539   0.55595171 
     920    291.51405   -6447.1447   -6414.6258   -11398.427    16914.539   0.55853793 
     930    291.60074   -6447.1542   -6414.6257    -11293.91    16914.539   0.56185808 
     940     293.2344   -6447.3372   -6414.6265   -11200.097    16914.539   0.56678171 
     950    287.97843   -6446.7504    -6414.626   -11130.864    16914.539   0.57322831 
     960    283.64605   -6446.2659   -6414.6248   -11250.962    16914.539    0.5801369 
     970    292.04718   -6447.2043    -6414.626   -11840.242    16914.539   0.58714521 
     980    298.10465    -6447.881    -6414.627   -12253.162    16914.539   0.59518368 
     990     291.0629   -6447.0941   -6414.6256   -12038.151    16914.539    0.6045403 
    1000    284.65421   -6446.3788   -6414.6252   -11444.717    16914.539   0.61356144 
    1010    284.88743   -6446.4056    -6414.626    -11257.53    16914.539   0.62075706 
    1020    284.45231   -6446.3572   -6414.6261   -11432.152    16914.539   0.62656562 
    1030    283.20586   -6446.2174   -6414.6254   -11511.221    16914.539   0.63192389 
    1040    287.83552   -6446.7343   -6414.6258   -11667.574    16914.539   0.63739756 
    1050    291.82132   -6447.1799   -6414.6268   -11837.973    16914.539   0.64401168 
    1060    283.59762   -6446.2613   -6414.6256   -11789.256    16914.539   0.65213742 
    1070    276.66662   -6445.4869   -6414.6243   -11806.091    16914.539   0.65985523 
    1080    282.99965   -6446.1952   -6414.6262   -11840.254    16914.539   0.66594809 
    1090    284.44573   -6446.3567   -6414.6263   -11632.042    16914.539   0.67175387 
    1100    278.27382   -6445.6672   -6414.6253   -11480.901    16914.539   0.67800117 
    1110    275.51841   -6445.3596   -6414.6251    -11752.64    16914.539   0.68395064 
    1120    280.64433   -6445.9316   -6414.6253   -12488.193    16914.539   0.68890156 
    1130    288.25028   -6446.7809   -6414.6262   -13418.509    16914.539   0.69291839 
    1140    287.86356   -6446.7373   -6414.6257   -13894.107    16914.539   0.69647294 
    1150     284.1342   -6446.3207   -6414.6251   -13718.421    16914.539   0.69999552 
    1160    284.54442   -6446.3664    -6414.625   -13274.877    16914.539   0.70441524 
    1170    289.30798   -6446.8989   -6414.6262   -12874.099    16914.539   0.71032926 
    1180    288.40526   -6446.7977   -6414.6256   -12499.771    16914.539   0.71698745 
    1190    288.87345   -6446.8499   -6414.6256   -12393.703    16914.539   0.72286598 
    1200    289.55166   -6446.9266   -6414.6266   -12529.541    16914.539   0.72828782 
    1210    280.56525   -6445.9223   -6414.6249   -12558.433    16914.539   0.73461558 
    1220    279.30484    -6445.782   -6414.6251   -12626.277    16914.539   0.74159765 
    1230    283.14385   -6446.2112   -6414.6261    -12562.24    16914.539   0.74841645 
    1240    281.80648   -6446.0608   -6414.6249   -12023.389    16914.539   0.75444294 
    1250     287.2171   -6446.6653   -6414.6258   -11729.343    16914.539   0.75867551 
    1260    291.37697   -6447.1294   -6414.6258   -11960.648    16914.539    0.7611503 
    1270     290.7704   -6447.0612   -6414.6254   -12380.586    16914.539   0.76288707 
    1280    289.55224   -6446.9258   -6414.6258   -12882.375    16914.539    0.7645348 
    1290    287.09987   -6446.6515   -6414.6251   -12907.605    16914.539   0.76662403 
    1300     288.7486   -6446.8364   -6414.6261    -12351.66    16914.539   0.76992192 
    1310     286.5441   -6446.5899   -6414.6255   -11746.932    16914.539   0.77514416 
    1320    286.76446   -6446.6147   -6414.6256   -11616.487    16914.539     0.782071 
    1330    287.70548   -6446.7204   -6414.6264    -11836.58    16914.539   0.79015066 
    1340    282.63252   -6446.1531    -6414.625   -11799.148    16914.539   0.79849012 
    1350    284.43132   -6446.3541   -6414.6254   -11987.933    16914.539   0.80587623 
    1360    290.10013   -6446.9873   -6414.6262   -12175.108    16914.539   0.81222683 
    1370    288.39934   -6446.7972   -6414.6258   -12215.241    16914.539   0.81788554 
    1380    282.88925   -6446.1815   -6414.6247   -12046.377    16914.539   0.82275667 
    1390    283.76927   -6446.2807   -6414.6258   -12356.549    16914.539   0.82695931 
    1400    284.16314   -6446.3247   -6414.6258   -12558.911    16914.539   0.83096223 
    1410    282.88017   -6446.1807    -6414.625   -12245.265    16914.539   0.83439005 
    1420     289.0508   -6446.8696   -6414.6256   -12006.917    16914.539   0.83692973 
    1430    296.30837   -6447.6802   -6414.6265   -12125.384    16914.539   0.83971571 
    1440    294.95766   -6447.5284   -6414.6255   -12272.826    16914.539   0.84385839 
    1450    294.31334   -6447.4568   -6414.6257   -12376.112    16914.539   0.84859385 
    1460    293.05239   -6447.3161   -6414.6256   -12629.004    16914.539   0.85302956 
    1470    291.25758   -6447.1162   -6414.6259   -13083.249    16914.539    0.8570116 
    1480    286.64819   -6446.6016   -6414.6255   -13428.045    16914.539   0.86066862 
    1490    283.52532   -6446.2528   -6414.6252   -13496.705    16914.539   0.86430477 
    1500     286.3633   -6446.5701   -6414.6258   -13624.975    16914.539   0.86918451 
    1510    287.48957    -6446.696   -6414.6261   -13700.531    16914.539   0.87693222 
    1520      283.311   -6446.2294   -6414.6257   -13763.966    16914.539   0.88681719 
    1530    278.93423   -6445.7409   -6414.6254    -13749.08    16914.539    0.8961479 
    1540    279.24322   -6445.7753   -6414.6253   -13602.367    16914.539   0.90287427 
    1550    284.34307   -6446.3451   -6414.6262   -13438.713    16914.539   0.90704945 
    1560    286.61186   -6446.5976   -6414.6256   -13327.774    16914.539   0.90952163 
    1570    288.64067   -6446.8242   -6414.6259   -13235.348    16914.539   0.91064836 
    1580    289.00905   -6446.8647   -6414.6253   -13276.193    16914.539   0.91132952 
    1590    292.22619   -6447.2238   -6414.6255   -13462.144    16914.539   0.91275471 
    1600    296.71233   -6447.7243   -6414.6256   -13630.138    16914.539   0.91602557 
    1610    298.76154   -6447.9536   -6414.6263   -13722.427    16914.539   0.92135086 
    1620    292.39065   -6447.2423   -6414.6257   -13309.957    16914.539   0.92745789 
    1630    287.36199   -6446.6803   -6414.6246   -12820.554    16914.539   0.93230372 
    1640    296.02429   -6447.6483   -6414.6263   -13120.327    16914.539   0.93527841 
    1650    300.16791   -6448.1107   -6414.6265   -13790.323    16914.539   0.93826144 
    1660    293.71858   -6447.3901   -6414.6253    -14241.14    16914.539   0.94282849 
    1670    288.35047   -6446.7915   -6414.6256   -14455.623    16914.539   0.94858717 
    1680    282.73321   -6446.1651   -6414.6258   -14172.658    16914.539   0.95453176 
    1690    275.72229   -6445.3823   -6414.6251   -13627.921    16914.539   0.95952727 
    1700    277.97595   -6445.6333   -6414.6247   -13300.724    16914.539   0.96211871 
    1710    291.05049   -6447.0941    -6414.627    -13269.73    16914.539   0.96263565 
    1720    289.50874   -6446.9216   -6414.6265   -13136.603    16914.539    0.9641931 
    1730     279.6014   -6445.8141   -6414.6241    -12984.07    16914.539   0.96762806 
    1740    285.21215   -6446.4421   -6414.6263   -12956.522    16914.539    0.9714688 
    1750    286.63852   -6446.6019   -6414.6269    -12491.03    16914.539   0.97542993 
    1760    276.86406   -6445.5095   -6414.6249   -11731.805    16914.539   0.97865163 
    1770    278.27156   -6445.6664   -6414.6248   -11664.802    16914.539   0.98004953 
    1780    292.12948   -6447.2142   -6414.6268   -12328.976    16914.539   0.98151253 
    1790    296.31795   -6447.6809   -6414.6262   -12931.917    16914.539   0.98612529 
    1800    292.55667   -6447.2612    -6414.626   -13640.461    16914.539   0.99403792 
    1810    285.79514   -6446.5059    -6414.625   -14229.526    16914.539    1.0030771 
    1820    288.12419   -6446.7662   -6414.6256   -14597.158    16914.539    1.0110949 
    1830    292.85204   -6447.2945   -6414.6264   -14639.212    16914.539    1.0174953 
    1840    289.21054   -6446.8874   -6414.6255   -13970.459    16914.539    1.0218515 
    1850    287.11754   -6446.6534    -6414.625   -13100.598    16914.539    1.0231482 
    1860    292.11589   -6447.2121   -6414.6262   -12689.719    16914.539    1.0216815 
    1870    291.24456   -6447.1151   -6414.6264    -12380.18    16914.539    1.0194153 
    1880    284.36534   -6446.3461   -6414.6247   -12152.672    16914.539    1.0178874 
    1890     288.1505   -6446.7696    -6414.626   -12357.505    16914.539    1.0174891 
    1900    290.81767   -6447.0678   -6414.6266   -12569.765    16914.539    1.0188537 
    1910    284.40865   -6446.3521   -6414.6259   -12506.032    16914.539    1.0221045 
    1920    279.51829   -6445.8054   -6414.6247   -12334.547    16914.539    1.0260227 
    1930    286.47358   -6446.5831   -6414.6265   -12454.296    16914.539    1.0290399 
    1940    288.06715   -6446.7604    -6414.626   -12717.705    16914.539    1.0306657 
    1950    286.25893   -6446.5579   -6414.6253   -12605.082    16914.539    1.0306186 
    1960    289.99788   -6446.9755   -6414.6258   -12348.209    16914.539    1.0295042 
    1970    293.21828    -6447.335    -6414.626   -12071.048    16914.539    1.0291662 
    1980    292.53599   -6447.2583   -6414.6255   -11867.242    16914.539    1.0306618 
    1990    292.57928   -6447.2634   -6414.6257   -12029.322    16914.539    1.0338136 
    2000    292.21203   -6447.2225   -6414.6258   -12394.635    16914.539    1.0382092 
Loop time of 1315 on 16 procs for 2000 steps with 864 atoms

Performance: 0.131 ns/day, 182.639 hours/ns, 1.521 timesteps/s
96.8% CPU use with 16 MPI tasks x 1 OpenMP threads

MPI task timing breakdown:
Section |  min time  |  avg time  |  max time  |%varavg| %total
---------------------------------------------------------------
Pair    | 775.09     | 1035.8     | 1313.9     | 428.8 | 78.77
Bond    | 0.00028634 | 0.00059001 | 0.00098443 |   0.0 |  0.00
Neigh   | 0.025427   | 0.035422   | 0.05426    |   3.9 |  0.00
Comm    | 0.88424    | 256.38     | 539.74     | 818.9 | 19.50
Output  | 0.12145    | 14.262     | 33.051     | 358.5 |  1.08
Modify  | 0.0079534  | 0.0097154  | 0.011513   |   0.9 |  0.00
Other   |            | 8.47       |            |       |  0.64

Nlocal:        54.0000 ave          73 max          37 min
Histogram: 1 0 1 2 5 5 0 0 1 1
Nghost:        565.875 ave         657 max         471 min
Histogram: 1 1 0 5 2 2 0 2 1 2
Neighs:         0.00000 ave           0 max           0 min
Histogram: 16 0 0 0 0 0 0 0 0 0
FullNghs:      2887.12 ave        4564 max        1794 min
Histogram: 1 3 4 2 2 0 2 0 0 2

Total # of neighbors = 46194
Ave neighs/atom = 53.465278
Ave special neighs/atom = 0.0000000
Neighbor list builds = 199
Dangerous builds = 198
unfix   1

velocity    all create 825.0 1312343 dist gaussian
fix     2 all npt temp 825.0 825.0 $(100.0*dt) aniso 0.0 1.01325 $(1000.0*dt)
fix     2 all npt temp 825.0 825.0 0.10000000000000000555 aniso 0.0 1.01325 $(1000.0*dt)
fix     2 all npt temp 825.0 825.0 0.10000000000000000555 aniso 0.0 1.01325 1
run     3000
Per MPI rank memory allocation (min/avg/max) = 8.905 | 8.910 | 8.916 Mbytes
Step Temp PotEng TotEng Press Volume c_msd[4] 
    2000          825   -6447.2225   -6355.1925   -8641.5471    16914.539    1.0382092 
    2010    700.68731   -6433.3247    -6355.162   -4633.5645    16911.076    1.0473918 
    2020    564.81349   -6417.9403   -6354.9345    160.40284    16903.619    1.0647711 
    2030    557.12199   -6416.5106   -6354.3628    204.90804    16895.933    1.0783381 
    2040    559.88632   -6415.8696   -6353.4134   -383.05864    16888.408    1.0882167 
    2050    534.35875   -6411.8949   -6352.2864     299.2864    16880.654    1.0969349 
    2060    522.23195   -6409.4657     -6351.21    1537.3438    16873.181    1.1042528 
    2070    539.96286   -6410.4568   -6350.2231    2082.0643    16866.982    1.1096739 
    2080    573.65794   -6413.2385   -6349.2461    1500.5669    16862.496    1.1148684 
    2090    579.91139   -6412.8998   -6348.2098    1585.9253    16859.369    1.1228216 
    2100    585.59919   -6412.4217   -6347.0972    1520.7115      16857.6    1.1327733 
    2110    590.29016   -6411.7367   -6345.8889    1574.0441    16857.169    1.1419356 
    2120    587.86267   -6410.1925   -6344.6155    2326.3763    16858.167    1.1481251 
    2130    601.77032   -6410.4236   -6343.2953    2103.8993    16861.112    1.1500471 
    2140      632.152    -6412.434   -6341.9164    755.06339    16865.811        1.149 
    2150    628.85846   -6410.6608   -6340.5107    693.73592    16871.314    1.1476075 
    2160    613.17053   -6407.5413   -6339.1412     1608.579    16877.539    1.1455574 
    2170    642.12045   -6409.3779   -6337.7484    960.49162    16885.056    1.1420578 
    2180    655.66839   -6409.4319   -6336.2911   -22.821136    16893.419    1.1398221 
    2190    649.48212   -6407.2886   -6334.8379   -386.85232    16901.852    1.1394034 
    2200    663.30747    -6407.366   -6333.3731    -107.5817    16910.031    1.1393362 
    2210    658.45814   -6405.3433   -6331.8913    823.85009    16918.188    1.1399163 
    2220    656.53615   -6403.6608   -6330.4232    1656.6271    16927.092    1.1408432 
    2230    674.99619   -6404.2323   -6328.9355    943.51764    16937.341    1.1429545 
    2240    680.53238    -6403.336   -6327.4216   -99.863075    16948.419    1.1478924 
    2250    683.25439   -6402.1361   -6325.9181   -546.54942     16959.48    1.1538069 
    2260    689.86715   -6401.3587    -6324.403   -733.15575    16970.091    1.1583157 
    2270     696.0357   -6400.5095   -6322.8657   -887.51785    16980.065    1.1623324 
    2280    694.63397   -6398.8124   -6321.3249   -918.02692    16989.275    1.1668288 
    2290    695.65126   -6397.3989   -6319.7979   -746.40573    16997.681    1.1722784 
    2300    678.48594   -6393.9665   -6318.2803   -415.09601    17005.428      1.18015 
    2310    680.96105   -6392.7211   -6316.7589   -358.78008    17012.761    1.1901472 
    2320    698.04122   -6393.0587   -6315.1912   -183.36788    17019.774    1.1993829 
    2330    713.22027   -6393.1682   -6313.6074   -251.42088    17026.589     1.204976 
    2340    736.24071   -6394.1646   -6312.0359   -458.46007    17033.152    1.2068777 
    2350    757.25282   -6394.9649   -6310.4922   -194.79832    17039.344    1.2070269 
    2360     760.9999   -6393.8863   -6308.9956   -442.79607    17045.293    1.2064668 
    2370    767.35209   -6393.1424   -6307.5432   -988.62446    17050.801    1.2071794 
    2380    772.17021   -6392.2545   -6306.1177   -853.43484    17055.467    1.2130616 
    2390    755.30813    -6388.983   -6304.7272    195.47957    17059.425    1.2260767 
    2400    741.79571   -6386.1107   -6303.3623    1007.0109    17063.512     1.243193 
    2410    761.41725   -6386.9071   -6301.9698    995.26343    17068.388    1.2588394 
    2420    769.50882   -6386.3943   -6300.5544    1420.3441    17074.144    1.2693873 
    2430    771.91723   -6385.2698   -6299.1613    2514.1553    17081.181    1.2733832 
    2440    787.30782   -6385.6144    -6297.789    3375.3867    17090.372    1.2721739 
    2450    803.39275   -6386.0656   -6296.4459    3940.7318    17102.437    1.2700116 
    2460     808.6411    -6385.373   -6295.1679    4109.2472    17117.853    1.2723867 
    2470    825.47827   -6386.0421   -6293.9588    3567.5576    17136.704    1.2807225 
    2480    812.91404   -6383.5009   -6292.8192    3131.9113    17158.538    1.2946679 
    2490    810.85999   -6382.1967    -6291.744    1749.4881    17182.841    1.3105782 
    2500      820.408   -6382.1845   -6290.6667    -283.9351    17208.375     1.327373 
    2510    792.20003   -6377.9645   -6289.5934   -982.86229    17233.477    1.3464922 
    2520    787.04568   -6376.3278   -6288.5317   -946.21199    17257.423    1.3658525 
    2530     801.8967   -6376.8869   -6287.4341   -840.54797    17280.184    1.3867707 
    2540    811.68271   -6376.8704    -6286.326   -609.02274     17301.86    1.4105392 
    2550     818.7441   -6376.5809   -6285.2487   -556.21221     17322.64    1.4308599 
    2560    815.69947   -6375.2028   -6284.2103   -576.77805    17342.603    1.4454155 
    2570    801.08793   -6372.5727   -6283.2101   -785.76091     17361.71    1.4556376 
    2580     804.0564    -6371.905   -6282.2113   -1594.5787    17379.746    1.4604519 
    2590    823.07777   -6373.0088   -6281.1933   -2789.1745    17396.004    1.4624943 
    2600    831.17213   -6372.9134   -6280.1949   -3076.7123    17409.536    1.4654524 
    2610    806.47139   -6369.2073   -6279.2442   -2484.2661    17420.095    1.4719225 
    2620    809.95885   -6368.6756   -6278.3235   -2481.9862    17428.147    1.4834582 
    2630    842.74532   -6371.3959   -6277.3864   -3193.9798    17433.733    1.4986977 
    2640    857.07598   -6372.1046   -6276.4965   -3372.9798    17436.351    1.5162953 
    2650    849.67067   -6370.4854   -6275.7033   -3050.4305    17435.866    1.5345796 
    2660    845.48025   -6369.3152   -6275.0006   -2600.1674      17432.6    1.5507352 
    2670     855.8225   -6369.8311   -6274.3628   -2081.2847    17427.018    1.5641635 
    2680    865.27748   -6370.3208   -6273.7978   -1643.8592    17419.623    1.5759304 
    2690    872.84878    -6370.699   -6273.3314   -1174.3082    17410.836    1.5872965 
    2700    855.73949    -6368.429     -6272.97   -62.331061    17401.188    1.6006887 
    2710    849.96121   -6367.5071   -6272.6926    297.68194    17391.584    1.6170648 
    2720    836.38104   -6365.7702   -6272.4706    553.65109    17382.397    1.6354372 
    2730    821.08177   -6363.8654   -6272.2725    1491.8918    17373.918    1.6506681 
    2740    843.06104   -6366.1254   -6272.0807    1911.9122    17366.877    1.6583869 
    2750    845.84992   -6366.2701   -6271.9143    1669.8202    17361.637    1.6632942 
    2760    839.20498   -6365.4056    -6271.791    906.79864    17357.966    1.6701197 
    2770    877.86491     -6369.65   -6271.7229   -375.31206    17355.134    1.6789921 
    2780    904.67809   -6372.6943   -6271.7761    -719.1372    17352.076    1.6941637 
    2790    879.08403   -6370.0668   -6272.0037    352.62122    17348.532       1.7157 
    2800    843.50219   -6366.4454   -6272.3515    1542.3981    17345.385    1.7369171 
    2810    844.07557   -6366.8944   -6272.7365    1071.6385    17343.551    1.7519514 
    2820    867.85729   -6370.0018    -6273.191     -171.184     17342.66    1.7624123 
    2830    838.26754     -6367.21      -6273.7    157.75077    17341.773    1.7750943 
    2840    810.79161   -6364.6645   -6274.2195    1399.3158    17341.133    1.7907537 
    2850    804.09079   -6364.3916   -6274.6941    1718.3969    17341.712    1.8084173 
    2860    824.73448   -6367.1457   -6275.1454      771.756    17343.733    1.8257678 
    2870    814.26874   -6366.4118   -6275.5789    553.46632    17346.516    1.8389751 
    2880    821.39983   -6367.6326   -6276.0042   -58.052371     17349.72    1.8466852 
    2890    812.03188   -6366.9818   -6276.3985   -287.47783    17352.874    1.8556115 
    2900    824.55831   -6368.7615   -6276.7808   -623.18554    17355.686    1.8707615 
    2910    823.63724   -6369.0323   -6277.1544   -102.80291    17357.976    1.8922169 
    2920    816.69063   -6368.6253   -6277.5222    904.67556    17360.178    1.9175599 
    2930     813.0418   -6368.5651   -6277.8691    1685.4308    17363.167    1.9453951 
    2940     815.2173   -6369.1401   -6278.2014     1715.879    17367.586     1.970115 
    2950    786.59709   -6366.2395   -6278.4934    1681.0563    17373.534    1.9878905 
    2960     795.1944   -6367.4208   -6278.7157    111.29856    17380.814    1.9971906 
    2970    826.18962   -6371.0407    -6278.878   -1943.5353    17388.059    2.0005699 
    2980    824.18207   -6370.9792   -6279.0405   -2265.8239    17393.564    2.0036304 
    2990    789.12704   -6367.2126   -6279.1842   -1188.2857    17397.056    2.0090273 
    3000    793.68283   -6367.7943   -6279.2578   -1378.7527    17399.306    2.0182947 
    3010    832.20527   -6372.1092   -6279.2754   -2614.9982    17400.178    2.0373604 
    3020    830.59454   -6371.9529   -6279.2989   -2876.4605    17398.733    2.0663403 
    3030    802.14897   -6368.8146   -6279.3337   -2298.6899    17394.736    2.0961447 
    3040    799.86883   -6368.5567   -6279.3301   -1772.7627    17388.682    2.1193747 
    3050    816.33237   -6370.3355   -6279.2724   -1373.4992    17381.077    2.1336432 
    3060    822.89255   -6370.9842   -6279.1893   -582.18848     17372.35    2.1412841 
    3070    812.09311   -6369.6756   -6279.0854    595.61571    17363.256    2.1469131 
    3080    812.40754   -6369.5785   -6278.9532    930.07135    17354.759    2.1506639 
    3090    823.84207   -6370.7031   -6278.8023    107.69246     17347.12    2.1540654 
    3100    808.83339    -6368.868   -6278.6414   -466.39387    17339.697    2.1620066 
    3110    802.97833   -6368.0269   -6278.4534   -512.86782    17331.986    2.1733085 
    3120    821.61641   -6369.8718   -6278.2193   -451.20555    17323.906    2.1861256 
    3130    824.56512   -6369.9461   -6277.9646     850.9181    17315.616    2.2035219 
    3140    805.12214    -6367.503   -6277.6904    2472.2658    17308.223    2.2253455 
    3150    822.10393   -6369.0986   -6277.3916    2855.4961    17303.053    2.2478599 
    3160    846.46277   -6371.5045   -6277.0803     2246.396    17300.473     2.271182 
    3170    853.45169   -6372.0155   -6276.8117    1160.7461    17299.926    2.2935861 
    3180    840.76913   -6370.3869   -6276.5979    496.08031     17300.49    2.3094845 
    3190    853.06232   -6371.5991   -6276.4387   -289.47877    17301.475    2.3155967 
    3200    854.47214    -6371.651   -6276.3333   -76.518142    17302.279    2.3147302 
    3210    843.09724   -6370.3401   -6276.2914    536.40915     17303.05    2.3112721 
    3220    836.92856   -6369.6555   -6276.2948    380.35817    17304.235    2.3100475 
    3230    836.44958   -6369.6354   -6276.3282    448.33555    17305.783    2.3147396 
    3240    835.07788    -6369.538   -6276.3838    1296.1865    17307.807    2.3254481 
    3250      835.677   -6369.6861   -6276.4651    1739.1303    17310.965    2.3421509 
    3260    844.18158   -6370.7466   -6276.5769    817.80335    17315.579    2.3613844 
    3270    867.96421   -6373.5654   -6276.7427    -712.8006    17320.878    2.3791164 
    3280    881.66583   -6375.3541   -6277.0029   -1919.5775    17325.534    2.3965118 
    3290    877.75053   -6375.3218   -6277.4074   -2028.6289    17328.499    2.4151912 
    3300     829.0997   -6370.3854   -6277.8981   -801.58588    17329.725    2.4345262 
    3310    814.81475   -6369.2847   -6278.3909   -679.63991    17330.113    2.4541987 
    3320    821.86172   -6370.5422   -6278.8622   -1437.5658    17329.808    2.4767205 
    3330    826.44317   -6371.5191   -6279.3281     -1711.37    17328.236     2.499172 
    3340    814.58072   -6370.6557    -6279.788   -981.75844     17325.21    2.5174345 
    3350    809.94839   -6370.5629   -6280.2119   -305.60174     17321.31    2.5307097 
    3360    831.99865   -6373.4296   -6280.6189   -595.87817    17317.061    2.5383229 
    3370    828.80351   -6373.4806   -6281.0264   -377.12238     17312.35    2.5391886 
    3380    847.15712   -6375.9633   -6281.4616    -581.6751    17307.271    2.5332574 
    3390    852.14401   -6377.0016   -6281.9436   -998.39966    17301.679    2.5274772 
    3400    842.67076   -6376.4876   -6282.4864   -1196.5807    17295.211    2.5281708 
    3410    834.10688   -6376.0992   -6283.0534   -1438.9855    17287.687    2.5354895 
    3420    841.71419   -6377.5419   -6283.6474   -2239.6498    17278.835    2.5479726 
    3430    837.62573   -6377.7153   -6284.2769   -2462.6667    17268.027    2.5653146 
    3440    816.60864   -6376.0006   -6284.9067   -1651.3739    17255.109    2.5855433 
    3450    807.11994    -6375.532   -6285.4965   -507.52517    17240.771     2.604696 
    3460    796.35519   -6374.8502   -6286.0156     821.9959    17226.041    2.6236017 
    3470    778.61517   -6373.2918   -6286.4361    2182.8686    17212.117    2.6438115 
    3480    786.59603   -6374.4972   -6286.7512    2557.2744    17200.135    2.6659934 
    3490    805.11895   -6376.8069   -6286.9947    2129.9782    17190.431    2.6935334 
    3500    809.23975   -6377.4585   -6287.1866    2293.6239    17182.731    2.7260956 
    3510    813.86831   -6378.1422   -6287.3539    2870.9928     17177.14    2.7588642 
    3520     793.5946   -6376.0157    -6287.489    4032.2386    17174.197    2.7905237 
    3530    793.61925   -6376.1124    -6287.583    4826.5368    17174.844    2.8229077 
    3540    789.89273   -6375.7265   -6287.6128    4848.4571    17179.773     2.858614 
    3550    791.02052   -6375.8159   -6287.5764    3825.6893    17188.958    2.8960628 
    3560    810.60249   -6377.8952   -6287.4712    2360.5221    17201.526    2.9336561 
    3570    820.90609   -6378.8856   -6287.3123    952.71313     17216.21    2.9690049 
    3580    832.53569   -6380.0012   -6287.1306   -349.40454    17231.732    2.9979775 
    3590    845.53747   -6381.2785   -6286.9575   -918.17262    17246.958    3.0197912 
    3600    837.70723   -6380.2703   -6286.8228    -475.7817    17261.411    3.0403278 
    3610    813.12234   -6377.4278   -6286.7228    162.82045    17275.417    3.0661433 
    3620    787.17044    -6374.414   -6286.6039     91.37791    17289.477    3.0977908 
    3630    779.93526   -6373.4044   -6286.4015   -750.51544    17303.523     3.130017 
    3640    796.05069   -6374.8879   -6286.0873   -1669.9647    17316.838    3.1598183 
    3650    805.26882    -6375.519     -6285.69   -1725.0204    17328.669    3.1878955 
    3660    803.83761    -6374.916   -6285.2467    -1443.021    17338.905    3.2148884 
    3670    798.63662   -6373.8478   -6284.7587    -1256.423    17347.784    3.2396588 
    3680    810.53354   -6374.6402   -6284.2239   -1321.7514    17355.455      3.26031 
    3690    811.99437   -6374.2347   -6283.6555   -213.92363    17362.004    3.2784007 
    3700     794.6817   -6371.7201   -6283.0721    1089.8709    17368.351    3.2935495 
    3710    807.10821    -6372.494   -6282.4599    849.52741    17375.547    3.3035254 
    3720    826.35367    -6373.996    -6281.815   -423.69607      17383.4    3.3106002 
    3730    819.98025   -6372.6482   -6281.1782   -1117.7972    17390.896    3.3156193 
    3740    828.96069   -6373.0432   -6280.5714   -1702.7633    17397.348    3.3170669 
    3750    834.36237   -6373.0642   -6279.9899   -1596.0582    17402.273     3.319087 
    3760    842.97522   -6373.4936   -6279.4585   -590.91322    17405.786    3.3243428 
    3770    839.61671   -6372.6377   -6278.9771    346.46115    17408.737    3.3309013 
    3780    848.29349   -6373.1804    -6278.552    718.65865    17411.956    3.3411117 
    3790    841.80954   -6372.0823   -6278.1772    1117.8405    17415.839    3.3562149 
    3800    830.38324   -6370.4827   -6277.8522    1291.0005    17420.727    3.3719296 
    3810    834.55341   -6370.6422   -6277.5466    384.39022     17426.69    3.3822254 
    3820    841.19976   -6371.0959   -6277.2588   -618.27558     17432.99    3.3871285 
    3830    847.41297   -6371.5309   -6277.0008   -1304.5475    17438.746    3.3907195 
    3840    851.10089   -6371.7327   -6276.7911    -1804.962    17443.288    3.3956948 
    3850    846.60573    -6371.081   -6276.6408   -1419.6906    17446.235    3.4044172 
    3860    867.14045   -6373.2912   -6276.5604   -924.92732     17447.87    3.4180954 
    3870    868.69056   -6373.4577    -6276.554   -905.63627    17448.608     3.432139 
    3880    881.01771   -6374.9439   -6276.6651   -1708.6347    17448.431    3.4428861 
    3890     887.7186   -6375.9418   -6276.9154   -2159.5962    17446.721    3.4539614 
    3900    883.94671   -6375.9339   -6277.3283   -2672.7786    17443.011    3.4662506 
    3910    857.43801   -6373.5302   -6277.8817   -2616.3094    17436.878    3.4802856 
    3920    829.84538   -6371.0541   -6278.4836   -2010.3177    17428.394     3.495521 
    3930    838.21512   -6372.6112    -6279.107    -2392.866    17417.974    3.5100886 
    3940    835.39316   -6372.9363    -6279.747   -1956.4118    17405.445    3.5245855 
    3950    819.50164   -6371.7862   -6280.3696   -980.45524    17391.169    3.5392761 
    3960    816.80189   -6372.0594   -6280.9439   -511.11756     17375.96    3.5536258 
    3970    823.18329   -6373.2967   -6281.4694   -425.03432    17360.282    3.5669917 
    3980    824.81752   -6373.9711   -6281.9615   -501.22224    17344.237    3.5738518 
    3990    825.42162   -6374.5092   -6282.4321    -569.0395    17327.771    3.5693519 
    4000    819.76627   -6374.3346   -6282.8884   -308.98175    17310.831    3.5571019 
    4010    783.42233    -6370.657   -6283.2651    712.21939    17293.726    3.5407722 
    4020    797.88399   -6372.5631    -6283.558    302.55983    17277.166    3.5178018 
    4030    825.06766   -6375.8355   -6283.7979   -553.88277    17260.882     3.490171 
    4040    829.58159   -6376.5728   -6284.0317   -663.43259    17244.206    3.4640964 
    4050     821.4001    -6375.894   -6284.2656   -318.72646    17227.006    3.4454728 
    4060    825.49973   -6376.5777   -6284.4919   -39.566378    17209.548    3.4348618 
    4070    829.02291   -6377.2007   -6284.7219   -373.53866    17192.028    3.4315809 
    4080    820.94474   -6376.5386    -6284.961   -550.87017    17174.226    3.4344167 
    4090    815.21536   -6376.1342   -6285.1957   -75.012983    17156.021    3.4405085 
    4100    813.29065   -6376.1271   -6285.4033    1074.9217     17137.85    3.4465627 
    4110    813.46391   -6376.3209   -6285.5777    1955.0524    17120.637    3.4514112 
    4120    812.54446   -6376.3654   -6285.7249     2764.361    17105.175    3.4595038 
    4130     815.4272   -6376.7993   -6285.8372    4089.1371     17092.27    3.4698967 
    4140     849.5188   -6380.7204   -6285.9553     4074.697    17082.907     3.478503 
    4150    859.21198   -6381.9906   -6286.1442    3538.5485    17077.139    3.4872574 
    4160     832.8317   -6379.3178   -6286.4142    3352.1213    17074.561    3.4964988 
    4170    824.31736   -6378.6821   -6286.7283    2716.4725    17074.922    3.5027997 
    4180    842.13203   -6381.0141    -6287.073    1715.1603    17077.668    3.5036721 
    4190    839.03028   -6381.0729   -6287.4779    1894.9752    17082.044    3.5045059 
    4200    796.75729    -6376.788   -6287.9085    3353.1559    17088.218    3.5096337 
    4210    815.38829   -6379.2926   -6288.3348    3618.6414    17097.261    3.5195163 
    4220    829.78686   -6381.3417   -6288.7777    3693.0862    17109.524     3.536814 
    4230    794.90333   -6377.9098   -6289.2371    4522.3893    17125.173     3.558532 
    4240    778.21262   -6376.4747   -6289.6639    4166.8988    17144.783    3.5802281 
    4250    796.72733   -6378.8892   -6290.0131    2109.3382    17168.019    3.6038967 
    4260    797.70089   -6379.2541   -6290.2694    -50.62268    17193.175    3.6298058 
    4270    777.59983   -6377.1832   -6290.4408   -1432.6165    17218.353      3.65434 
    4280    774.27815    -6376.883   -6290.5111    -2313.746    17242.273    3.6732873 
    4290     788.0192   -6378.3914   -6290.4867   -2541.2314    17264.143     3.683341 
    4300    779.84386   -6377.3722   -6290.3794   -2190.8904    17283.746    3.6882165 
    4310    780.68426   -6377.2646   -6290.1781     -2347.89    17301.283    3.6947158 
    4320    809.13024   -6380.1147    -6289.855   -3185.6527    17316.588    3.7062881 
    4330    829.61395   -6381.9728   -6289.4281   -3866.8606    17328.954    3.7215283 
    4340     792.0938   -6377.2884   -6288.9292   -3021.7182    17337.896    3.7372638 
    4350    777.25889   -6375.0249   -6288.3205   -2651.5894    17343.994    3.7471127 
    4360    808.47789   -6377.7147   -6287.5277    -3200.858    17347.577    3.7501624 
    4370    830.48838   -6379.2444   -6286.6022   -3171.9829     17348.27    3.7528531 
    4380    836.79734    -6378.996     -6285.65    -2155.846    17346.132    3.7607377 
    4390    829.62357   -6377.2929   -6284.7471   -410.08347    17342.112    3.7722775 
    4400    825.00279    -6375.957   -6283.9267    833.73918    17337.689    3.7814421 
    4410    848.61764   -6377.8665   -6283.2019     1136.577    17333.986    3.7878327 
    4420     869.3004   -6379.5837    -6282.612    905.59581    17331.302    3.7953354 
    4430    843.37257    -6376.268   -6282.1885    1097.1406    17329.516    3.8085033 
    4440     828.4978   -6374.3148   -6281.8946    691.20361     17328.69     3.829052 
    4450    830.55769   -6374.3148   -6281.6648    81.050269    17328.488      3.85259 
    4460    826.78566   -6373.7052    -6281.476    141.85523    17328.421    3.8713486 
    4470    825.28716   -6373.3785   -6281.3165    568.13802    17328.522    3.8817542 
    4480    836.59491   -6374.5049   -6281.1815    152.91434    17329.077    3.8849413 
    4490    833.97941   -6374.1053   -6281.0736   -258.53232    17329.797    3.8855111 
    4500    823.00899   -6372.7907   -6280.9828   -175.61405    17330.336     3.889641 
    4510     829.6103   -6373.4419   -6280.8976   -415.59464    17330.681    3.8999525 
    4520    813.61182   -6371.5707   -6280.8111   -332.46218     17330.69     3.913494 
    4530    795.45404   -6369.4528   -6280.7187    269.60331    17330.439     3.923743 
    4540    789.99728   -6368.7016   -6280.5762    1216.0541    17330.472    3.9265858 
    4550    799.51058   -6369.5653   -6280.3787    1573.5394    17331.561    3.9227837 
    4560    799.93025   -6369.3563   -6280.1228    1348.0942    17334.062    3.9189681 
    4570    824.31215   -6371.7815   -6279.8283    382.39127     17337.73    3.9187258 
    4580    840.98911   -6373.3353   -6279.5217   -306.81445    17341.776    3.9213924 
    4590    840.99771   -6373.0565   -6279.2419   -747.05972    17345.541    3.9235444 
    4600    834.46824    -6372.075   -6278.9888   -722.00717    17348.645    3.9271398 
    4610    829.65784    -6371.304   -6278.7544   -366.09896    17351.116    3.9308293 
    4620    844.33179   -6372.7205    -6278.534   -742.73126    17353.206    3.9310283 
    4630     850.6933    -6373.235   -6278.3389   -1791.5244    17354.567    3.9290143 
    4640    853.60635   -6373.4121    -6278.191   -2646.3856    17354.303    3.9262791 
    4650    847.15853    -6372.612   -6278.1102   -2932.4252    17351.652     3.929221 
    4660    839.88401   -6371.7763    -6278.086   -2292.8279    17346.415    3.9435282 
    4670    846.56676   -6372.5406   -6278.1048    -1297.852    17339.126    3.9640389 
    4680    844.20088   -6372.3326   -6278.1607   -55.006332    17330.714    3.9815581 
    4690    859.78532    -6374.191   -6278.2806    337.13486    17322.204     3.994074 
    4700    868.58554   -6375.3885   -6278.4965    642.86772     17314.03    4.0056172 
    4710     866.7307   -6375.5342    -6278.849    1189.0472    17306.502    4.0169101 
    4720    862.58182   -6375.5751   -6279.3528    919.18587    17300.025    4.0269741 
    4730    857.87415   -6375.7302    -6280.033    563.64447    17294.395    4.0396414 
    4740    824.11484   -6372.7709   -6280.8397    1756.4254    17289.437    4.0594247 
    4750    816.19811   -6372.7517   -6281.7036    1985.0406    17286.008    4.0864915 
    4760    815.53744   -6373.5569   -6282.5825    1532.7174    17284.354    4.1205632 
    4770    812.52448   -6374.0666   -6283.4283    1113.6942    17284.099     4.158056 
    4780    813.00745   -6374.9028   -6284.2106    490.30199    17284.828    4.1919939 
    4790    806.02554   -6374.7945   -6284.8812    192.70809    17286.048    4.2164087 
    4800    820.78773   -6376.9955   -6285.4354   -331.29615     17287.43    4.2290644 
    4810    825.02591   -6377.9375   -6285.9046   -709.56712    17288.516     4.235781 
    4820    810.35187   -6376.6782   -6286.2822   -814.68975    17288.996    4.2476526 
    4830    837.06364   -6379.9702   -6286.5945   -1968.2563    17288.649    4.2698846 
    4840    847.90549   -6381.4682   -6286.8831   -3022.5796    17286.541    4.3008702 
    4850     826.3803   -6379.3603   -6287.1764   -3107.0173    17281.772    4.3332992 
    4860    787.65224   -6375.2666   -6287.4028   -2866.0061    17274.215    4.3602582 
    4870    792.83218   -6375.9749   -6287.5333   -2678.0464    17264.054    4.3754853 
    4880    804.21298   -6377.2853   -6287.5742    -2136.473    17251.502    4.3813341 
    4890     827.0578     -6379.84   -6287.5805   -1572.3013    17237.038     4.383639 
    4900    833.51773   -6380.5662   -6287.5861   -854.54088    17221.218    4.3877832 
    4910    828.21842   -6379.9951   -6287.6061   -59.860105    17204.673    4.3982926 
    4920    813.25572   -6378.3445   -6287.6246    821.30998    17188.108    4.4189035 
    4930    809.62635    -6377.939   -6287.6239    1046.3926    17172.258    4.4435688 
    4940    813.58698   -6378.3535   -6287.5966    692.58134     17157.34    4.4577765 
    4950    810.65018   -6377.9693     -6287.54    619.74375      17143.1     4.455749 
    4960    811.40378   -6377.9619   -6287.4485    755.38831    17129.463     4.441034 
    4970    819.15772   -6378.7021   -6287.3239    598.64339    17116.515    4.4172291 
    4980    837.38434   -6380.5992   -6287.1877    537.08477    17104.169    4.3889438 
    4990    851.60657   -6382.0809   -6287.0829    550.43775    17092.335    4.3692469 
    5000    843.89864   -6381.1669   -6287.0287    892.19194    17081.058    4.3684906 
Loop time of 2142.63 on 16 procs for 3000 steps with 864 atoms

Performance: 0.121 ns/day, 198.392 hours/ns, 1.400 timesteps/s
96.7% CPU use with 16 MPI tasks x 1 OpenMP threads

MPI task timing breakdown:
Section |  min time  |  avg time  |  max time  |%varavg| %total
---------------------------------------------------------------
Pair    | 1598.1     | 1855.2     | 2125.5     | 333.1 | 86.59
Bond    | 0.0002737  | 0.00090908 | 0.0018547  |   0.0 |  0.00
Neigh   | 0.038836   | 0.045946   | 0.06186    |   3.0 |  0.00
Comm    | 16.264     | 181.96     | 390.72     | 813.6 |  8.49
Output  | 0.17309    | 0.17678    | 0.23105    |   3.3 |  0.01
Modify  | 0.25077    | 105.23     | 234.53     | 957.4 |  4.91
Other   |            | 0.0126     |            |       |  0.00

Nlocal:        54.0000 ave          69 max          47 min
Histogram: 3 3 4 1 2 1 0 0 0 2
Nghost:        575.250 ave         650 max         503 min
Histogram: 3 2 2 1 0 0 1 2 3 2
Neighs:         0.00000 ave           0 max           0 min
Histogram: 16 0 0 0 0 0 0 0 0 0
FullNghs:      2786.88 ave        3914 max        2129 min
Histogram: 4 2 1 3 2 1 0 1 0 2

Total # of neighbors = 44590
Ave neighs/atom = 51.608796
Ave special neighs/atom = 0.0000000
Neighbor list builds = 300
Dangerous builds = 300
unfix   2

fix     3 all npt temp 825.0 825.0 $(100.0*dt) aniso 1.01325 1.01325 $(1000.0*dt)
fix     3 all npt temp 825.0 825.0 0.10000000000000000555 aniso 1.01325 1.01325 $(1000.0*dt)
fix     3 all npt temp 825.0 825.0 0.10000000000000000555 aniso 1.01325 1.01325 1
run     20000
Per MPI rank memory allocation (min/avg/max) = 8.906 | 8.911 | 8.919 Mbytes
Step Temp PotEng TotEng Press Volume c_msd[4] 
    5000    843.89864   -6381.1669   -6287.0287    892.19194    17081.058    4.3684906 
    5010    839.90745   -6380.7415   -6287.0486    393.83509    17081.391    4.3885014 
    5020    846.10029   -6381.4913   -6287.1075   -264.20215    17082.072    4.4168609 
    5030    834.30407   -6380.2731   -6287.2052   -989.76074    17082.528    4.4462243 
    5040    835.37359   -6380.5203   -6287.3331   -1984.3579    17082.082     4.468985 
    5050    853.08919   -6382.6705   -6287.5072    -2415.724    17079.906    4.4813838 
    5060    828.88396   -6380.2045   -6287.7413   -1466.6094    17075.681    4.4901151 
    5070    801.79745   -6377.4265   -6287.9848   -212.86606    17070.182    4.4994969 
    5080    811.49128   -6378.7298   -6288.2067   -178.54947     17064.38    4.5098359 
    5090    823.43391   -6380.2664   -6288.4111   -36.235537    17058.435    4.5235383 
    5100    829.84833    -6381.202   -6288.6311    816.04994    17052.511    4.5420726 
    5110    831.55107   -6381.6442   -6288.8834     1402.366    17047.274    4.5637362 
    5120    840.30698   -6382.9337   -6289.1962    730.31023    17043.167    4.5846262 
    5130    833.44981   -6382.5541   -6289.5815     81.99671    17039.717    4.6040132 
    5140    826.19328   -6382.1958   -6290.0327    164.92478    17036.396    4.6224024 
    5150    814.66565   -6381.4204   -6290.5432    1110.9039    17033.292    4.6356426 
    5160    806.90891   -6381.1073   -6291.0954    1702.0679    17031.131    4.6426164 
    5170    816.64941   -6382.7898   -6291.6913    1021.7468    17030.371    4.6451998 
    5180    827.01997    -6384.598   -6292.3426   -6.8529497    17030.477    4.6426573 
    5190    812.84793   -6383.7146   -6293.0402   -211.07885    17030.651    4.6419985 
    5200    800.49953   -6383.0458   -6293.7489   -550.19956    17030.632    4.6526909 
    5210    790.47046   -6382.5896   -6294.4114   -684.30128    17030.173    4.6764797 
    5220    813.47423   -6385.7671   -6295.0228   -1330.8723    17029.056     4.708245 
    5230    823.02058   -6387.4305   -6295.6214   -1471.2829    17026.812    4.7435829 
    5240    791.71753   -6384.4942    -6296.177   -372.51572    17023.382    4.7768997 
    5250    778.64061   -6383.4939   -6296.6353    73.406462    17019.553    4.8009986 
    5260    784.69567   -6384.5112   -6296.9772    214.12637    17015.761    4.8126905 
    5270    778.19851   -6384.0072   -6297.1979    725.96948    17012.165    4.8149461 
    5280    768.83953   -6383.0662    -6297.301    1222.3438    17009.194    4.8149923 
    5290    766.79049   -6382.8205   -6297.2838    1157.9709    17007.253     4.816755 
    5300    780.11036   -6384.1766   -6297.1542     314.5688    17006.288    4.8202706 
    5310    807.48807   -6387.0234   -6296.9469   -949.01046    17005.556    4.8251019 
    5320    810.50233   -6387.1148   -6296.7021   -1053.6406    17004.082    4.8325335 
    5330    813.34721   -6387.1709   -6296.4408   -961.16667    17001.677     4.845086 
    5340    822.03729   -6387.8592   -6296.1597   -516.39949    16998.451    4.8613893 
    5350    812.74789   -6386.5361   -6295.8728    178.28869    16994.783    4.8758071 
    5360    810.57321   -6386.0024   -6295.5818    175.03051    16991.206    4.8858056 
    5370    817.76859   -6386.5093    -6295.286   -29.639392    16987.745     4.893918 
    5380    818.33515   -6386.2781   -6294.9916    182.49553    16984.281    4.9011148 
    5390    830.81587   -6387.3949   -6294.7162     87.87515    16980.924    4.9061196 
    5400    831.87961   -6387.2672   -6294.4697    637.41702    16977.684    4.9102624 
    5410    823.00864   -6386.0656   -6294.2577    1489.4566    16975.023    4.9143891 
    5420    807.86727   -6384.1875   -6294.0687    1889.2096     16973.63     4.918606 
    5430    801.90859   -6383.3325   -6293.8784    1695.5841    16973.842    4.9247003 
    5440    816.80893   -6384.7932   -6293.6769    915.91915    16975.511    4.9354533 
    5450    819.68773   -6384.9236   -6293.4862    488.56929    16978.026     4.944759 
    5460    803.21454    -6382.912   -6293.3122    1039.4737    16981.076    4.9498913 
    5470    807.82514   -6383.2508   -6293.1367    985.73214    16985.006    4.9556548 
    5480    812.56677   -6383.5953   -6292.9522    725.33926    16989.835    4.9671444 
    5490    812.21103   -6383.3768   -6292.7735    722.99296    16995.363     4.982579 
    5500    816.78222   -6383.7182   -6292.6049    682.76899    17001.574    4.9936137 
    5510    838.72054   -6386.0132   -6292.4527   -41.364979    17008.379    4.9965912 
    5520    848.29218    -6386.972   -6292.3438    -532.1101    17015.234    4.9956098 
    5530    834.25777   -6385.3524   -6292.2897   -959.76751    17021.694    4.9954312 
    5540    820.37357   -6383.7809    -6292.267   -1139.4258    17027.398    4.9977581 
    5550    815.45173   -6383.2075   -6292.2426   -1330.3741    17032.131    4.9955221 
    5560    816.24854   -6383.2557    -6292.202   -1722.3738     17035.72    4.9852019 
    5570    824.19352   -6384.0932   -6292.1532   -2143.6729    17037.812    4.9707441 
    5580     815.6588   -6383.0861   -6292.0981   -1855.4446    17038.073    4.9591414 
    5590    801.40108   -6381.4291   -6292.0316   -1267.1708    17036.701    4.9537435 
    5600    791.61249   -6380.2191   -6291.9136   -472.80215    17034.226    4.9525808 
    5610    818.45079   -6383.0382   -6291.7388   -877.49735    17031.188    4.9435551 
    5620     848.5087   -6386.1976   -6291.5452   -1220.0595    17027.351    4.9238514 
    5630    854.13822    -6386.678   -6291.3976   -1148.2424     17022.42    4.9030478 
    5640    849.98485   -6386.1366   -6291.3195   -744.27421     17016.46     4.887194 
    5650    842.99804   -6385.3292   -6291.2915   -84.809473    17009.828    4.8758709 
    5660    834.01178   -6384.3284   -6291.2931    629.16014    17003.077    4.8704767 
    5670    823.75195   -6383.2006   -6291.3098    1089.2046    16996.813    4.8743566 
    5680    822.61477    -6383.091   -6291.3271    1250.1986    16991.444    4.8835891 
    5690    838.86145   -6384.9274   -6291.3511    541.49034    16987.057    4.8887572 
    5700    841.26483    -6385.238   -6291.3936   -396.89445     16983.11    4.8880808 
    5710    843.70273   -6385.5956   -6291.4793   -1164.4178    16978.785     4.883064 
    5720    849.13746   -6386.3403   -6291.6177   -946.28837    16973.462    4.8734333 
    5730    845.30997   -6386.1186    -6291.823    126.21329    16967.324    4.8598421 
    5740    825.61691   -6384.1932   -6292.0944    1016.4879    16961.226    4.8493414 
    5750    817.77271   -6383.6284   -6292.4046    1458.5881    16955.939    4.8501087 
    5760    843.09286   -6386.8232    -6292.775    1245.4334    16951.816    4.8632585 
    5770    826.97063   -6385.4695   -6293.2197    2181.7794     16948.86    4.8822211 
    5780    812.06716   -6384.3165   -6293.7291    2456.6285    16947.729    4.8985891 
    5790    816.56801   -6385.3704   -6294.2811    1649.5423    16948.695    4.9105469 
    5800      824.851   -6386.8987   -6294.8853   -21.908907    16951.065    4.9223824 
    5810    814.15862   -6386.3585   -6295.5379   -1143.8658    16953.501    4.9380361 
    5820    796.12841   -6385.0081   -6296.1988   -1075.7119    16955.065    4.9535811 
    5830    794.71437   -6385.4796    -6296.828    -1395.647    16955.658    4.9641854 
    5840    789.74213   -6385.4992   -6297.4022   -1401.1054    16955.075    4.9691968 
    5850    785.79047   -6385.5627   -6297.9066   -965.00057    16953.281    4.9688116 
    5860     792.2896   -6386.7185   -6298.3374     -221.736    16950.641    4.9622231 
    5870    783.20922   -6386.0489   -6298.6807    446.75801     16947.77    4.9526538 
    5880    783.09598   -6386.2853   -6298.9298    200.81315    16945.194    4.9447834 
    5890    797.06258   -6388.0072   -6299.0936   -642.86445    16942.716    4.9447383 
    5900    809.54696   -6389.4982    -6299.192   -1269.5999    16939.659    4.9548716 
    5910    825.76741   -6391.3895   -6299.2739   -1315.0891    16935.493    4.9687653 
    5920    800.16217   -6388.6024   -6299.3431     39.46454    16930.239     4.978351 
    5930    774.62761   -6385.7683   -6299.3574    1817.5465    16925.002    4.9814015 
    5940    778.60831   -6386.1244   -6299.2695     1969.406    16921.153    4.9860467 
    5950    789.80567   -6387.1692   -6299.0652     1310.697    16918.931    4.9946119 
    5960    812.84612   -6389.4438   -6298.7696     119.0849    16917.776    4.9994377 
    5970    805.73101   -6388.2758   -6298.3953    193.00175    16916.819    5.0020481 
    5980    800.12146   -6387.1911   -6297.9363    959.51061    16916.072     5.010304 
    5990    811.84284   -6387.9217   -6297.3594    889.68195    16916.076     5.029258 
    6000    793.29226   -6385.1556   -6296.6626    1288.1408    16916.911    5.0558075 
    6010    786.51887   -6383.5728   -6295.8354    1311.2138    16918.856    5.0784164 
    6020    803.91483    -6384.526   -6294.8481     349.4196    16921.924    5.0913914 
    6030    826.93879   -6386.0105   -6293.7642   -451.43832     16925.37    5.0937471 
    6040    840.64628      -6386.5   -6292.7247   -132.04328    16928.564    5.0887083 
    6050    835.84508   -6385.0878    -6291.848    941.56825    16931.777    5.0887543 
    6060    842.29886   -6385.1323   -6291.1725    1267.7948    16935.822    5.1033121 
    6070    847.14671   -6385.1853   -6290.6848    771.14752    16941.002    5.1283757 
    6080    836.45432   -6383.6621   -6290.3543    252.40057    16946.976    5.1582172 
    6090    841.13424   -6383.9636   -6290.1338   -822.63181    16953.246    5.1895659 
    6100    845.98726   -6384.3616   -6289.9904   -1336.4134    16958.959    5.2217984 
    6110    827.96233   -6382.2667   -6289.9063   -529.07828    16963.716     5.251877 
    6120    834.49654   -6382.9456   -6289.8563   -355.44121    16968.031    5.2731473 
    6130    840.87941   -6383.6321   -6289.8308    125.19775    16972.162    5.2872211 
    6140    818.43232   -6381.1173     -6289.82    1095.8681     16976.55    5.3014844 
    6150    821.23905    -6381.415   -6289.8046    973.94926    16981.898    5.3154494 
    6160    842.71157   -6383.7883   -6289.7826    140.22746    16988.167    5.3247047 
    6170    864.81748   -6386.2763   -6289.8046   -696.48038      16994.7    5.3314283 
    6180    852.99997   -6385.0597   -6289.9063    -343.8498    17000.853    5.3425319 
    6190    845.57683   -6384.4039   -6290.0785   -119.10051    17006.812    5.3654972 
    6200    854.22727    -6385.596   -6290.3056   -468.70617    17012.751    5.4025232 
    6210    836.33012   -6383.8778   -6290.5839   -620.09311    17018.404    5.4494376 
    6220    820.12385   -6382.3703   -6290.8842   -990.90093    17023.607    5.4973092 
    6230    813.90751   -6381.9643   -6291.1717   -1666.7815    17028.026    5.5364648 
    6240    814.57482   -6382.3089   -6291.4418   -2128.2835    17031.054    5.5644486 
    6250    805.39899   -6381.5307   -6291.6872   -1316.9619     17032.35    5.5868267 
    6260    802.55097   -6381.4235   -6291.8977   -446.97062    17032.501    5.6058548 
    6270    812.86142   -6382.7506   -6292.0747   -734.91258    17032.164    5.6209599 
    6280    816.74254   -6383.3378   -6292.2289   -1207.2238    17031.151    5.6315386 
    6290    821.09219   -6383.9664   -6292.3723   -1436.6465    17029.068    5.6357582 
    6300    813.90706   -6383.3078   -6292.5152   -1459.1558    17025.681    5.6385538 
    6310    795.63907   -6381.3896   -6292.6349   -836.50642     17020.99    5.6425485 
    6320    810.27078    -6383.093   -6292.7061   -411.62685    17015.454    5.6479397 
    6330    832.98184   -6385.6674    -6292.747   -327.98542    17009.433    5.6575128 
    6340    830.32375   -6385.4264   -6292.8025    228.46235    17003.059    5.6683723 
    6350    809.98603   -6383.2168   -6292.8616    691.32809    16996.759    5.6756472 
    6360    818.00573   -6384.1414   -6292.8916    309.43771    16990.895    5.6765034 
    6370    831.68432   -6385.6925   -6292.9169   -272.64336    16985.178    5.6778868 
    6380    816.48544   -6384.0433   -6292.9631   -295.55498     16979.17    5.6877038 
    6390    806.53943   -6382.9681   -6292.9974   -602.63245    16972.774    5.7002997 
    6400     822.5161    -6384.751   -6292.9981   -771.69414    16965.748    5.7071422 
    6410    833.77291   -6385.9882   -6292.9796   -670.86062    16957.927    5.7098212 
    6420    840.76145   -6386.7695   -6292.9813   -276.90329    16949.387    5.7110509 
    6430    821.10089   -6384.6076   -6293.0126    1321.5569    16940.554    5.7122944 
    6440    801.43387   -6382.4405   -6293.0393    2537.5874    16932.688    5.7135505 
    6450     816.8791   -6384.1567   -6293.0326    2032.7227    16926.775    5.7154521 
    6460    843.59734   -6387.1221   -6293.0176    1015.4401    16922.511    5.7176662 
    6470    847.08131    -6387.536   -6293.0428    235.11327     16919.09    5.7181584 
    6480    848.33201   -6387.7623   -6293.1296   -512.90247    16915.808    5.7180444 
    6490    846.96223    -6387.761    -6293.281   -337.80183    16912.092    5.7203697 
    6500    841.94869   -6387.4304   -6293.5098    1116.4133    16908.123    5.7246831 
    6510    822.78189   -6385.5829   -6293.8004    3084.3071      16905.1    5.7325541 
    6520     806.8929   -6384.1193   -6294.1092    4138.2785    16904.673      5.74361 
    6530    823.89919    -6386.345   -6294.4378    2841.2072    16907.691    5.7486451 
    6540    834.32042     -6387.86   -6294.7903    834.34127    16913.219    5.7408019 
    6550    832.15077   -6388.0096   -6295.1819   -428.07424    16919.658    5.7199014 
    6560    841.95575   -6389.5459   -6295.6244   -1037.5694    16925.898    5.6929351 
    6570    836.95424    -6389.492   -6296.1285   -932.30192    16931.396    5.6718396 
    6580    818.67761   -6388.0018   -6296.6771    -198.3572    16936.228    5.6627724 
    6590    792.74744    -6385.638   -6297.2058    721.06263    16940.999    5.6640687 
    6600    788.81034   -6385.6696   -6297.6766    1058.8021    16946.443    5.6761387 
    6610    786.46465   -6385.7994   -6298.0681    1379.6367    16952.931    5.6921005 
    6620    811.58217   -6388.9247   -6298.3915    1093.0991     16960.73    5.6981305 
    6630    835.79765   -6391.9344   -6298.6999    29.659616    16969.595    5.6902378 
    6640    816.43313   -6390.0825   -6299.0082   -1137.3053    16978.664     5.673064 
    6650      816.649   -6390.4063   -6299.3079   -2641.6256    16986.866    5.6529937 
    6660     800.3486   -6388.8585   -6299.5784   -2823.2019        16993    5.6379841 
    6670    798.27857   -6388.8617   -6299.8125   -2266.0129    16996.808     5.628022 
    6680    814.74648    -6390.898   -6300.0118   -1805.5904    16998.678    5.6209538 
    6690    795.32877   -6388.9032    -6300.183   -690.16177     16999.04    5.6162602 
    6700    783.14299   -6387.6633   -6300.3025   -503.50653    16998.716    5.6132417 
    6710    782.31645   -6387.6017   -6300.3331   -1466.1064    16997.866    5.6145111 
    6720    780.54505   -6387.3294   -6300.2584   -2391.0951    16995.722    5.6209367 
    6730    792.98953   -6388.5402    -6300.081   -3363.1369    16991.416    5.6315828 
    6740    805.43725   -6389.6671   -6299.8194   -3898.4368    16984.107    5.6482124 
    6750    822.02377   -6391.1939   -6299.4959   -3272.7276    16973.334    5.6725296 
    6760    810.35984   -6389.5051   -6299.1082   -710.55452    16959.695    5.7007864 
    6770    798.58403   -6387.7268   -6298.6435    1365.5752    16945.214    5.7196374 
    6780    820.42111   -6389.5943   -6298.0751    1565.4371    16931.614    5.7224368 
    6790    824.70941   -6389.4279   -6297.4303    1225.1249    16919.198    5.7205408 
    6800    803.75926    -6386.413   -6296.7524    1501.7556    16907.788    5.7225956 
    6810    808.39317   -6386.2072   -6296.0297    1737.3844     16897.58    5.7291156 
    6820    803.48154   -6384.8792   -6295.2496    2540.7266    16888.853    5.7422068 
    6830    807.54005   -6384.5252   -6294.4428    2915.2065    16882.231    5.7543975 
    6840    820.99385   -6385.2228   -6293.6397    2883.4855    16878.072    5.7586957 
    6850    823.75252   -6384.7832   -6292.8924    2846.5061    16876.394    5.7574748 
    6860    847.74555   -6386.8306   -6292.2633     2458.016    16877.153    5.7515949 
    6870    849.89725   -6386.5965   -6291.7891    2563.2915    16880.111    5.7472833 
    6880     825.6559   -6383.5632     -6291.46    2877.0387    16885.353    5.7526918 
    6890    836.42705   -6384.5252   -6291.2205    2863.1003    16893.091    5.7709788 
    6900    839.80936   -6384.7141   -6291.0321    3494.1563    16903.442    5.7965086 
    6910    850.06169   -6385.7484   -6290.9227    3169.8915    16916.811    5.8216582 
    6920    839.25787   -6384.5046   -6290.8841    2981.8291    16933.059    5.8405873 
    6930    842.36894    -6384.858   -6290.8905    2652.1846    16952.006    5.8495592 
    6940    868.15215   -6387.7863   -6290.9426    1632.6547    16973.304    5.8512146 
    6950    840.03591   -6384.7563   -6291.0491    1756.2827    16996.231     5.849158 
    6960    825.35516    -6383.263   -6291.1934    1657.5948    17020.772    5.8444343 
    6970    843.25513   -6385.4098   -6291.3434    189.09549    17046.751    5.8427951 
    6980    816.27398   -6382.5371   -6291.4805   -985.09863    17073.015     5.846262 
    6990     790.2668   -6379.7253   -6291.5699   -1967.1642    17098.482    5.8541226 
    7000    809.33648   -6381.8696   -6291.5869   -3336.1221    17122.204    5.8682495 
    7010    820.56091   -6383.0889   -6291.5541   -3996.6722    17143.031    5.8903384 
    7020    808.24306   -6381.6701   -6291.5093     -3752.55    17160.369    5.9181194 
    7030    800.54488   -6380.7487   -6291.4467   -3357.8304    17174.361    5.9454917 
    7040    798.94743   -6380.4617   -6291.3379   -2828.3661    17185.367    5.9643524 
    7050     812.9798   -6381.8775   -6291.1884   -2608.1525    17193.811    5.9669104 
    7060    808.90612   -6381.2416   -6291.0069   -2679.4619    17199.888    5.9560462 
    7070    806.28569   -6380.7412   -6290.7988   -3175.2582    17203.515    5.9398403 
    7080    790.15466    -6378.688   -6290.5451   -3353.2407    17204.326    5.9275037 
    7090     800.2633   -6379.4882   -6290.2176   -4145.3225    17202.062    5.9278219 
    7100    831.86868   -6382.6188   -6289.8226   -4975.4391     17196.07    5.9444505 
    7110     838.1772    -6382.914   -6289.4141   -4824.3904    17185.683    5.9732956 
    7120    838.73391   -6382.5902   -6289.0282   -4393.5255     17170.98    5.9987554 
    7130    835.05884   -6381.8019   -6288.6498   -3843.5837    17152.373     6.008639 
    7140    853.71513   -6383.5156   -6288.2824   -3251.2802    17130.375    6.0086391 
    7150    870.33247   -6385.0411   -6287.9542     -2783.09    17105.496    6.0156943 
    7160    857.21758   -6383.3222   -6287.6982   -1245.7531    17078.296    6.0369859 
    7170    826.19258   -6379.6361   -6287.4731    717.55213    17050.134    6.0660303 
    7180    799.15649    -6376.363   -6287.2158    1706.3366    17022.665    6.0929042 
    7190    815.54755   -6377.8756      -6286.9     1334.385     16996.73    6.1098789 
    7200    845.83766   -6380.8863   -6286.5318    1334.2524    16972.143    6.1152861 
    7210    838.92499    -6379.721   -6286.1376    2301.3217    16948.965    6.1168188 
    7220    849.11632    -6380.471   -6285.7508    2491.3348    16927.889    6.1209064 
    7230    870.57693    -6382.514   -6285.3998    1849.2696    16909.061    6.1296085 
    7240    877.68757    -6383.026   -6285.1187    1729.8159    16892.034     6.144902 
    7250     882.9656   -6383.4244   -6284.9282    2163.8582     16876.67    6.1695384 
    7260    871.05506   -6381.9948   -6284.8273    3048.9682    16863.336    6.2013295 
    7270    855.23322   -6380.2187   -6284.8161    3714.2206    16852.728    6.2332835 
    7280    857.60397    -6380.562    -6284.895     4097.482    16845.391    6.2569595 
    7290    858.93874   -6380.9035   -6285.0876    4735.5517     16841.66    6.2645543 
    7300    853.92349   -6380.6992   -6285.4428    4961.1932    16841.989    6.2552748 
    7310    844.87286   -6380.2136   -6285.9668    4462.3211    16846.549    6.2378143 
    7320    855.19597   -6382.0578   -6286.6595    3274.8639    16854.874    6.2195793 
    7330    857.96824   -6383.2389   -6287.5313     2240.041    16865.983    6.2095966 
    7340    850.90132   -6383.4525   -6288.5332    1061.4433    16878.945    6.2093172 
    7350    860.55323   -6385.6109   -6289.6149    -651.2027    16892.694    6.2120138 
    7360     848.0258   -6385.2967   -6290.6982   -1192.0666    16905.891    6.2151108 
    7370    830.41189    -6384.329   -6291.6953   -691.28076    16918.041    6.2168485 
    7380    788.41154   -6380.4588   -6292.5103     699.6056    16929.588    6.2131353 
    7390    787.47518   -6380.9592   -6293.1151    967.04526    16941.569    6.2012815 
    7400    806.32714   -6383.4965   -6293.5495    64.352577     16954.24    6.1855915 
    7410    820.87267   -6385.4502   -6293.8806   -999.03554    16966.887     6.174374 
    7420    830.64117    -6386.817   -6294.1577   -1495.1144     16978.64    6.1707084 
    7430    838.69353   -6387.9876   -6294.4301   -1512.3522     16989.05    6.1658178 
    7440     824.7212   -6386.7014   -6294.7025   -1166.3684      16998.1    6.1513387 
    7450    820.73173   -6386.5188    -6294.965   -850.34745    17006.058    6.1287274 
    7460    803.96357   -6384.8679   -6295.1846   -215.77384    17013.258    6.1077662 
    7470    799.95031   -6384.5866   -6295.3509    58.623583    17020.196    6.1028428 
    7480    813.09327   -6386.1752   -6295.4734     -58.0195    17027.126    6.1201378 
    7490    798.85834   -6384.6762   -6295.5623     77.78043    17033.988    6.1527976 
    7500    768.96013    -6381.366   -6295.5874    532.10762    17040.926    6.1875797 
    7510    786.57505   -6383.2604   -6295.5168   -153.97923    17048.202    6.2102927 
    7520    815.41865   -6386.3081   -6295.3469   -1372.2184    17055.285    6.2193636 
    7530    816.39568    -6386.202   -6295.1318   -2616.1591    17061.118    6.2240605 
    7540     803.1104   -6384.4788   -6294.8906    -3613.788    17064.625    6.2344209 
    7550    822.46861    -6386.363   -6294.6154   -4227.4142     17064.95    6.2527163 
    7560    834.93049   -6387.4651   -6294.3274   -3932.9168    17061.605    6.2713157 
    7570     801.5348    -6383.447   -6294.0346   -2408.1476    17054.908    6.2770432 
    7580    796.56897   -6382.5679   -6293.7094    -1522.589    17046.043    6.2684144 
    7590    794.74208   -6381.9595   -6293.3048   -1265.5666    17035.845    6.2572867 
    7600    801.31659    -6382.218   -6292.8299   -1975.9589      17024.5    6.2522758 
    7610    831.80481   -6385.0963   -6292.3073   -3235.0446    17011.413    6.2545988 
    7620    839.12395   -6385.3847   -6291.7791   -3171.3496    16995.654    6.2589149 
    7630    846.72684   -6385.7476   -6291.2939   -2470.0119    16977.224    6.2622575 
    7640      847.826   -6385.4291   -6290.8529   -1316.2414    16956.765     6.272269 
    7650    849.60975    -6385.238   -6290.4628    177.16001    16935.287    6.2867673 
    7660     862.2395    -6386.307   -6290.1229    1091.1069    16914.023    6.2973013 
    7670    880.53556   -6388.0992   -6289.8742     1036.767    16893.721    6.3044621 
    7680    875.01939   -6387.3537    -6289.744    1804.2087     16874.49    6.3090598 
    7690    866.19558   -6386.3499   -6289.7245     2394.715    16856.892     6.308285 
    7700    868.93213   -6386.7324   -6289.8017    2456.3766    16841.445    6.3030496 
    7710    865.09099   -6386.4888   -6289.9866    2637.5502    16828.209    6.2991175 
    7720    857.62718    -6385.935   -6290.2654     2970.341    16817.313    6.2959195 
    7730      860.795   -6386.6621   -6290.6391     3526.817    16809.037    6.2894966 
    7740    842.58693   -6385.0711   -6291.0792     4218.975    16803.852    6.2804668 
    7750    842.42329   -6385.5624   -6291.5888    3834.8251     16802.21    6.2692653 
    7760    846.26795   -6386.5527   -6292.1503    3219.3253    16803.843    6.2604857 
    7770    847.56905   -6387.3137   -6292.7661    2980.5479    16808.268    6.2580804 
    7780     850.0081   -6388.2436   -6293.4239    2845.0935    16815.269    6.2571132 
    7790     845.0356   -6388.3759   -6294.1109    2972.2258    16824.741    6.2591215 
    7800    825.57659   -6386.8681   -6294.7738    2360.7085      16836.7    6.2686131 
    7810    834.45606   -6388.4558   -6295.3709    665.70918    16850.613    6.2780771 
    7820    841.07203    -6389.719   -6295.8961   -917.58884    16865.105    6.2816776 
    7830    833.48026   -6389.3349    -6296.359   -1356.6894    16878.894    6.2811496 
    7840    822.74943   -6388.5236   -6296.7447   -1554.5489    16891.504    6.2783665 
    7850     827.5339   -6389.3642   -6297.0516   -1453.7131    16902.784    6.2713266 
    7860    835.06546     -6390.46   -6297.3071   -675.23438    16912.848    6.2625616 
    7870    835.61003   -6390.7524   -6297.5388   -149.94555    16922.286    6.2590083 
    7880    814.58687   -6388.6078   -6297.7394    415.57898    16931.603    6.2619804 
    7890    812.44329   -6388.5244   -6297.8951    329.95121    16941.232    6.2639781 
    7900    807.66798   -6388.0896    -6297.993   -297.28913      16951.1    6.2608101 
    7910     803.0183   -6387.6185   -6298.0406   -730.52414    16960.721    6.2516703 
    7920    804.13582   -6387.7397   -6298.0372   -1032.0426    16969.726    6.2364638 
    7930    807.17104   -6388.0335   -6297.9923   -1291.2655    16977.831    6.2186826 
    7940    795.14065   -6386.6068   -6297.9077   -1147.2562    16984.846    6.2071033 
    7950    790.13228   -6385.9088   -6297.7683   -1217.8248     16990.84    6.2037446 
    7960    808.59598   -6387.7686   -6297.5685   -1849.5138    16995.719    6.2038962 
    7970    804.99517   -6387.1243   -6297.3258   -2094.7843    16999.016    6.2048144 
    7980    812.28106   -6387.6674   -6297.0562   -2342.5593    17000.476    6.2034502 
    7990    816.95632   -6387.8891   -6296.7564   -2533.5667    16999.885    6.2012821 
    8000    818.64788   -6387.7618   -6296.4404   -2337.8507    16997.091    6.2008947 
    8010    829.53307   -6388.6607    -6296.125   -2048.4157    16992.232    6.2051698 
    8020    821.41928   -6387.4426   -6295.8121   -1419.4869    16985.612    6.2123489 
    8030    826.44612    -6387.697   -6295.5057   -1333.2772    16977.688    6.2213102 
    8040    807.20378    -6385.228   -6295.1832   -597.30948    16968.641    6.2331004 
    8050    799.77556   -6384.0454   -6294.8292   -342.86878    16959.017    6.2489837 
    8060    811.40089   -6384.9419   -6294.4289   -977.82915    16949.004    6.2721162 
    8070    816.18861   -6385.0473   -6294.0002   -814.85969    16938.178    6.2989816 
    8080    819.30009   -6384.9428   -6293.5486   -156.36297    16926.648    6.3213666 
    8090    846.48247    -6387.519   -6293.0926    103.14032    16914.912    6.3308949 
    8100     868.3239   -6389.5356   -6292.6728    745.72794    16903.283    6.3290849 
    8110     853.2249   -6387.5132   -6292.3347    1927.3456    16892.323    6.3232352 
    8120    837.90109   -6385.5385   -6292.0694    2803.0082    16882.992    6.3169138 
    8130     841.6618   -6385.7377    -6291.849    2153.5849    16875.967    6.3108717 
    8140    865.76761   -6388.2574   -6291.6797    818.72009    16870.767    6.3128676 
    8150    869.08588    -6388.542   -6291.5941    202.52245    16866.327    6.3338341 
    8160    858.77635   -6387.4065   -6291.6087    401.71674    16862.128    6.3664256 
    8170    853.88099   -6386.9627   -6291.7109    968.90923    16858.293    6.3909281 
    8180    836.73924    -6385.212   -6291.8725    1810.0062      16855.3    6.3987316 
    8190    836.50959   -6385.3884   -6292.0745    2475.6011    16853.856    6.3925837 
    8200    848.56631   -6386.9826   -6292.3238    2556.8802    16854.497    6.3810289 
    8210    849.71739   -6387.4351   -6292.6478    2513.0058    16857.343    6.3715533 
    8220    836.71984   -6386.3835   -6293.0462    2698.0904     16862.39    6.3621401 
    8230     815.6249   -6384.4823   -6293.4981     3342.376     16869.84    6.3498282 
    8240    809.60446   -6384.2843   -6293.9717    3756.0172    16880.214    6.3366736 
    8250    820.16283   -6385.9647   -6294.4743    3522.4415     16893.87    6.3243373 
    8260    828.81048   -6387.4829   -6295.0278    2969.6146     16910.66     6.309916 
    8270    823.62892   -6387.5195   -6295.6424    2336.8296    16930.132    6.2948412 
    8280    824.08185   -6388.2434   -6296.3159    1167.7107    16951.705    6.2852281 
    8290    815.58948    -6388.011   -6297.0308   -21.734571    16974.417    6.2881656 
    8300    800.87491   -6387.0918    -6297.753   -558.66719    16997.288    6.3068975 
    8310    815.06158   -6389.4034   -6298.4821   -1017.7426    17019.768    6.3330276 
    8320    805.11159   -6389.0195   -6299.2081   -1049.8853    17041.489    6.3560577 
    8330    773.10803   -6386.1061   -6299.8648   -1268.6739    17062.365    6.3704364 
    8340    773.81506    -6386.713   -6300.3928    -1896.134     17082.18    6.3746923 
    8350    792.89796   -6389.2437   -6300.7947   -2891.8004    17100.359    6.3728431 
    8360    802.14604   -6390.5851   -6301.1045   -3307.5053      17116.1    6.3716071 
    8370    794.59243   -6389.9777   -6301.3397   -3634.1582    17128.961    6.3761329 
    8380    791.90198   -6389.8331   -6301.4953   -4349.6704    17138.579    6.3832136 
    8390    798.17982    -6390.624   -6301.5858   -4855.2651    17144.343    6.3869681 
    8400    769.32512   -6387.4257   -6301.6063   -4696.1091    17145.825    6.3886632 
    8410    755.24574   -6385.7833   -6301.5345   -4169.3835    17143.135    6.3877039 
    8420    774.22812   -6387.7182   -6301.3519     -3712.22    17136.705    6.3792396 
    8430    798.80396   -6390.2163   -6301.1085   -3639.8901    17126.879    6.3644462 
    8440    793.46998   -6389.3622   -6300.8495   -2566.1685    17113.851    6.3558254 
    8450    779.37038    -6387.516   -6300.5761   -1244.0662    17098.498    6.3625826 
    8460    777.12013   -6386.9635   -6300.2746   -798.71322    17081.914     6.382387 
    8470    787.87257   -6387.8439   -6299.9555   -710.34287    17064.544    6.4075458 
[...]
   22890    838.74241   -6404.4889   -6310.9259    332.67997    16434.106    11.282119 
   22900    819.28125   -6402.3428   -6310.9507     2865.924    16408.295    11.348284 
   22910    810.83406   -6401.3795   -6310.9297    4987.2546    16384.781    11.416233 
   22920    806.98586     -6400.89   -6310.8695    5502.6816    16365.214    11.467306 
   22930    819.47307   -6402.2117   -6310.7983     4846.697     16350.04    11.497421 
   22940    833.42018   -6403.7065   -6310.7372    3872.3743    16338.773    11.517917 
   22950    848.07553   -6405.3204   -6310.7163    3063.3079    16330.656    11.538919 
   22960     862.8837   -6407.0062   -6310.7502    2860.5383    16325.064    11.557682 
   22970    860.51836   -6406.8442   -6310.8521     2688.524    16321.788    11.563736 
   22980    857.15458   -6406.6393   -6311.0224    2460.9394    16320.692    11.550664 
   22990    873.51917   -6408.7131   -6311.2708    1946.9694    16321.573     11.52333 
   23000    858.83811   -6407.3994   -6311.5947    1915.0725    16324.066    11.492069 
   23010    840.96573   -6405.7837   -6311.9727    2606.3228    16328.164    11.465388 
   23020    834.99665   -6405.5106   -6312.3655    3023.5619    16334.367    11.449235 
   23030    843.73571   -6406.8762   -6312.7562    2465.7861    16342.965    11.448387 
   23040    859.15111        -6409   -6313.1604    1331.2811    16353.542    11.465728 
   23050    858.61604   -6409.3677   -6313.5877    758.66045    16365.273    11.490234 
   23060    842.34387    -6407.994   -6314.0293    821.52649    16377.701    11.503924 
   23070    822.55969   -6406.2044   -6314.4467     1159.218     16390.86    11.498858 
   23080    802.44582   -6404.3161   -6314.8021    1207.8716    16404.963    11.487367 
   23090    798.38228   -6404.1236   -6315.0628    1057.4426    16420.086    11.490681 
   23100    834.83299   -6408.3858   -6315.2589   -237.97408    16436.009    11.511398 
   23110    817.86168   -6406.6606   -6315.4269   -655.84052    16451.831     11.53175 
   23120    775.78676    -6402.086   -6315.5458   -387.74127    16467.191    11.537625 
   23130    796.38535   -6404.4127   -6315.5748   -1556.5631    16482.134    11.531581 
   23140    817.74445   -6406.7443   -6315.5237   -2781.8822     16495.81    11.526886 
   23150    812.18225   -6406.0497   -6315.4495   -3142.7755    16507.246    11.530733 
   23160    807.61651   -6405.4489   -6315.3581    -3302.847    16516.108    11.540751 
   23170    833.97828   -6408.2825    -6315.251   -4529.2939    16522.165    11.551478 
   23180    849.11657   -6409.8946   -6315.1743   -5506.2104    16524.475    11.562191 
   23190     811.5631   -6405.6759   -6315.1448   -5050.6141    16522.327    11.572931 
   23200    803.61665   -6404.7631   -6315.1185   -4971.8785    16515.939    11.580961 
   23210    822.10255   -6406.7741   -6315.0674   -4446.7862    16505.442    11.589599 
   23220    825.62483   -6407.1064   -6315.0067   -2989.0905    16491.311    11.603367 
   23230    818.95074   -6406.2951   -6314.9399   -1220.2356    16474.725    11.612865 
   23240    817.67005   -6406.0643    -6314.852   -176.41954     16457.06     11.60838 
   23250    817.49544   -6405.9332   -6314.7404    574.29743    16439.212    11.598205 
   23260    818.68253   -6405.9356   -6314.6103    1556.5445     16421.83     11.59332 
   23270    800.63523   -6403.7554   -6314.4434    3259.9943    16405.774    11.588875 
   23280    800.98053   -6403.5799   -6314.2293    4233.2856    16392.307     11.58038 
   23290    806.24187   -6403.9034   -6313.9659    4104.1783    16382.203    11.572942 
   23300    810.11293   -6404.0392   -6313.6699    3124.6789    16375.383    11.571536 
   23310    816.71572   -6404.4525   -6313.3466    1286.5422     16371.04    11.580835 
   23320    824.04174   -6404.9202   -6312.9971   -309.81979    16367.763     11.60231 
   23330    846.57749   -6407.0785   -6312.6415    -1480.558    16364.241    11.629151 
   23340    870.13336   -6409.3848   -6312.3201   -1641.1083    16359.568    11.647591 
   23350    880.04873   -6410.2571   -6312.0863   -903.24472    16353.616    11.646477 
   23360    869.98476   -6409.0137   -6311.9656   -89.843655    16346.903    11.635484 
   23370    843.65769   -6406.0479   -6311.9366     1175.439    16340.121    11.632308 
   23380    835.18657   -6405.1183   -6311.9519    1980.7587    16334.229    11.641387 
   23390    853.93008   -6407.2641   -6312.0069    2225.3652    16329.897    11.659363 
   23400    856.08435   -6407.6383   -6312.1408    2099.4243    16327.334    11.682507 
   23410     834.9201   -6405.5037   -6312.3671    2234.6544    16326.514     11.70234 
   23420    840.92095   -6406.5015   -6312.6955    2015.1525    16327.481    11.711339 
   23430    831.77464   -6405.9234   -6313.1377    2311.9408    16330.149    11.708984 
   23440    823.24803   -6405.5504   -6313.7159    2554.0838    16334.718     11.69759 
   23450    821.49113   -6406.0865   -6314.4479    2384.9527    16341.383    11.682478 
   23460    808.38039   -6405.4881   -6315.3121    2290.1317    16350.071    11.668097 
   23470    807.36651   -6406.3236   -6316.2607    1683.1074    16360.683    11.653326 
   23480     831.9782   -6410.0758   -6317.2673    364.45931    16372.727    11.637772 
   23490    815.06588   -6409.2026   -6318.2808    156.62351    16385.294     11.62592 
   23500    777.88552    -6405.953   -6319.1787    691.91969    16398.173    11.615849 
   23510     770.3801   -6405.8124   -6319.8753    33.707058    16411.674    11.605207 
   23520    779.86912   -6407.3664   -6320.3709   -1540.1942    16425.294    11.595482 
   23530     792.3814   -6409.0977   -6320.7064   -2908.6269    16437.812    11.586444 
   23540    800.80895    -6410.266   -6320.9345   -3514.3441    16448.142    11.573273 
   23550    798.78448   -6410.1924   -6321.0868   -3512.6999    16455.736    11.556238 
   23560    795.16118   -6409.8793   -6321.1779   -3118.9203    16460.532    11.544392 
   23570    782.11702   -6408.4495   -6321.2031   -2061.4577    16462.871    11.549966 
   23580    774.60008   -6407.5517   -6321.1439   -1993.7461    16463.457    11.580341 
   23590    784.35955   -6408.4896   -6320.9931   -2943.8813    16462.336    11.631876 
   23600    791.39744   -6409.0459   -6320.7643   -3617.5996    16458.796    11.688037 
   23610    792.22543   -6408.8537   -6320.4797   -3504.3501    16452.272    11.727585 
   23620    784.18799   -6407.6128   -6320.1355   -3353.5979    16442.763    11.740364 
   23630     803.9498   -6409.4141   -6319.7323   -3776.8582    16430.303    11.733517 
   23640    834.67719   -6412.4018   -6319.2923   -3251.8914    16414.617    11.728735 
   23650    829.19369   -6411.3561   -6318.8583    -1068.912     16396.14     11.73872 
   23660    822.97009   -6410.2398   -6318.4363    807.71289    16376.481    11.757294 
   23670    838.70449   -6411.5779   -6318.0192    1272.8251    16357.085    11.780874 
   23680    856.47193   -6413.1866   -6317.6459    995.16435    16338.385    11.804864 
   23690    849.81316   -6412.1578   -6317.3599    1253.4406    16320.256    11.817051 
   23700     806.0012   -6407.0369   -6317.1263    2717.9479    16302.981    11.817661 
   23710    797.89036   -6405.8773   -6316.8715    3555.6861    16287.599    11.819795 
   23720    814.47669   -6407.4242   -6316.5681    3259.9287    16274.785    11.826208 
   23730    817.66922   -6407.4589   -6316.2466     2690.199    16264.418    11.829606 
   23740    839.55795   -6409.5879    -6315.934    1748.9573    16256.028    11.829432 
   23750    866.93263   -6412.3712   -6315.6636    1278.6039    16248.941    11.829521 
   23760    869.62446   -6412.5031   -6315.4952    1217.1599    16242.791    11.831888 
   23770    848.39541   -6410.0655   -6315.4258    2032.2128    16237.601    11.833319 
   23780    839.21027   -6409.0364   -6315.4212    2375.2859    16233.915    11.834171 
   23790    842.16091   -6409.3985   -6315.4542    1453.1723    16232.009    11.835707 
   23800    842.51136    -6409.507   -6315.5236    586.89384    16231.259    11.837808 
   23810    850.31153   -6410.4926   -6315.6391    999.76841    16231.071    11.844579 
   23820    861.39964   -6411.9114    -6315.821    2241.7898    16231.754    11.857196 
   23830    860.44582   -6412.0843   -6316.1003    3232.7421    16234.256    11.873756 
   23840    851.05805   -6411.4083   -6316.4715    3200.3548    16239.368    11.892666 
   23850    868.20352   -6413.7923   -6316.9429    2144.5026     16247.14    11.911901 
   23860    869.51755   -6414.5425   -6317.5465    901.89951    16256.843    11.926687 
   23870    838.26645   -6411.7717   -6318.2618    1155.1173    16267.633    11.929422 
   23880    815.59065   -6410.0022   -6319.0219    1794.7538    16279.667    11.914953 
   23890    812.76978    -6410.433   -6319.7673     1591.963    16293.404    11.885601 
   23900    801.07721   -6409.8191   -6320.4578    1163.8603    16308.775    11.849797 
   23910    797.74981   -6410.0461   -6321.0559    45.714358    16325.419    11.816541 
   23920    788.06645   -6409.4398   -6321.5298   -783.62036    16342.552    11.798675 
   23930    784.45704    -6409.375   -6321.8676   -1785.0314    16359.446    11.800097 
   23940    795.81234   -6410.8461   -6322.0721   -2826.8741    16375.271    11.813296 
   23950    801.02284   -6411.5426   -6322.1873   -2774.5585    16389.222    11.827401 
   23960    787.02599   -6410.0293   -6322.2354   -1756.7415    16401.289    11.842424 
   23970    778.29698   -6409.0289   -6322.2087   -1407.5889    16412.133    11.855443 
   23980    767.63216   -6407.7228   -6322.0923   -1539.8443    16422.029    11.859425 
   23990    777.78356   -6408.6608   -6321.8979   -2281.3469    16430.836    11.849624 
   24000    787.88056    -6409.533   -6321.6437   -3258.1031    16437.955    11.827346 
   24010    787.74921   -6409.2359   -6321.3613   -3721.9015    16442.587     11.79783 
   24020    802.07767   -6410.5448   -6321.0719   -4018.6836    16444.241    11.770135 
   24030    789.96607   -6408.9046   -6320.7827   -3762.3095    16442.627    11.751746 
   24040    774.65359   -6406.8951   -6320.4813   -3316.4735    16437.861    11.739143 
   24050    793.44892   -6408.6542   -6320.1437   -3345.6784    16430.178    11.728016 
   24060    804.71806   -6409.5338   -6319.7663   -2866.2218    16419.575    11.716725 
   24070    811.38443   -6409.8921   -6319.3809   -2233.7934    16406.354    11.701968 
   24080     816.7562   -6410.1096   -6318.9992   -2020.4936    16390.939    11.687974 
   24090    818.57504   -6409.9533   -6318.6401    -1291.677    16373.552    11.678008 
   24100    802.47831   -6407.7911   -6318.2734    -264.2656    16354.746    11.665608 
   24110    837.57389   -6411.3315   -6317.8989   -885.65476    16335.174    11.648994 
   24120    871.44982   -6414.7764   -6317.5649   -1807.3689    16314.441    11.638175 
   24130    859.06703   -6413.1683   -6317.3381   -1115.1758    16291.935    11.642214 
   24140    847.82313   -6411.7683   -6317.1923    210.92625    16268.096    11.661568 
   24150    852.81646   -6412.2155   -6317.0826    1480.1301     16243.94    11.690876 
   24160    860.52117   -6413.0101   -6317.0176    2888.3394    16220.541    11.723138 
   24170    835.84874   -6410.2465   -6317.0063    3884.0776    16199.012    11.749728 
   24180    834.13832   -6410.0797   -6317.0303    4249.4513    16180.172    11.763468 
   24190    853.81107   -6412.3442   -6317.1003    4560.9943    16164.401    11.765657 
   24200    862.58668   -6413.4587   -6317.2358    5081.6564    16152.035    11.762449 
   24210    875.27168    -6415.121   -6317.4831    5007.9062    16143.455    11.761523 
   24220    858.91635    -6413.668   -6317.8546    5198.2428    16138.754    11.767883 
   24230    835.06384   -6411.4816    -6318.329    5365.9808    16138.128    11.783711 
   24240    809.70756   -6409.1564   -6318.8323    4960.9604     16141.76    11.807119 
   24250    828.50292    -6411.763   -6319.3422    3018.6036    16149.327    11.827046 
   24260    838.73878   -6413.4205   -6319.8579    1146.2772    16159.511    11.838715 
   24270     838.4638   -6413.9256   -6320.3937   -329.25778    16170.863    11.846182 
   24280    839.28958   -6414.5626   -6320.9386   -1269.0814    16182.233    11.848145 
   24290     831.8615   -6414.2745   -6321.4791   -1497.6249    16192.873    11.842679 
   24300    834.14383   -6415.0726   -6322.0226   -1063.9282    16202.587    11.830884 
   24310    821.97124   -6414.2512    -6322.559   -136.88825    16211.681    11.820882 
   24320    814.96283   -6413.9643   -6323.0539    242.03028    16220.805    11.821187 
   24330    822.82601   -6415.2894    -6323.502    63.318456    16230.273    11.831076 
   24340    805.18998   -6413.7044   -6323.8842    291.52883    16240.044    11.847131 
   24350    813.94483   -6414.9945   -6324.1977   -606.75057    16250.178    11.859997 
   24360    822.37922   -6416.1961   -6324.4585   -1593.4569    16260.026    11.867244 
   24370     799.2844   -6413.8336   -6324.6723   -1354.0078    16268.854    11.872678 
   24380    787.17427   -6412.6216   -6324.8111   -682.87947    16276.789    11.875751 
   24390    798.25306   -6413.9072   -6324.8609   -646.06811    16284.279    11.879345 
   24400    814.32617   -6415.6957   -6324.8564   -931.42619    16291.371    11.890568 
   24410    821.30722   -6416.4518   -6324.8338   -1164.7155    16297.846    11.906095 
   24420    801.99377   -6414.2592   -6324.7956   -890.72018    16303.523    11.919561 
   24430    782.09592   -6411.9636   -6324.7196   -797.72068    16308.559     11.92654 
   24440    795.58015   -6413.3203   -6324.5721   -1956.6119    16312.952    11.930056 
   24450    823.58981   -6416.2383   -6324.3656   -3212.6379    16315.809    11.937534 
   24460    818.25674   -6415.4326   -6324.1548    -2914.772    16316.216    11.958459 
   24470     808.8691   -6414.1925   -6323.9619   -2696.7733    16314.241    11.995579 
   24480    800.87415    -6413.099   -6323.7603   -2271.8884    16310.064     12.04702 
   24490    807.32582   -6413.5983   -6323.5398   -2093.0229    16303.946    12.110335 
   24500    813.97048   -6414.0981   -6323.2985     -2252.19    16296.018    12.174867 
   24510    820.75367   -6414.6098   -6323.0535   -2271.9101     16286.16    12.227362 
   24520    820.45451   -6414.3306   -6322.8077   -1978.7393    16274.361    12.265346 
   24530    810.77127   -6412.9985   -6322.5557   -1673.7005    16260.829    12.297452 
   24540    812.93179   -6412.9731   -6322.2893   -990.09471    16245.836    12.328872 
   24550     827.8851   -6414.3722   -6322.0203   -696.34596    16229.848    12.363534 
   24560    827.75892   -6414.1125   -6321.7747    330.74097    16213.242    12.406063 
   24570    810.49816   -6411.9533    -6321.541    1161.8653    16196.764    12.456109 
   24580    827.62358   -6413.6212   -6321.2986    907.84449    16181.041    12.507894 
   24590    859.74604   -6416.9881   -6321.0821   -146.55021     16165.89    12.560039 
   24600    855.05133   -6416.3254   -6320.9431    284.99496    16150.683     12.61977 
   24610    857.57474   -6416.5561   -6320.8924    914.57359    16135.627    12.687366 
   24620    856.55555   -6416.4615   -6320.9115    1822.7158    16121.261    12.757981 
   24630    830.90979   -6413.6634   -6320.9741    3134.0868    16108.308    12.823752 
   24640    799.67494   -6410.2316   -6321.0266     4530.296    16097.811    12.875236 
   24650    802.38251   -6410.5404   -6321.0334    4472.6612    16090.762    12.903427 
   24660    819.24796   -6412.4021   -6321.0138    4105.6424    16087.202    12.909833 
   24670     811.1743    -6411.471   -6320.9833     4241.568    16086.916     12.90706 
   24680    839.62959   -6414.6148   -6320.9529    2872.9532    16089.857    12.903503 
   24690    865.53216   -6417.5024    -6320.951     1370.552    16095.077    12.907578 
   24700    853.55666   -6416.2353   -6321.0198    1201.1022    16101.511    12.929081 
   24710    845.10356   -6415.4116    -6321.139    968.86967    16108.901    12.963785 
   24720    839.18501   -6414.8943    -6321.282     527.9215    16117.063    12.995013 
   24730    843.72622   -6415.5638   -6321.4449   -182.94498    16125.646    13.007522 
   24740    836.88388   -6414.9853   -6321.6296   -344.46849    16134.166    13.002246 
   24750    826.27785   -6413.9958   -6321.8232   -98.421023    16142.474    12.993573 
   24760    840.46013    -6415.775   -6322.0204   -426.22183    16150.673     12.99167 
   24770    827.23859   -6414.5013   -6322.2215   -492.36283    16158.578    12.997674 
   24780    808.25171   -6412.5734   -6322.4117   -337.33857    16166.135    13.010297 
   24790    810.76782   -6412.9968   -6322.5545   -949.44197    16173.405    13.031204 
   24800    819.76016   -6414.0952   -6322.6498    -2055.144    16179.908    13.057038 
   24810    831.98715   -6415.5414    -6322.732    -2580.018    16184.828    13.080111 
   24820    823.34864   -6414.6627    -6322.817   -2005.0198    16187.797    13.099589 
   24830    797.15776   -6411.8085   -6322.8843   -730.16232    16189.221    13.118328 
   24840      785.656   -6410.5383   -6322.8972    671.45055    16190.085    13.137213 
   24850    804.50814   -6412.5834   -6322.8393    477.04929    16191.369    13.153848 
   24860    833.97717   -6415.7709   -6322.7395   -350.93091    16192.996    13.164963 
   24870     833.6318    -6415.638   -6322.6452   -205.54372    16194.427    13.170256 
   24880    814.36877    -6413.414     -6322.57    425.95242    16195.744    13.171791 
   24890    808.87888   -6412.7135   -6322.4818    434.80409    16197.359    13.170043 
   24900     806.4184   -6412.3229   -6322.3657    166.85736    16199.312     13.16524 
   24910    819.02946   -6413.5822   -6322.2182   -270.63327    16201.394    13.158984 
   24920    841.25477   -6415.9046   -6322.0614   -813.99124    16203.253    13.153483 
   24930    831.99478   -6414.7428   -6321.9325   -311.87903    16204.567     13.14491 
   24940    807.53519   -6411.9098   -6321.8281    740.48125    16205.688    13.128035 
   24950     808.9682   -6411.9466    -6321.705    580.44286    16207.325    13.103529 
   24960    821.51197   -6413.1875   -6321.5466   -413.63558    16209.391    13.079956 
   24970    816.48834   -6412.4453   -6321.3648   -484.68536    16211.212    13.062437 
   24980    792.16696   -6409.5071   -6321.1397    498.04219    16212.725    13.043192 
   24990    799.95115     -6410.07   -6320.8342    704.99459    16214.582    13.008486 
   25000    837.14107   -6413.8186   -6320.4343   -561.40962    16216.907    12.954178 
Loop time of 14124.6 on 16 procs for 20000 steps with 864 atoms

Performance: 0.122 ns/day, 196.175 hours/ns, 1.416 timesteps/s
95.1% CPU use with 16 MPI tasks x 1 OpenMP threads

MPI task timing breakdown:
Section |  min time  |  avg time  |  max time  |%varavg| %total
---------------------------------------------------------------
Pair    | 9795.6     | 11899      | 13926      |1176.0 | 84.25
Bond    | 0.0019395  | 0.0041542  | 0.0073955  |   2.5 |  0.00
Neigh   | 0.25722    | 0.31144    | 0.3847     |   6.5 |  0.00
Comm    | 181.24     | 1509.6     | 3528.2     |2094.8 | 10.69
Output  | 1.1443     | 1.1692     | 1.5358     |   8.8 |  0.01
Modify  | 16.052     | 714.05     | 2056.7     |2806.3 |  5.06
Other   |            | 0.08796    |            |       |  0.00

Nlocal:        54.0000 ave          62 max          47 min
Histogram: 2 0 3 1 5 0 2 1 1 1
Nghost:        628.188 ave         650 max         583 min
Histogram: 2 0 0 0 2 0 3 2 5 2
Neighs:         0.00000 ave           0 max           0 min
Histogram: 16 0 0 0 0 0 0 0 0 0
FullNghs:      2980.12 ave        3537 max        2343 min
Histogram: 1 2 0 0 3 4 3 1 1 1

Total # of neighbors = 47682
Ave neighs/atom = 55.187500
Ave special neighs/atom = 0.0000000
Neighbor list builds = 2000
Dangerous builds = 2000
unfix   3
                
Total wall time: 4:53:12
