LAMMPS (2 Aug 2023)
OMP_NUM_THREADS environment is not set. Defaulting to 1 thread. (src/comm.cpp:98)
  using 1 OpenMP thread(s) per MPI task
read_restart    ../structure.ready
Reading restart file ...
  restart file = 2 Aug 2023, LAMMPS = 2 Aug 2023
  restoring atom style full from restart
  orthogonal box = (-0.96561355 -0.92810536 -8.6502923) to (22.50209 22.464582 73.259722)
  1 by 1 by 1 MPI processor grid
  pair style chgnet/gpu stores no restart info
  1536 atoms
Finding 1-2 1-3 1-4 neighbors ...
  special bond factors lj:    0        0        0       
  special bond factors coul:  0        0        0       
     0 = max # of 1-2 neighbors
     0 = max # of 1-3 neighbors
     0 = max # of 1-4 neighbors
     1 = max # of special neighbors
  special bonds CPU = 0.000 seconds
  read_restart CPU = 0.032 seconds

pair_style      chgnet/gpu /ocean/projects/cts180021p/wuziqi/clease/lammps-ASC/potentials/CHGNET
pair_coeff      * * MPtrj-efsm Cl K Li

neighbor        0.3 bin
neigh_modify    delay 10

timestep	    0.001
compute	        msd all msd
Resetting peratom fix info from restart file:
  fix style: STORE/ATOM, fix ID: msd_COMPUTE_STORE
thermo_style	custom step temp pe etotal press vol c_msd[4]
thermo	        10
dump	        1 all custom 10 xyz-mix.dump type id x y z
dump	        2 all custom 10 force-mix.dump type id fx fy fz

fix             2 gLiquid npt temp 1500 1050.0 $(100.0*dt) z 1.01325 1.01325 $(1000.0*dt) couple none
fix             2 gLiquid npt temp 1500 1050.0 0.10000000000000000555 z 1.01325 1.01325 $(1000.0*dt) couple none
fix             2 gLiquid npt temp 1500 1050.0 0.10000000000000000555 z 1.01325 1.01325 1 couple none
run             10000
All restart file peratom fix info was re-assigned
Neighbor list info ...
  update: every = 1 steps, delay = 10 steps, check = yes
  max neighbors/atom: 2000, page size: 100000
  master list distance cutoff = 6.3
  ghost atom cutoff = 6.3
  binsize = 3.15, bins = 8 8 27
  1 neighbor lists, perpetual/occasional/extra = 1 0 0
  (1) pair chgnet/gpu, perpetual
      attributes: full, newton on
      pair build: full/bin
      stencil: full/bin/3d
      bin: standard
Per MPI rank memory allocation (min/avg/max) = 6.552 | 6.552 | 6.552 Mbytes
   Step          Temp          PotEng         TotEng         Press          Volume        c_msd[4]   
     20000   1489.388      -5641.9182     -5346.4023      4439.9636      44966.358      56.411627    
     20010   1487.2114     -5641.4344     -5346.3504      4458.9558      44966.468      56.609392    
     20020   1520.5951     -5647.9966     -5346.2887      4149.6104      44966.634      56.793892    
     20030   1505.4703     -5644.9526     -5346.2458      4181.3208      44966.667      56.997407    
     20040   1496.5929     -5643.2153     -5346.2699      4211.5921      44966.564      57.200751    
     20050   1480.5761     -5640.033      -5346.2655      4267.3289      44966.337      57.386399    
     20060   1484.6776     -5640.8049     -5346.2236      4174.1187      44965.683      57.563154    
     20070   1478.242      -5639.4155     -5346.1111      4133.5235      44964.335      57.741131    
     20080   1495.0164     -5642.5858     -5345.9532      3929.7685      44962.577      57.926961    
     20090   1491.7742     -5641.7307     -5345.7413      3940.3313      44960.583      58.126654    
     20100   1522.1106     -5647.5337     -5345.5252      3802.8288      44958.323      58.315373    
     20110   1527.1801     -5648.3621     -5345.3477      4398.8107      44955.712      58.481818    
     20120   1510.213      -5644.9039     -5345.256       5474.3373      44953.287      58.648693    
     20130   1508.1164     -5644.4542     -5345.2223      5893.8065      44951.728      58.840549    
     20140   1501.4616     -5643.1417     -5345.2302      5913.6404      44951.365      59.048359    
     20150   1497.1651     -5642.343      -5345.284       5720.1746      44952.536      59.260282    
     20160   1493.3915     -5641.6783     -5345.3681      5433.2487      44955.226      59.458865    
     20170   1477.555      -5638.6208     -5345.4528      5476.8924      44958.726      59.642435    
     20180   1487.1344     -5640.5991     -5345.5303      5275.4722      44962.683      59.838845    
     20190   1503.759      -5643.9653     -5345.598       4983.9952      44966.948      60.057465    
     20200   1497.9127     -5642.9231     -5345.7158      4890.1339      44971.047      60.271643    
     20210   1487.9749     -5641.1129     -5345.8774      4982.2732      44974.578      60.463297    
     20220   1492.1399     -5642.1112     -5346.0493      4807.0661      44977.324      60.630109    
     20230   1527.5508     -5649.3867     -5346.2988      4315.1799      44979.188      60.777079    
     20240   1533.8004     -5651.0336     -5346.7056      4309.8729      44980.378      60.927317    
     20250   1526.8341     -5650.2891     -5347.3433      4745.312       44981.113      61.099725    
     20260   1481.2669     -5642.0237     -5348.1191      5494.248       44981.678      61.294071    
     20270   1463.5462     -5639.3405     -5348.9519      5611.2255      44982.709      61.501339    
     20280   1474.8546     -5642.3914     -5349.7591      5197.5284      44984.653      61.725444    
     20290   1470.7899     -5642.3829     -5350.5572      4788.0123      44987.304      61.936074    
     20300   1450.8105     -5639.1921     -5351.3305      4691.1182      44990.397      62.138221    
     20310   1483.8555     -5646.4468     -5352.0286      4464.7199      44993.764      62.346911    
     20320   1518.9966     -5654.1504     -5352.7597      4467.5048      44997.086      62.544209    
     20330   1502.5827     -5651.74       -5353.6061      4943.8019      45000.378      62.728982    
     20340   1495.5731     -5651.306      -5354.5629      5103.6416      45004.179      62.924273    
     20350   1472.9102     -5647.7867     -5355.5403      4991.3916      45008.843      63.140061    
     20360   1447.8449     -5643.761      -5356.4878      4856.8084      45014.257      63.35941     
     20370   1414.9896     -5638.025      -5357.2708      5174.0078      45020.147      63.566784    
     20380   1436.3398     -5642.8425     -5357.8521      5046.7392      45026.653      63.761275    
     20390   1495.3768     -5655.0344     -5358.3302      4350.9267      45033.859      63.948843    
     20400   1482.9206     -5653.0463     -5358.8136      4554.9264      45041.579      64.163457    
     20410   1451.4819     -5647.2825     -5359.2877      4856.3149      45049.713      64.406625    
     20420   1430.7566     -5643.5413     -5359.6587      4722.7857      45058.445      64.630348    
     20430   1435.4101     -5644.719      -5359.9131      4421.8636      45067.79       64.818206    
     20440   1399.4019     -5637.6218     -5359.9604      4550.0683      45077.533      65.013408    
     20450   1400.4994     -5637.6478     -5359.7687      4402.3429      45087.615      65.248082    
     20460   1429.1206     -5642.8704     -5359.3124      4094.0799      45098.237      65.515591    
     20470   1438.2775     -5643.988      -5358.6132      4188.8611      45109.864      65.788839    
     20480   1443.1411     -5644.073      -5357.7331      4548.1879      45122.476      66.038142    
     20490   1457.5698     -5645.87       -5356.6673      4397.0723      45136.067      66.261357    
     20500   1453.9398     -5643.9463     -5355.4638      4153.7194      45150.808      66.455995    
     20510   1471.7997     -5646.1498     -5354.1236      3844.7683      45166.589      66.61957     
     20520   1493.9694     -5649.1414     -5352.7164      3583.6876      45182.994      66.785748    
     20530   1498.6558     -5648.7012     -5351.3464      3549.4608      45199.547      66.995288    
     20540   1533.9064     -5654.4518     -5350.1028      3227.2643      45216.007      67.257214    
     20550   1539.6592     -5654.573      -5349.0826      3443.7365      45232.032      67.54057     
     20560   1511.5273     -5648.2401     -5348.3314      4307.5886      45247.655      67.81031     
     20570   1509.9145     -5647.3923     -5347.8037      4461.2278      45263.551      68.069454    
     20580   1534.9461     -5651.9777     -5347.4224      3514.0562      45280.027      68.323523    
     20590   1537.0586     -5652.2227     -5347.2482      2948.0528      45296.465      68.560739    
     20600   1503.0847     -5645.5433     -5347.3098      3333.2647      45312.462      68.793431    
     20610   1483.2283     -5641.7856     -5347.4919      3627.2469      45328.412      69.04133     
     20620   1493.6724     -5644.0972     -5347.7312      3348.6142      45344.578      69.293249    
     20630   1496.5321     -5644.9402     -5348.0068      3371.44        45360.828      69.545942    
     20640   1500.9974     -5646.2106     -5348.3912      3235.751       45377.091      69.791831    
     20650   1497.031      -5645.8821     -5348.8497      3104.8744      45393.092      69.994514    
     20660   1464.5883     -5639.9773     -5349.382       3594.5248      45408.939      70.156947    
     20670   1443.1173     -5636.2207     -5349.8856      3922.8893      45425.062      70.336104    
     20680   1429.5324     -5633.9095     -5350.2698      4205.1389      45441.347      70.545873    
     20690   1443.2157     -5636.8916     -5350.5369      4310.3438      45457.845      70.788808    
     20700   1456.9791     -5639.8154     -5350.7299      4285.2652      45475.089      71.058691    
     20710   1445.1059     -5637.5881     -5350.8584      4207.7884      45493.429      71.343367    
     20720   1460.2911     -5640.6694     -5350.9268      3573.5769      45512.585      71.629386    
     20730   1448.3051     -5638.2872     -5350.9228      3230.6774      45532.111      71.895041    
     20740   1460.4521     -5640.6709     -5350.8963      2974.8485      45551.916      72.1367      
     20750   1448.2305     -5638.1547     -5350.805       3223.1509      45571.689      72.387046    
     20760   1448.0537     -5637.9679     -5350.6533      3697.5488      45591.163      72.682187    
     20770   1475.324      -5643.1633     -5350.4379      3637.3782      45610.827      73.026137    
     20780   1460.2798     -5639.9231     -5350.1827      3763.0947      45631.26       73.387482    
     20790   1424.239      -5632.4143     -5349.8249      3911.433       45652.796      73.737785    
     20800   1441.4786     -5635.2426     -5349.2326      3133.5827      45675.354      74.046855    
     20810   1465.4265     -5639.0391     -5348.2775      2524.8019      45698.502      74.308122    
     20820   1487.2667     -5642.0493     -5346.9543      2109.5572      45721.76       74.533551    
     20830   1499.8023     -5642.9224     -5345.3401      2086.7343      45744.467      74.74204     
     20840   1497.0614     -5640.601      -5343.5625      2476.0536      45766.166      74.955355    
     20850   1515.2039     -5642.3298     -5341.6917      2225.846       45786.968      75.178861    
     20860   1532.7647     -5644.0232     -5339.9007      1691.8597      45806.912      75.40244     
     20870   1505.0521     -5636.9846     -5338.3607      1701.6107      45825.573      75.619174    
     20880   1466.4662     -5628.026      -5337.0581      2058.4726      45842.757      75.85176     
     20890   1459.6459     -5625.4552     -5335.8405      2205.6013      45858.713      76.114149    
     20900   1473.2261     -5626.9717     -5334.6625      2093.0679      45873.41       76.386953    
     20910   1481.3337     -5627.5074     -5333.5896      1978.3155      45886.723      76.653187    
     20920   1469.5058     -5624.2141     -5332.6431      2342.1906      45898.924      76.901582    
     20930   1461.3508     -5621.7312     -5331.7783      3017.1991      45910.45       77.139144    
     20940   1465.6627     -5621.7781     -5330.9696      3900.9002      45921.446      77.391761    
     20950   1477.0425     -5623.292      -5330.2256      4437.4457      45932.032      77.649157    
     20960   1482.813      -5623.7454     -5329.534       4521.3877      45942.321      77.897704    
     20970   1506.1582     -5627.8359     -5328.9926      4024.7647      45952.12       78.101826    
     20980   1501.3836     -5626.4714     -5328.5754      3873.9469      45961.377      78.259392    
     20990   1509.0322     -5627.7986     -5328.385       3661.8222      45970.231      78.410427    
     21000   1495.4894     -5625.0883     -5328.3617      3815.5309      45978.536      78.581201    
     21010   1492.7957     -5624.6957     -5328.5036      3818.7444      45986.446      78.760762    
     21020   1515.5869     -5629.5146     -5328.8005      3452.5546      45994.26       78.938837    
     21030   1514.7056     -5629.8743     -5329.335       3434.3571      46002.114      79.107214    
     21040   1496.1044     -5626.9365     -5330.088       3411.4846      46009.906      79.265522    
     21050   1510.8051     -5630.8132     -5331.0479      2954.7826      46017.463      79.423993    
     21060   1497.3398     -5629.3176     -5332.224       2791.0193      46024.302      79.590315    
     21070   1470.4782     -5625.2974     -5333.5334      2818.708       46030.304      79.754739    
     21080   1487.7407     -5630.1101     -5334.9211      2274.7271      46035.563      79.875808    
     21090   1494.6604     -5632.9581     -5336.3961      1913.8386      46039.899      79.962081    
     21100   1483.448      -5632.303      -5337.9656      2116.8186      46042.92       80.081257    
     21110   1434.6692     -5624.0896     -5339.4307      2618.1206      46044.553      80.239977    
     21120   1438.7905     -5626.1682     -5340.6916      2521.7087      46045.059      80.3936      
     21130   1448.7679     -5629.2103     -5341.754       2452.741       46044.606      80.53813     
     21140   1440.9889     -5628.5885     -5342.6757      3029.2973      46043.471      80.686983    
     21150   1426.8375     -5626.5103     -5343.4053      3452.2767      46041.827      80.820975    
     21160   1454.909      -5632.652      -5343.9772      3055.8824      46039.463      80.951699    
     21170   1469.0447     -5636.0171     -5344.5376      2698.0478      46035.564      81.084494    
     21180   1443.6438     -5631.4867     -5345.0471      2743.0342      46029.565      81.202453    
     21190   1448.9649     -5633.0475     -5345.5521      2796.324       46021.491      81.304992    
     21200   1437.7797     -5631.2395     -5345.9634      2897.5173      46011.605      81.38101     
     21210   1449.1816     -5633.881      -5346.3426      2765.7394      46000.019      81.435665    
     21220   1459.4562     -5636.2778     -5346.7008      2353.7333      45986.79       81.499052    
     21230   1472.5314     -5639.2958     -5347.1244      2121.7674      45971.935      81.572637    
     21240   1443.7734     -5634.0282     -5347.5629      2255.0738      45955.62       81.635886    
     21250   1429.9646     -5631.7189     -5347.9934      1968.7464      45938.038      81.676922    
     21260   1421.4349     -5630.3983     -5348.3653      1852.1127      45919.212      81.705388    
     21270   1428.2143     -5632.0312     -5348.6531      1761.568       45899.001      81.731826    
     21280   1446.0458     -5635.8223     -5348.9061      1768.9497      45877.413      81.74016     
     21290   1446.1157     -5636.0709     -5349.1409      1861.7507      45854.773      81.733325    
     21300   1445.6591     -5636.2427     -5349.4032      2099.351       45831.376      81.740654    
     21310   1450.9224     -5637.5724     -5349.6886      2322.6148      45807.224      81.756704    
     21320   1473.2879     -5642.3401     -5350.0187      2708.7484      45782.516      81.774665    
     21330   1463.8482     -5640.8701     -5350.4217      3258.2552      45757.585      81.792915    
     21340   1478.8013     -5644.3931     -5350.9777      2960.837       45732.658      81.796682    
     21350   1448.6001     -5639.061      -5351.638       2799.4215      45707.648      81.783648    
     21360   1419.4947     -5634.0029     -5352.3549      2610.9876      45682.612      81.76025     
     21370   1427.7319     -5636.3503     -5353.0679      2062.611       45657.222      81.745108    
     21380   1424.0494     -5636.3328     -5353.781       2052.4478      45630.804      81.73385     
     21390   1427.1325     -5637.6735     -5354.5099      2266.0488      45603.242      81.700264    
     21400   1388.6634     -5630.7188     -5355.188       3016.334       45574.828      81.61818     
     21410   1391.4269     -5631.8269     -5355.7479      3265.7282      45545.934      81.498       
     21420   1426.6985     -5639.2947     -5356.2173      3187.0131      45516.813      81.374124    
     21430   1438.926      -5642.2061     -5356.7025      3464.5334      45487.351      81.278723    
     21440   1417.888      -5638.5359     -5357.2066      3809.8888      45457.786      81.229885    
     21450   1441.836      -5643.8459     -5357.765       3367.6149      45428.485      81.231958    
     21460   1467.1771     -5649.5519     -5358.4429      2840.1913      45399.115      81.227927    
     21470   1462.6581     -5649.5977     -5359.3853      3008.8281      45369.446      81.192427    
     21480   1426.6821     -5643.5991     -5360.525       4001.0236      45340.1        81.130264    
     21490   1416.7829     -5642.9517     -5361.8416      4593.2239      45311.728      81.048883    
     21500   1422.3316     -5645.5331     -5363.3221      4609.9145      45284.367      80.94483     
     21510   1388.0505     -5640.2941     -5364.885       4574.4818      45258.339      80.813111    
     21520   1371.9584     -5638.611      -5366.3948      4101.7802      45233.824      80.666082    
     21530   1427.9506     -5651.2255     -5367.8996      2983.558       45210.089      80.518215    
     21540   1433.7066     -5653.8746     -5369.4067      3144.1707      45185.888      80.394618    
     21550   1432.1383     -5655.0835     -5370.9267      3843.143       45161.069      80.327111    
     21560   1405.2535     -5651.1606     -5372.3382      4435.5551      45136.145      80.313703    
     21570   1416.6886     -5654.6763     -5373.585       3998.8935      45111.47       80.316067    
     21580   1425.5421     -5657.5419     -5374.6939      3249.0323      45087.031      80.315771    
     21590   1399.6593     -5653.3656     -5375.6531      3212.819       45062.564      80.305078    
     21600   1392.8785     -5652.7914     -5376.4243      3479.0729      45038.048      80.294383    
     21610   1401.538      -5655.063      -5376.9778      3933.465       45013.638      80.274783    
     21620   1410.289      -5657.194      -5377.3724      4303.356       44989.568      80.222813    
     21630   1420.9775     -5659.6165     -5377.6742      4269.5651      44966.232      80.136987    
     21640   1419.7691     -5659.6157     -5377.9132      4293.6709      44943.789      80.037804    
     21650   1415.7675     -5659.0188     -5378.1102      4075.8278      44922.465      79.948356    
     21660   1397.2451     -5655.4684     -5378.235       3832.5752      44902.027      79.877181    
     21670   1409.884      -5658.0487     -5378.3075      3203.6983      44882.166      79.837437    
     21680   1392.2057     -5654.5302     -5378.2966      3607.5887      44862.779      79.839122    
     21690   1342.3141     -5644.4854     -5378.151       4943.5115      44844.012      79.862597    
     21700   1361.1244     -5647.8625     -5377.796       5513.7234      44826.339      79.864538    
     21710   1415.6182     -5658.1263     -5377.2474      5208.2219      44810.126      79.825567    
     21720   1429.1721     -5660.2394     -5376.6712      5158.0505      44795.379      79.791161    
     21730   1395.2919     -5652.9763     -5376.1304      5529.6792      44782.055      79.794805    
     21740   1382.8746     -5649.9426     -5375.5605      5754.3268      44770.181      79.810668    
     21750   1414.6383     -5655.6017     -5374.9172      5053.9729      44759.757      79.816264    
     21760   1430.1109     -5658.0143     -5374.2598      4357.5925      44750.497      79.850683    
     21770   1423.8344     -5656.1635     -5373.6543      4221.6703      44741.937      79.92814     
     21780   1422.9518     -5655.453      -5373.119       4495.8871      44733.739      80.005188    
     21790   1427.0975     -5655.7961     -5372.6396      4891.3618      44725.95       80.074415    
     21800   1435.6195     -5657.0431     -5372.1956      5322.5889      44719.279      80.132638    
     21810   1444.6892     -5658.4794     -5371.8323      5574.934       44714.548      80.18332     
     21820   1454.4362     -5660.1617     -5371.5808      5379.0133      44712.072      80.273425    
     21830   1453.3459     -5659.8457     -5371.4811      4743.0252      44711.529      80.408026    
     21840   1427.1986     -5654.6733     -5371.4967      4447.6676      44712.243      80.537355    
     21850   1378.5233     -5645.0464     -5371.5276      4428.4379      44713.93       80.619697    
     21860   1364.7333     -5642.235      -5371.4524      4197.982       44716.583      80.675121    
     21870   1365.1981     -5642.0933     -5371.2184      4403.0998      44720.04       80.74298     
     21880   1387.8027     -5646.1857     -5370.8257      4713.5647      44723.893      80.806618    
     21890   1410.8221     -5650.2656     -5370.3383      4787.3716      44728.022      80.871006    
     21900   1407.4655     -5649.1069     -5369.8456      4552.8057      44732.529      80.953484    
     21910   1426.1784     -5652.3223     -5369.3481      4041.5759      44737.278      81.046277    
     21920   1456.2315     -5657.851      -5368.9138      3778.468       44741.934      81.136415    
     21930   1432.1513     -5652.7687     -5368.6094      4367.6918      44746.287      81.237015    
     21940   1391.2188     -5644.4213     -5368.3835      5024.6906      44750.267      81.356999    
     21950   1410.6223     -5647.9958     -5368.1082      4747.0716      44753.957      81.470898    
     21960   1436.3568     -5652.8419     -5367.8482      4473.2467      44757.442      81.571017    
     21970   1418.4014     -5649.0696     -5367.6384      4712.1612      44760.763      81.675363    
     21980   1435.3655     -5652.2952     -5367.4981      4607.174       44764.014      81.782078    
     21990   1453.888      -5655.9141     -5367.4419      4529.7312      44767.203      81.888927    
     22000   1446.7944     -5654.5829     -5367.5182      4992.8041      44770.286      82.012499    
     22010   1429.7443     -5651.4445     -5367.7627      5499.5274      44773.386      82.167924    
     22020   1418.6558     -5649.5438     -5368.0622      6066.3486      44776.938      82.342893    
     22030   1430.0945     -5652.1465     -5368.3953      6127.3334      44781.664      82.496224    
     22040   1424.0155     -5651.3701     -5368.825       5653.7837      44787.613      82.635401    
     22050   1384.3413     -5643.9543     -5369.2812      5069.3087      44794.372      82.784747    
     22060   1391.0901     -5645.7089     -5369.6967      4147.5418      44801.467      82.92943     
     22070   1404.0955     -5648.6763     -5370.0836      3892.3308      44808.168      83.04885     
     22080   1392.9231     -5646.8588     -5370.4829      4450.5372      44814.349      83.149828    
     22090   1414.2323     -5651.5364     -5370.9324      4598.9304      44820.586      83.259415    
     22100   1420.5617     -5653.3729     -5371.5131      4485.1514      44827.024      83.393775    
     22110   1414.0038     -5652.8987     -5372.3401      4354.6925      44833.565      83.561171    
     22120   1405.7792     -5652.4786     -5373.5519      4256.284       44840.381      83.769111    
     22130   1385.9735     -5650.2012     -5375.2042      4342.2428      44847.373      83.977415    
     22140   1399.5314     -5655.0857     -5377.3986      3705.7779      44854.303      84.163794    
     22150   1378.2765     -5653.4769     -5380.0071      3515.0917      44861.201      84.333239    
     22160   1379.7364     -5656.4539     -5382.6944      3708.4419      44868.37       84.468098    
     22170   1383.4421     -5659.6366     -5385.1419      4095.2829      44875.879      84.576395    
     22180   1361.0451     -5657.1877     -5387.1369      4558.4848      44883.797      84.675576    
     22190   1355.6698     -5657.6213     -5388.637       4155.3346      44892.293      84.762115    
     22200   1377.7987     -5663.1086     -5389.7336      3522.7463      44901.454      84.860306    
     22210   1386.9534     -5665.7754     -5390.584       3167.9917      44911.068      84.990395    
     22220   1360.4929     -5661.1901     -5391.2488      3354.8235      44920.824      85.161438    
     22230   1339.7445     -5657.5463     -5391.7218      3480.9838      44930.91       85.357965    
     22240   1324.7077     -5654.7905     -5391.9495      3484.7197      44941.459      85.556707    
     22250   1327.2619     -5655.271      -5391.9232      3457.8515      44952.392      85.763482    
     22260   1359.8772     -5661.5116     -5391.6925      3357.2574      44963.589      85.985236    
     22270   1352.9868     -5659.7512     -5391.2993      3732.4342      44974.737      86.195824    
     22280   1329.1605     -5654.4771     -5390.7526      4242.5665      44985.687      86.368432    
     22290   1318.578      -5651.6389     -5390.0142      4252.5029      44996.808      86.51839     
     22300   1301.6363     -5647.2843     -5389.021       3975.8699      45008.135      86.677356    
     22310   1308.8862     -5647.4583     -5387.7565      3263.9646      45019.125      86.849569    
     22320   1308.4424     -5645.8429     -5386.2292      3181.7825      45029.216      87.034637    
     22330   1340.2297     -5650.4689     -5384.5481      2782.3234      45038.451      87.256481    
     22340   1359.1585     -5652.4702     -5382.7937      2745.3007      45047.075      87.500413    
     22350   1375.4519     -5654.0493     -5381.14        2883.1136      45055.33       87.739821    
     22360   1393.1106     -5656.0514     -5379.6383      2871.648       45063.274      87.981472    
     22370   1390.4668     -5654.2434     -5378.3549      3175.9617      45070.896      88.196825    
     22380   1399.4335     -5654.907      -5377.2393      3310.2513      45078.439      88.369197    
     22390   1406.6807     -5655.3735     -5376.2679      3532.7223      45086.126      88.489218    
     22400   1412.2442     -5655.6577     -5375.4482      3700.8392      45093.993      88.573587    
     22410   1415.3637     -5655.5896     -5374.7612      3632.026       45101.799      88.650936    
     22420   1397.4313     -5651.4836     -5374.2133      3935.5407      45109.442      88.739251    
     22430   1406.5475     -5652.7859     -5373.7067      3698.916       45117.218      88.834618    
     22440   1411.2209     -5653.2949     -5373.2885      3423.5195      45125.079      88.952887    
     22450   1388.9297     -5648.5323     -5372.9488      3780.7654      45132.807      89.113688    
     22460   1388.5952     -5648.131      -5372.6138      3731.0462      45140.549      89.330509    
     22470   1407.0986     -5651.4822     -5372.2937      3406.7425      45148.471      89.581381    
     22480   1413.4825     -5652.4834     -5372.0282      3546.6851      45156.623      89.853563    
     22490   1400.8984     -5649.7983     -5371.84        3920.2523      45165.131      90.147424    
     22500   1385.8122     -5646.6401     -5371.6751      4113.3503      45173.829      90.429671    
     22510   1402.8469     -5649.9009     -5371.556       3878.9473      45182.338      90.65644     
     22520   1384.057      -5646.0414     -5371.4247      3983.8805      45190.448      90.866718    
     22530   1397.7557     -5648.6506     -5371.3159      3496.979       45198.221      91.091626    
     22540   1407.7151     -5650.5308     -5371.2199      2854.9575      45205.358      91.300868    
     22550   1417.5599     -5652.4753     -5371.2111      2613.7711      45211.201      91.456086    
     22560   1417.4705     -5652.5728     -5371.3263      2697.2306      45215.561      91.564394    
     22570   1409.7587     -5651.287      -5371.5707      2894.1088      45218.422      91.633099    
     22580   1398.3541     -5649.3519     -5371.8984      3040.2695      45219.905      91.671817    
     22590   1427.2786     -5655.5541     -5372.3616      2566.8119      45220.32       91.737894    
     22600   1428.1938     -5656.3799     -5373.0058      2347.624       45219.811      91.851399    
     22610   1423.7555     -5656.3499     -5373.8564      2547.4591      45218.653      92.016623    
     22620   1423.7359     -5657.4155     -5374.9259      3112.1383      45216.969      92.235928    
     22630   1400.6462     -5654.0555     -5376.1473      3598.0825      45214.744      92.485388    
     22640   1395.3284     -5654.328      -5377.4749      3681.3665      45212.118      92.739165    
     22650   1385.596      -5653.7542     -5378.8321      3654.7384      45209.117      92.992279    
     22660   1381.597      -5654.2961     -5380.1675      3393.276       45205.807      93.251837    
     22670   1398.4076     -5658.9302     -5381.4661      2539.9359      45202.088      93.490345    
     22680   1382.6924     -5657.0577     -5382.7118      2126.6186      45197.576      93.697294    
     22690   1361.4457     -5653.9695     -5383.8392      2151.6467      45192          93.879934    
     22700   1350.0543     -5652.6844     -5384.8143      2348.5373      45185.4        94.024635    
     22710   1343.7299     -5652.1882     -5385.573       2675.8175      45178.127      94.130966    
     22720   1349.9474     -5653.9907     -5386.1418      2898.4753      45170.727      94.222333    
     22730   1339.8927     -5652.4211     -5386.5672      3221.233       45163.512      94.307854    
     22740   1316.3341     -5647.983      -5386.8035      3274.3195      45156.751      94.389825    
     22750   1330.3432     -5650.8142     -5386.8551      2786.8673      45150.377      94.450714    
     22760   1353.1862     -5655.2377     -5386.7461      2428.6336      45143.916      94.511493    
     22770   1354.9925     -5655.4146     -5386.5646      2657.1424      45136.934      94.589478    
     22780   1352.4249     -5654.6459     -5386.3054      3364.2596      45129.557      94.690625    
     22790   1374.3747     -5658.7123     -5386.0166      3651.9889      45122.59       94.807527    
     22800   1381.1168     -5659.756      -5385.7226      3760.3106      45116.241      94.912976    
     22810   1364.1816     -5656.1228     -5385.4496      4323.346       45110.295      95.015027    
     22820   1348.0859     -5652.6273     -5385.1478      5000.0009      45104.985      95.135807    
     22830   1378.5881     -5658.3237     -5384.7921      4764.0104      45100.599      95.279875    
     22840   1367.8344     -5655.8353     -5384.4374      4434.6925      45096.688      95.450047    
     22850   1388.2188     -5659.5428     -5384.1004      3518.6145      45092.668      95.616481    
     22860   1401.8714     -5661.9573     -5383.8059      2373.0554      45088.283      95.762503    
     22870   1400.762      -5661.5391     -5383.6078      2157.8177      45083.366      95.88143     
     22880   1393.1952     -5659.9702     -5383.5403      2503.6773      45077.974      95.989007    
     22890   1344.4586     -5650.2671     -5383.5072      3186.5197      45072.501      96.116109    
     22900   1345.0634     -5650.2935     -5383.4136      3246.3203      45067.119      96.298865    
     22910   1371.1679     -5655.275      -5383.2157      2547.7554      45061.573      96.500664    
     22920   1402.4929     -5661.3193     -5383.0447      2080.5706      45055.326      96.678103    
     22930   1396.735      -5660.0929     -5382.9607      2583.3494      45047.997      96.840182    
     22940   1384.3941     -5657.6294     -5382.9458      3008.0515      45039.914      97.007665    
     22950   1415.5432     -5663.9        -5383.036       2426.1631      45031.453      97.174231    
     22960   1412.4475     -5663.5767     -5383.3268      2259.5151      45022.193      97.319159    
     22970   1384.7964     -5658.5735     -5383.8101      2703.2633      45012.026      97.415381    
     22980   1377.907      -5657.9176     -5384.5211      2977.4691      45001.306      97.47036     
     22990   1378.945      -5659.0283     -5385.4259      2786.8318      44990.436      97.499988    
     23000   1391.3785     -5662.6707     -5386.6012      2434.0461      44979.388      97.55003     
     23010   1391.7136     -5664.2802     -5388.1442      2352.7158      44967.92       97.628877    
     23020   1347.5253     -5657.2852     -5389.9168      2830.3804      44956.154      97.706173    
     23030   1351.9216     -5660.0391     -5391.7985      2775.1883      44944.6        97.76328     
     23040   1317.9816     -5655.1274     -5393.621       3111.7482      44933.167      97.82335     
     23050   1277.6344     -5648.6495     -5395.1486      3309.3223      44921.933      97.909199    
     23060   1281.8254     -5650.6165     -5396.2839      3234.4316      44911.208      98.013111    
     23070   1282.1017     -5651.4265     -5397.0392      3426.8532      44901.011      98.102397    
     23080   1305.199      -5656.4897     -5397.5196      3468.1113      44891.045      98.154145    
     23090   1309.3884     -5657.5693     -5397.7679      4091.5228      44881.045      98.174965    
     23100   1327.3679     -5661.2076     -5397.8388      4556.4219      44871.194      98.187893    
     23110   1351.4575     -5665.957      -5397.8085      4498.6317      44861.709      98.210871    
     23120   1352.0398     -5665.9786     -5397.7146      4373.0884      44852.59       98.252397    
     23130   1343.5843     -5664.2142     -5397.6279      4285.6673      44843.808      98.309514    
     23140   1360.6571     -5667.4779     -5397.5041      3919.9115      44835.082      98.363438    
     23150   1343.357      -5663.8828     -5397.3416      4126.865       44826.185      98.385389    
     23160   1353.223      -5665.6586     -5397.1597      3870.1485      44817.441      98.351809    
     23170   1361.2151     -5667.037      -5396.9524      3560.3813      44809.201      98.29026     
     23180   1364.5072     -5667.486      -5396.7482      3350.1119      44801.461      98.250717    
     23190   1362.171      -5666.833      -5396.5588      3520.1053      44794.033      98.269169    
     23200   1356.9787     -5665.6501     -5396.4061      4108.0974      44786.799      98.353646    
     23210   1337.2253     -5661.5486     -5396.2239      5232.1295      44779.881      98.489952    
     23220   1349.3556     -5663.7363     -5396.0048      5627.8903      44774.009      98.660647    
     23230   1375.639      -5668.663      -5395.7165      5158.2173      44769.622      98.836209    
     23240   1369.8671     -5667.2834     -5395.4822      4831.6821      44766.542      99.024533    
     23250   1339.3959     -5661.0377     -5395.2824      4841.2009      44764.343      99.222191    
     23260   1301.9482     -5653.3202     -5394.995       5136.2804      44762.966      99.412276    
     23270   1333.7755     -5659.1924     -5394.5522      4550.9976      44762.711      99.570787    
     23280   1362.179      -5664.2036     -5393.9278      4167.1284      44763.283      99.681024    
     23290   1346.3026     -5660.332      -5393.2063      4717.6301      44764.116      99.732735    
     23300   1363.3778     -5662.8981     -5392.3844      4746.6256      44765.17       99.727632    
     23310   1367.0368     -5662.6875     -5391.4478      4580.4137      44766.719      99.742971    
     23320   1373.835      -5663.0215     -5390.4329      4173.3643      44769.04       99.841743    
     23330   1356.9477     -5658.5834     -5389.3455      4170.6198      44772.141      100.01254    
     23340   1341.4479     -5654.3485     -5388.186       4225.472       44775.853      100.18711    
     23350   1342.245      -5653.1759     -5386.8553      4215.2241      44780.318      100.34349    
     23360   1364.627      -5656.1638     -5385.4023      4177.304       44785.929      100.51216    
     23370   1383.7641     -5658.4618     -5383.9032      4053.6785      44792.939      100.70901    
     23380   1420.6403     -5664.3798     -5382.5044      3810.084       44801.101      100.89419    
     23390   1452.6023     -5669.5844     -5381.3672      3935.992       44810.094      101.02454    
     23400   1436.4608     -5665.6348     -5380.6204      4612.0916      44819.67       101.14625    
     23410   1432.5022     -5664.4882     -5380.2592      4833.7047      44829.975      101.27978    
     23420   1437.052      -5665.3696     -5380.2379      4523.2287      44841.43       101.41073    
     23430   1448.3718     -5667.9423     -5380.5646      4009.0125      44854.167      101.5573     
     23440   1416.4497     -5662.2773     -5381.2334      3912.3367      44867.879      101.71654    
     23450   1382.585      -5656.4623     -5382.1376      4201.3656      44882.446      101.89506    
     23460   1361.2993     -5653.2466     -5383.1453      4438.1134      44897.743      102.10699    
     23470   1377.6038     -5657.5334     -5384.1971      3897.4         44913.65       102.35181    
     23480   1367.9984     -5656.7395     -5385.309       3587.439       44929.912      102.60918    
     23490   1353.1422     -5654.8857     -5386.4029      3769.3998      44946.47       102.85267    
     23500   1361.304      -5657.551      -5387.4488      3493.3333      44963.076      103.0541     
     23510   1358.3807     -5657.9487     -5388.4265      3174.2318      44979.42       103.19696    
     23520   1380.1528     -5663.2317     -5389.3896      2799.6746      44995.404      103.28513    
     23530   1361.0095     -5660.3408     -5390.297       2995.5722      45010.987      103.36135    
     23540   1359.7881     -5660.9147     -5391.1132      2819.082       45026.255      103.45241    
     23550   1362.8859     -5662.2803     -5391.8642      2895.9249      45041.11       103.56713    
     23560   1343.0334     -5658.9935     -5392.5165      3377.4064      45055.523      103.7015     
     23570   1331.9399     -5657.3573     -5393.0813      3671.0858      45069.303      103.82845    
     23580   1311.7682     -5653.7578     -5393.4842      4001.8142      45082.234      103.92598    
     23590   1336.6617     -5658.9749     -5393.762       3712.3753      45094.268      103.99612    
     23600   1339.6387     -5659.7941     -5393.9906      3590.4821      45105.189      104.04609    
     23610   1327.7271     -5657.6213     -5394.1813      3481.2087      45114.948      104.05341    
     23620   1332.4518     -5658.6973     -5394.3198      3053.8402      45123.618      104.0094     
     23630   1337.5934     -5659.8395     -5394.4418      2722.1943      45131.022      103.97574    
     23640   1310.254      -5654.4976     -5394.5244      2774.8385      45137.06       103.9932     
     23650   1289.1845     -5650.3129     -5394.5202      3013.8268      45141.95       104.05313    
     23660   1301.5531     -5652.6434     -5394.3967      3071.6031      45146.113      104.13589    
     23670   1320.0244     -5656.0616     -5394.1499      3141.3346      45149.789      104.23284    
     23680   1343.263      -5660.3738     -5393.8512      3559.6858      45153.162      104.32226    
     23690   1355.1049     -5662.4604     -5393.5882      4022.371       45156.554      104.39795    
     23700   1344.6478     -5660.1837     -5393.3863      4361.7714      45160.183      104.46676    
     23710   1319.1068     -5654.944      -5393.2143      4316.0261      45164.014      104.55345    
     23720   1323.3278     -5655.5977     -5393.0305      3462.2634      45167.852      104.66789    
     23730   1302.3027     -5651.168      -5392.7725      3278.539       45171.446      104.81282    
     23740   1308.8693     -5652.1447     -5392.4462      3524.1831      45174.905      104.97407    
     23750   1328.2603     -5655.5592     -5392.0133      3687.1338      45178.696      105.12929    
     23760   1366.8789     -5662.771      -5391.5626      3419.3335      45183.362      105.25618    
     23770   1355.835      -5660.179      -5391.1619      3653.969       45188.793      105.3665     
     23780   1360.3041     -5660.7568     -5390.853       3539.9193      45194.56       105.48883    
     23790   1380.9005     -5664.6313     -5390.6409      3119.3261      45200.324      105.64601    
     23800   1387.4295     -5665.8783     -5390.5924      2805.4347      45205.992      105.84749    
     23810   1382.0336     -5664.9657     -5390.7504      2956.9205      45211.269      106.0832     
     23820   1352.2735     -5659.4341     -5391.1236      3370.1961      45215.988      106.32224    
     23830   1340.0678     -5657.5243     -5391.6356      3203.4065      45220.527      106.52106    
     23840   1346.6276     -5659.4722     -5392.282       2383.8948      45224.972      106.67028    
     23850   1325.4385     -5656.0345     -5393.0486      2082.3176      45229.014      106.80873    
     23860   1314.1141     -5654.6646     -5393.9255      2064.8736      45232.392      106.96125    
     23870   1324.026      -5657.5862     -5394.8805      2218.1253      45234.695      107.10968    
     23880   1356.1802     -5665.0715     -5395.986       2232.3287      45235.43       107.23568    
     23890   1354.513      -5666.0658     -5397.311       2311.7116      45234.56       107.3279     
     23900   1357.8303     -5668.2601     -5398.8471      2148.1011      45232.572      107.34905    
     23910   1368.9185     -5672.1863     -5400.5732      2054.3705      45229.643      107.31033    
     23920   1367.911      -5673.8708     -5402.4577      1983.6257      45225.566      107.27608    
     23930   1356.1004     -5673.3981     -5404.3283      1908.6967      45219.86       107.30229    
     23940   1347.9766     -5673.5409     -5406.083       1534.4795      45212.315      107.3926     
     23950   1313.4984     -5668.1843     -5407.5674      1558.3393      45202.979      107.53255    
     23960   1301.2682     -5666.9158     -5408.7255      1555.675       45191.993      107.71369    
     23970   1300.0969     -5667.5464     -5409.5885      1765.621       45179.34       107.90397    
     23980   1293.8895     -5666.9414     -5410.2152      2080.9506      45164.999      108.06128    
     23990   1293.4014     -5667.293      -5410.6636      2177.7996      45149.08       108.15785    
     24000   1296.284      -5668.166      -5410.9647      1990.5478      45131.734      108.17952    
     24010   1313.9791     -5671.8933     -5411.181       1685.9633      45112.706      108.14678    
     24020   1307.0432     -5670.6936     -5411.3575      1918.277       45091.665      108.08714    
     24030   1288.4337     -5667.1073     -5411.4636      2640.2648      45069.066      108.00657    
     24040   1307.2474     -5670.8386     -5411.462       2793.8601      45045.672      107.93273    
     24050   1336.5751     -5676.6398     -5411.4441      2701.0414      45021.607      107.89157    
     24060   1340.0183     -5677.3557     -5411.4769      2691.0599      44996.791      107.85877    
     24070   1336.4375     -5676.7698     -5411.6014      2441.4852      44971.238      107.80634    
     24080   1312.237      -5672.1412     -5411.7746      2444.2669      44944.805      107.72529    
     24090   1310.7834     -5672.0358     -5411.9576      2432.6068      44917.476      107.62651    
     24100   1293.1813     -5668.6835     -5412.0978      2866.6013      44889.398      107.52842    
     24110   1293.7852     -5668.8666     -5412.1611      3262.5083      44860.775      107.4275     
     24120   1337.9037     -5677.6494     -5412.1902      2938.0968      44831.684      107.30865    
     24130   1358.6484     -5681.8744     -5412.2991      2742.2861      44802.001      107.19177    
     24140   1325.5157     -5675.5309     -5412.5296      3590.8789      44771.791      107.12615    
     24150   1318.2164     -5674.3696     -5412.8166      4286.7451      44741.564      107.11188    
     24160   1311.6722     -5673.3871     -5413.1325      4983.0776      44711.64       107.10278    
     24170   1287.4747     -5668.871      -5413.4175      5501.2648      44682.35       107.05796    
     24180   1308.6924     -5673.3464     -5413.6831      5071.158       44654.077      106.96465    
     24190   1311.2857     -5674.1027     -5413.9248      4443.9296      44626.685      106.85723    
     24200   1323.0558     -5676.7346     -5414.2214      3625.1242      44599.782      106.77023    
     24210   1321.8698     -5676.8712     -5414.5933      3154.4944      44572.947      106.70816    
     24220   1297.1985     -5672.4126     -5415.0298      3613.6269      44545.947      106.66251    
     24230   1278.5707     -5669.1233     -5415.4366      4407.7009      44519.053      106.62056    
     24240   1284.4514     -5670.6193     -5415.7657      4695.8448      44492.644      106.55532    
     24250   1294.4209     -5672.8766     -5416.0449      4435.0743      44466.974      106.48639    
     24260   1298.7822     -5673.9902     -5416.2933      4058.5314      44441.98       106.44042    
     24270   1306.6502     -5675.826      -5416.5679      3696.3632      44417.592      106.41033    
     24280   1287.0406     -5672.1775     -5416.8102      3626.0152      44393.834      106.39608    
     24290   1316.8746     -5678.373      -5417.0863      3340.1486      44370.681      106.40735    
     24300   1295.6282     -5674.4399     -5417.3688      4060.8764      44347.949      106.4369     
     24310   1278.9124     -5671.4209     -5417.6664      4897.2559      44325.847      106.44115    
     24320   1287.8941     -5673.4277     -5417.8911      4966.2455      44304.76       106.39097    
     24330   1294.0453     -5674.8311     -5418.0739      4600.8113      44284.923      106.3127     
     24340   1290.1026     -5674.225      -5418.2501      4092.7717      44266.382      106.26669    
     24350   1288.0743     -5673.9727     -5418.4003      3437.1408      44248.846      106.24492    
     24360   1311.642      -5678.7924     -5418.5438      3169.9644      44231.829      106.21926    
     24370   1300.2034     -5676.6768     -5418.6978      4029.3813      44215.243      106.19813    
     24380   1305.2545     -5677.8574     -5418.8762      4868.7881      44199.554      106.19448    
     24390   1313.9696     -5679.8046     -5419.0942      5633.9654      44185.204      106.22315    
     24400   1292.2616     -5675.7393     -5419.336       5989.232       44172.391      106.27094    
     24410   1312.7302     -5680.0939     -5419.6294      5198.5619      44161.069      106.3063     
     24420   1326.7655     -5683.2404     -5419.9911      4344.6848      44150.571      106.30806    
     24430   1316.4531     -5681.6891     -5420.4859      4023.6506      44140.301      106.27765    
     24440   1288.0133     -5676.6273     -5421.067       4202.7522      44130.306      106.24981    
     24450   1290.3959     -5677.708      -5421.675       4113.0834      44121.058      106.26456    
     24460   1266.1358     -5673.4882     -5422.2687      4074.5576      44112.799      106.34286    
     24470   1269.8858     -5674.7864     -5422.8229      3809.1131      44105.397      106.46453    
     24480   1257.2258     -5672.744      -5423.2924      4199.5172      44098.765      106.59451    
     24490   1240.9263     -5669.8389     -5423.6213      4667.9581      44093.335      106.70732    
     24500   1278.9609     -5677.6084     -5423.8442      4749.3224      44089.354      106.81345    
     24510   1289.0301     -5679.735      -5423.973       5102.367       44086.735      106.95805    
     24520   1279.0708     -5677.8728     -5424.0868      5221.0623      44085.802      107.13965    
     24530   1272.7274     -5676.6903     -5424.163       4658.8713      44086.907      107.31041    
     24540   1266.0756     -5675.3698     -5424.1622      4136.8001      44089.588      107.45005    
     24550   1268.2818     -5675.6997     -5424.0544      4115.2142      44092.914      107.56985    
     24560   1282.4292     -5678.3071     -5423.8548      4313.8734      44096.515      107.70802    
     24570   1288.9725     -5679.3329     -5423.5823      4467.2182      44100.317      107.90156    
     24580   1307.5773     -5682.6943     -5423.2523      4347.3591      44104.493      108.1281     
     24590   1296.0481     -5680.084      -5422.9295      4859.4244      44109.304      108.3767     
     24600   1290.4156     -5678.6481     -5422.6111      5309.4017      44115.136      108.6478     
     24610   1279.8658     -5676.1787     -5422.235       5429.1582      44122.099      108.93977    
     24620   1277.9127     -5675.339      -5421.7828      5233.1555      44129.915      109.24054    
     24630   1275.5463     -5674.3118     -5421.2251      5110.1783      44138.239      109.51242    
     24640   1284.0274     -5675.3188     -5420.5494      5008.7685      44146.999      109.73464    
     24650   1312.9889     -5680.3176     -5419.8018      4629.7351      44155.996      109.92179    
     24660   1314.9152     -5679.925      -5419.027       4912.9185      44165.137      110.10365    
     24670   1335.1957     -5683.2334     -5418.3114      5086.8344      44174.789      110.29245    
     24680   1350.2525     -5685.5881     -5417.6787      5223.064       44184.873      110.51006    
     24690   1348.7615     -5684.8462     -5417.2326      5120.2296      44195.096      110.75586    
     24700   1354.7067     -5685.7844     -5416.9912      4418.7996      44205.523      110.99695    
     24710   1317.2063     -5678.3009     -5416.9483      4305.8762      44216.171      111.22471    
     24720   1290.7861     -5673.1556     -5417.0452      4090.0614      44227.199      111.43199    
     24730   1293.2546     -5673.7482     -5417.1479      3674.967       44238.511      111.63003    
     24740   1318.0819     -5678.8345     -5417.3082      3454.6692      44249.815      111.82901    
     24750   1310.4947     -5677.5934     -5417.5725      3947.1767      44260.924      112.01772    
     24760   1302.4883     -5676.4138     -5417.9815      4400.4627      44271.957      112.17356    
     24770   1300.3745     -5676.5068     -5418.4939      4589.3831      44283.285      112.29569    
     24780   1312.5402     -5679.5779     -5419.1511      4464.0046      44295.181      112.42737    
     24790   1311.1886     -5680.14       -5419.9814      4398.8869      44307.678      112.58529    
     24800   1299.6126     -5678.8447     -5420.983       4428.5209      44320.866      112.76748    
     24810   1288.8828     -5677.8435     -5422.1107      4091.1931      44334.768      112.98646    
     24820   1273.0777     -5675.9198     -5423.3229      3574.7625      44349.207      113.22753    
     24830   1256.3192     -5673.8163     -5424.5446      3153.6221      44364.092      113.44632    
     24840   1233.1892     -5670.3171     -5425.6347      3232.7921      44379.176      113.63032    
     24850   1241.8115     -5672.9667     -5426.5735      3318.2228      44394.252      113.78829    
     24860   1249.8842     -5675.3635     -5427.3686      3644.1975      44409.249      113.9267     
     24870   1242.7306     -5674.6135     -5428.038       4115.3987      44424.217      114.0654     
     24880   1240.7707     -5674.7333     -5428.5466      4141.9372      44439.138      114.22449    
     24890   1266.5157     -5680.2352     -5428.9404      3562.2972      44453.958      114.36641    
     24900   1274.6214     -5682.1772     -5429.2741      3324.8747      44468.591      114.46784    
     24910   1248.7601     -5677.3579     -5429.586       3750.8855      44483.145      114.5465     
     24920   1218.2662     -5671.4821     -5429.7606      4464.783       44497.754      114.61922    
     24930   1229.6106     -5673.7577     -5429.7853      4582.0343      44512.63       114.69157    
     24940   1232.6706     -5674.2096     -5429.6301      4404.7631      44528.148      114.78986    
     24950   1262.4189     -5679.8152     -5429.3332      3639.0234      44544.508      114.93456    
     24960   1283.935      -5683.686      -5428.935       2960.6819      44561.204      115.14695    
     24970   1285.9306     -5683.6666     -5428.5196      2624.3888      44577.698      115.39023    
     24980   1295.0517     -5685.0861     -5428.1292      2639.4389      44593.543      115.60594    
     24990   1276.3637     -5680.998      -5427.7492      2935.0231      44608.468      115.76919    
     25000   1286.8675     -5682.7207     -5427.3878      2981.2446      44622.513      115.91424    
     25010   1274.5201     -5679.8829     -5426.9999      2994.4648      44635.646      116.08561    
     25020   1240.0733     -5672.5953     -5426.547       3426.699       44647.773      116.27375    
     25030   1266.1547     -5677.1891     -5425.9659      3000.6424      44658.976      116.48488    
     25040   1281.4522     -5679.4702     -5425.2117      3029.6354      44669.434      116.70574    
     25050   1274.7676     -5677.2576     -5424.3254      3536.0044      44679.584      116.93364    
     25060   1277.0771     -5676.6749     -5423.2845      3715.4038      44689.867      117.13879    
     25070   1287.6166     -5677.5278     -5422.0462      3624.9363      44700.461      117.29985    
     25080   1299.3091     -5678.4587     -5420.6572      3293.4475      44711.214      117.42062    
     25090   1322.7831     -5681.6495     -5419.1904      2979.6724      44722.015      117.53367    
     25100   1306.936      -5677.0657     -5417.7509      2894.1652      44732.844      117.67379    
     25110   1300.2338     -5674.389      -5416.404       2570.3163      44743.729      117.8574     
     25120   1291.8813     -5671.4626     -5415.1349      2370.9607      44754.435      118.08927    
     25130   1278.2865     -5667.5889     -5413.9585      2407.2077      44764.542      118.33912    
     25140   1273.1366     -5665.4784     -5412.8698      2696.1767      44773.71       118.55942    
     25150   1278.395      -5665.4985     -5411.8467      3000.5578      44781.87       118.77631    
     25160   1307.047      -5670.2582     -5410.9213      2846.9346      44789.124      119.01279    
     25170   1305.6043     -5669.2061     -5410.1555      2427.0755      44795.474      119.23674    
     25180   1306.5497     -5668.8387     -5409.6006      2070.7628      44800.791      119.41536    
     25190   1295.6548     -5666.2844     -5409.208       2272.7731      44804.921      119.5405     
     25200   1297.2937     -5666.3665     -5408.9648      2462.1371      44807.953      119.59453    
     25210   1306.8903     -5668.1642     -5408.8584      2495.0692      44809.995      119.60465    
     25220   1299.8607     -5666.8176     -5408.9066      2794.4266      44811.153      119.66089    
     25230   1289.5926     -5664.9155     -5409.0419      2997.9666      44811.692      119.7809     
     25240   1284.5845     -5664.1432     -5409.2632      3104.5465      44811.779      119.92396    
     25250   1275.6778     -5662.6439     -5409.5312      3148.6536      44811.588      120.0543     
     25260   1327.3938     -5673.26       -5409.8861      2848.9135      44811.263      120.1709     
     25270   1306.9094     -5669.7001     -5410.3905      3514.0784      44810.747      120.29246    
     25280   1298.1861     -5668.6329     -5411.0542      3737.7029      44810.281      120.43247    
     25290   1297.1445     -5669.157      -5411.7849      3471.0519      44809.887      120.57133    
     25300   1287.1607     -5667.9917     -5412.6006      3191.9096      44809.358      120.69299    
     25310   1263.0525     -5664.0106     -5413.4029      3113.8561      44808.76       120.8069     
     25320   1241.32       -5660.4232     -5414.1276      3107.4219      44808.153      120.92951    
     25330   1241.6788     -5661.0751     -5414.7082      2847.3932      44807.423      121.08623    
     25340   1287.0774     -5670.5581     -5415.1835      2208.5641      44806.276      121.26672    
     25350   1303.3009     -5674.2795     -5415.686       2469.2279      44804.497      121.46064    
     25360   1313.6608     -5676.9287     -5416.2796      2870.3246      44802.063      121.63402    
     25370   1316.6855     -5678.2295     -5416.9802      3252.2243      44799.205      121.75115    
     25380   1289.698      -5673.6277     -5417.7331      3705.5749      44796.167      121.8378     
     25390   1278.6154     -5672.1409     -5418.4453      3844.8906      44793.141      121.93917    
     25400   1290.7621     -5675.2346     -5419.1289      3705.4176      44790.327      122.0388     
     25410   1289.4119     -5675.6257     -5419.7879      3509.3892      44788.043      122.10714    
     25420   1295.2225     -5677.4443     -5420.4536      3221.9372      44786.15       122.16218    
     25430   1284.4511     -5675.9707     -5421.1172      2966.0475      44784.216      122.22129    
     25440   1280.7047     -5675.8821     -5421.7719      2783.9014      44782.045      122.30923    
     25450   1282.4029     -5676.8793     -5422.4322      2678.3525      44779.722      122.42521    
     25460   1267.1927     -5674.5059     -5423.0767      2750.4144      44777.334      122.51682    
     25470   1259.9666     -5673.6797     -5423.6843      2842.8605      44774.972      122.55338    
     25480   1281.9734     -5678.636      -5424.2741      2695.8649      44772.762      122.57583    
     25490   1296.0181     -5682.0619     -5424.9133      2749.4479      44770.816      122.62456    
     25500   1292.9974     -5682.197      -5425.6478      2883.5739      44769.13       122.69259    
     25510   1289.9344     -5682.4094     -5426.468       2920.916       44767.645      122.78689    
     25520   1272.0442     -5679.7361     -5427.3443      3058.1739      44766.081      122.94288    
     25530   1278.9302     -5682.0099     -5428.2518      2750.4158      44764.316      123.13853    
     25540   1271.5242     -5681.4741     -5429.1855      2667.8933      44762.15       123.30956    
     25550   1261.3653     -5680.3682     -5430.0952      2898.3518      44759.294      123.44282    
     25560   1246.6389     -5678.3221     -5430.9711      3271.9513      44755.795      123.59253    
     25570   1236.2613     -5677.0587     -5431.7668      3452.2665      44751.86       123.78094    
     25580   1254.7394     -5681.4291     -5432.4708      2992.3448      44747.504      123.98924    
     25590   1240.3291     -5679.2267     -5433.1276      2739.5576      44742.408      124.21183    
     25600   1221.8714     -5676.145      -5433.7082      2821.0076      44736.351      124.43699    
     25610   1241.451      -5680.5157     -5434.1941      2710.5946      44729.446      124.64618    
     25620   1247.0522     -5682.0615     -5434.6285      2894.2486      44721.747      124.81195    
     25630   1227.8286     -5678.6477     -5435.0289      3460.3157      44713.409      124.92832    
     25640   1228.356      -5679.0765     -5435.3531      3513.944       44704.805      124.99862    
     25650   1250.7913     -5683.8065     -5435.6316      2918.0539      44696.02       125.02955    
     25660   1246.8378     -5683.2825     -5435.892       2522.3511      44686.901      125.06156    
     25670   1241.5251     -5682.5101     -5436.1738      2340.0099      44677.248      125.12196    
     25680   1239.906      -5682.4501     -5436.435       2331.0838      44667.01       125.19027    
     25690   1258.8084     -5686.4579     -5436.6923      2253.8331      44656.027      125.2472     
     25700   1287.1858     -5692.4355     -5437.0394      2031.9985      44644.037      125.30313    
     25710   1259.1208     -5687.3478     -5437.5202      2345.1103      44630.797      125.36584    
     25720   1216.6315     -5679.4307     -5438.0336      2380.5514      44616.487      125.4213     
     25730   1225.9642     -5681.7686     -5438.5197      1889.6102      44601.245      125.43379    
     25740   1236.8312     -5684.3639     -5438.9589      1705.1949      44584.805      125.4188     
     25750   1247.0136     -5686.8442     -5439.4189      1851.329       44566.981      125.41947    
     25760   1244.3969     -5686.8091     -5439.9029      2239.4197      44547.902      125.46607    
     25770   1264.685      -5691.3937     -5440.4621      2259.5532      44527.805      125.54075    
     25780   1290.289      -5697.1732     -5441.1614      1985.7852      44506.739      125.61329    
     25790   1290.836      -5698.2078     -5442.0874      2100.9728      44484.715      125.67384    
     25800   1265.6968     -5694.3955     -5443.2631      2312.331       44461.937      125.73367    
     25810   1237.79       -5690.1614     -5444.5661      2323.2717      44438.655      125.78577    
     25820   1214.9789     -5686.9607     -5445.8915      2225.6479      44414.871      125.85116    
     25830   1217.2673     -5688.6746     -5447.1513      1935.899       44390.527      125.93433    
     25840   1182.5358     -5682.884      -5448.252       2009.3137      44365.66       126.00955    
     25850   1179.8268     -5683.236      -5449.1414      2055.9324      44340.396      126.06524    
     25860   1177.5391     -5683.4304     -5449.7898      2642.4055      44314.796      126.1037     
     25870   1187.3237     -5685.776      -5450.194       3205.9234      44289.332      126.14183    
     25880   1206.4195     -5689.7699     -5450.399       3741.8807      44264.701      126.19105    
     25890   1211.7569     -5690.9125     -5450.4825      3967.9811      44241.283      126.20899    
     25900   1220.5093     -5692.6597     -5450.4931      3848.6569      44219.095      126.15318    
     25910   1219.833      -5692.4747     -5450.4424      3678.6689      44198.109      126.05449    
     25920   1214.9127     -5691.4142     -5450.3581      3386.1594      44178.156      125.98646    
     25930   1218.0411     -5691.9115     -5450.2347      3297.4271      44158.881      125.98937    
     25940   1225.9344     -5693.3243     -5450.0814      3319.472       44140.062      126.05842    
     25950   1196.5478     -5687.2969     -5449.8847      3900.7564      44121.844      126.16587    
     25960   1192.3565     -5686.2074     -5449.6268      4145.6672      44104.543      126.29003    
     25970   1190.175      -5685.4036     -5449.2558      4359.4703      44088.38       126.40687    
     25980   1207.3579     -5688.3604     -5448.8032      4487.4799      44073.722      126.5065     
     25990   1248.9019     -5696.1595     -5448.3595      4193.7137      44060.658      126.61653    
     26000   1254.1385     -5696.8436     -5448.0046      4246.2988      44048.855      126.74967    
     26010   1233.5492     -5692.537      -5447.7832      4556.5056      44038.286      126.89692    
     26020   1228.9071     -5691.4541     -5447.6213      4706.0806      44029.164      127.03111    
     26030   1253.1049     -5696.1409     -5447.5069      4290.5084      44021.333      127.10993    
     26040   1257.6475     -5697.0187     -5447.4834      4415.0091      44014.371      127.14408    
     26050   1219.7171     -5689.5143     -5447.5049      4996.0622      44008.255      127.20678    
     26060   1244.1896     -5694.4365     -5447.5715      4534.4933      44003.166      127.32228    
     26070   1231.7251     -5692.0269     -5447.6349      4461.8243      43998.724      127.48302    
     26080   1242.4963     -5694.2505     -5447.7214      4229.2522      43994.517      127.66648    
     26090   1253.7358     -5696.6375     -5447.8783      4026.1439      43990.417      127.84059    
     26100   1212.4748     -5688.6204     -5448.048       4610.3096      43986.483      128.01471    
     26110   1222.8637     -5690.8553     -5448.2217      4454.0841      43983.314      128.20103    
     26120   1221.3763     -5690.6924     -5448.3538      4183.9993      43981.049      128.43798    
     26130   1203.4084     -5687.2269     -5448.4535      3910.831       43979.341      128.72872    
     26140   1218.167      -5690.1973     -5448.4955      3584.4073      43977.733      129.01267    
     26150   1237.7028     -5694.0974     -5448.5194      3542.5796      43975.781      129.25258    
     26160   1243.778      -5695.3788     -5448.5954      3757.349       43973.41       129.45013    
     26170   1235.6613     -5693.9011     -5448.7282      3930.713       43970.773      129.64679    
     26180   1231.2883     -5693.2368     -5448.9316      4148.6832      43967.942      129.87008    
     26190   1220.8334     -5691.3618     -5449.131       4327.8811      43965.155      130.10101    
     26200   1222.6589     -5691.9338     -5449.3408      4249.7648      43962.743      130.29552    
     26210   1222.9153     -5692.1927     -5449.5488      4246.9396      43960.909      130.42935    
     26220   1244.7463     -5696.7649     -5449.7894      4141.3757      43959.893      130.53994    
     26230   1258.5417     -5699.8627     -5450.15        4084.2782      43959.631      130.66884    
     26240   1216.2017     -5691.9078     -5450.596       4426.8923      43960          130.80589    
     26250   1209.5314     -5691.0769     -5451.0886      4323.1918      43961.176      130.95232    
     26260   1240.1347     -5697.6669     -5451.6064      4002.3309      43963.176      131.13097    
     26270   1232.8522     -5696.8176     -5452.2021      4343.8584      43965.723      131.35705    
     26280   1247.3698     -5700.4402     -5452.9441      4218.1412      43968.848      131.613      
     26290   1227.9889     -5697.4933     -5453.8427      4420.9928      43972.688      131.86402    
     26300   1217.6144     -5696.4434     -5454.8512      4452.2165      43977.486      132.08271    
     26310   1223.35       -5698.6685     -5455.9383      4145.2129      43983.319      132.27759    
     26320   1207.1256     -5696.6118     -5457.1008      4159.2202      43989.953      132.45253    
     26330   1195.2847     -5695.4447     -5458.2831      4184.7265      43997.082      132.60294    
     26340   1200.9032     -5697.6859     -5459.4095      4154.2811      44004.374      132.74594    
     26350   1207.2963     -5700.0619     -5460.517       4171.8926      44012.044      132.89912    
     26360   1197.6799     -5699.1896     -5461.5527      4445.5274      44020.328      133.05849    
     26370   1193.1231     -5699.1995     -5462.4667      4051.2799      44029.242      133.20661    
     26380   1177.5068     -5696.8682     -5463.2339      3615.5318      44038.681      133.35498    
     26390   1162.1334     -5694.3896     -5463.8057      3518.5823      44048.355      133.52069    
     26400   1145.7542     -5691.4794     -5464.1453      3379.0265      44057.882      133.72961    
     26410   1158.1374     -5694.0366     -5464.2456      2879.8963      44066.95       134.01031    
     26420   1162.5443     -5694.8291     -5464.1637      2760.4812      44075.127      134.35123    
     26430   1137.9242     -5689.7267     -5463.9462      3183.522       44082.193      134.68635    
     26440   1127.102      -5687.1775     -5463.5443      3352.5985      44088.219      134.95116    
     26450   1144.9543     -5690.1511     -5462.9758      3202.3521      44093.237      135.16537    
     26460   1171.0741     -5694.6713     -5462.3134      3072.8898      44097.182      135.3595     
     26470   1181.2338     -5696.0197     -5461.6459      3485.2112      44100.139      135.53549    
     26480   1166.5704     -5692.4674     -5461.0031      4125.7638      44102.555      135.72081    
     26490   1187.8236     -5696.0793     -5460.3981      3800.1545      44104.915      135.92726    
     26500   1193.7991     -5696.6913     -5459.8244      3326.6018      44107.441      136.16514    
     26510   1210.4574     -5699.4873     -5459.3152      2910.1837      44110.256      136.42574    
     26520   1214.2189     -5699.8085     -5458.8901      3072.099       44113.032      136.66518    
     26530   1198.4634     -5696.3353     -5458.543       3602.1035      44115.715      136.87993    
     26540   1188.9071     -5694.1058     -5458.2096      3739.2859      44118.621      137.08977    
     26550   1179.3821     -5691.8639     -5457.8576      3669.375       44121.944      137.3175     
     26560   1200.2046     -5695.6135     -5457.4757      3141.6242      44125.79       137.57874    
     26570   1192.4524     -5693.6616     -5457.062       3344.9936      44129.968      137.8596     
     26580   1181.1734     -5691.0059     -5456.6441      3920.9948      44134.465      138.15324    
     26590   1185.941      -5691.483      -5456.1754      4237.4631      44139.61       138.48014    
     26600   1200.6331     -5693.8828     -5455.66        4328.9523      44145.611      138.80773    
     26610   1218.6251     -5696.933      -5455.1403      3895.7977      44152.313      139.0597     
     26620   1224.0228     -5697.5405     -5454.6769      3275.1935      44158.956      139.23529    
     26630   1188.868      -5690.1584     -5454.27        3239.1501      44164.898      139.38144    
     26640   1184.8792     -5688.9668     -5453.8698      3478.8918      44170.086      139.49413    
     26650   1187.3407     -5688.9932     -5453.4078      3790.0268      44174.933      139.58032    
     26660   1199.6244     -5690.9158     -5452.8931      3852.9433      44179.765      139.65896    
     26670   1212.0975     -5692.8669     -5452.3694      3509.1701      44184.673      139.76066    
     26680   1211.3102     -5692.2067     -5451.8654      3227.34        44189.694      139.92218    
     26690   1212.9663     -5692.0906     -5451.4207      3160.9259      44194.673      140.16148    
     26700   1190.4576     -5687.1888     -5450.985       3685.3157      44199.43       140.42478    
     26710   1224.4438     -5693.5184     -5450.5712      3549.3613      44203.949      140.64415    
     26720   1228.0597     -5693.8542     -5450.1896      3743.6341      44208.258      140.84043    
     26730   1238.3751     -5695.6326     -5449.9212      3555.0428      44212.539      141.04612    
     26740   1252.7612     -5698.3553     -5449.7896      3344.0522      44216.513      141.23898    
     26750   1242.5228     -5696.3873     -5449.853       3412.3202      44219.757      141.38721    
     26760   1223.613      -5692.8662     -5450.0839      3674.816       44222.396      141.46825    
     26770   1206.6381     -5689.8435     -5450.4292      3901.766       44224.664      141.53689    
     26780   1215.4558     -5692.0247     -5450.8608      3966.6712      44226.644      141.66624    
     26790   1227.078      -5694.8884     -5451.4186      3796.4105      44228.516      141.83733    
     26800   1249.7388     -5700.1586     -5452.1925      3450.5309      44230.541      141.99006    
     26810   1220.2802     -5695.3224     -5453.2013      3686.6699      44232.886      142.09164    
     26820   1192.011      -5690.9077     -5454.3957      3840.9937      44235.637      142.12374    
     26830   1194.1097     -5692.5732     -5455.6448      3345.7238      44238.767      142.12435    
     26840   1214.3146     -5697.9221     -5456.9847      2173.5985      44242.027      142.15584    
     26850   1190.795      -5694.6262     -5458.3554      1743.7864      44244.818      142.2124     
     26860   1192.6721     -5696.3276     -5459.6844      1732.1313      44246.927      142.27826    
     26870   1179.8079     -5694.9661     -5460.8753      1910.6001      44248.422      142.32882    
     26880   1179.3913     -5695.9113     -5461.9031      2115.4303      44249.458      142.37256    
     26890   1175.2338     -5695.9178     -5462.7346      2383.2369      44250.255      142.43837    
     26900   1171.5064     -5695.838      -5463.3944      2698.5755      44250.955      142.51221    
     26910   1159.5108     -5693.9344     -5463.8709      3192.6974      44251.436      142.56469    
     26920   1161.1681     -5694.5786     -5464.1862      3293.7729      44251.798      142.57417    
     26930   1167.4287     -5696.0028     -5464.3682      3200.936       44252.502      142.55266    
     26940   1165.7211     -5695.7476     -5464.4518      3172.1244      44254.064      142.54157    
     26950   1160.1483     -5694.6471     -5464.4571      3201.0675      44256.501      142.56882    
     26960   1169.3085     -5696.3877     -5464.3801      3170.3232      44259.636      142.62683    
     26970   1185.7093     -5699.532      -5464.2703      2861.3426      44263.149      142.70893    
     26980   1179.515      -5698.1884     -5464.1557      2641.5528      44266.524      142.82232    
     26990   1163.3028     -5694.821      -5464.0051      2517.6134      44269.561      142.96334    
     27000   1168.2569     -5695.6084     -5463.8095      2259.664       44272.239      143.10003    
     27010   1167.4493     -5695.2103     -5463.5717      2178.8233      44274.284      143.19333    
     27020   1161.1081     -5693.6572     -5463.2768      2391.6407      44275.491      143.24028    
     27030   1153.5903     -5691.802      -5462.9132      2836.1702      44276.077      143.28172    
     27040   1178.903      -5696.395      -5462.4838      3068.1081      44276.534      143.37759    
     27050   1188.419      -5697.824      -5462.0246      3409.4256      44277.259      143.54946    
     27060   1181.527      -5696.0295     -5461.5977      3592.601       44278.374      143.78336    
     27070   1192.8385     -5697.8577     -5461.1814      3417.8342      44279.864      144.04187    
     27080   1168.6922     -5692.6589     -5460.7737      3634.4262      44281.658      144.29666    
     27090   1156.6208     -5689.8442     -5460.3541      3970.8352      44283.906      144.53461    
     27100   1159.9136     -5689.9926     -5459.8491      4159.2741      44286.56       144.72717    
     27110   1178.3647     -5693.0702     -5459.2658      3874.596       44289.44       144.85247    
     27120   1196.5689     -5696.1013     -5458.6849      3125.837       44292.259      144.9221     
     27130   1191.8467     -5694.6035     -5458.1241      2598.782       44294.563      144.98212    
     27140   1163.2918     -5688.4146     -5457.6008      2679.6279      44295.904      145.09749    
     27150   1157.1609     -5686.6538     -5457.0565      2928.7677      44296.027      145.22559    
     27160   1170.4479     -5688.6665     -5456.4329      3196.443       44295.128      145.31773    
     27170   1171.4703     -5688.1901     -5455.7536      3797.405       44293.878      145.38289    
     27180   1170.2503     -5687.2489     -5455.0545      4070.1925      44293.143      145.44153    
     27190   1184.703      -5689.37       -5454.308       3684.7344      44293.286      145.50092    
     27200   1203.4822     -5692.3762     -5453.5881      3129.2247      44293.911      145.56502    
     27210   1181.4425     -5687.3448     -5452.9297      3000.723       44294.574      145.62935    
     27220   1187.3233     -5687.9099     -5452.328       2676.4621      44294.968      145.67512    
     27230   1207.8455     -5691.405      -5451.7512      2387.2246      44294.693      145.69639    
     27240   1210.7763     -5691.5222     -5451.2869      2489.3852      44293.734      145.74078    
     27250   1187.1951     -5686.467      -5450.9105      2858.4372      44292.266      145.79733    
     27260   1210.232      -5690.7612     -5450.6339      2719.4141      44290.242      145.83672    
     27270   1209.5538     -5690.4382     -5450.4454      2827.7585      44287.311      145.85829    
     27280   1193.957      -5687.2793     -5450.3811      3031.5425      44283.611      145.89592    
     27290   1204.9179     -5689.496      -5450.423       2846.8793      44279.682      145.99217    
     27300   1202.3605     -5689.1385     -5450.573       2898.5882      44275.288      146.10399    
     27310   1196.8398     -5688.3237     -5450.8536      3166.7033      44270.317      146.16629    
     27320   1222.3965     -5693.8711     -5451.3301      2838.8677      44265.022      146.18431    
     27330   1200.4081     -5690.2764     -5452.0982      2925.816       44259.264      146.20742    
     27340   1167.7017     -5684.8535     -5453.1648      3089.7714      44252.917      146.25741    
     27350   1167.5862     -5686.1715     -5454.5057      3102.5866      44246.213      146.30721    
     27360   1185.0931     -5691.3325     -5456.1931      3052.5275      44239.472      146.35695    
     27370   1188.6703     -5694.0795     -5458.2303      3100.1845      44232.593      146.41952    
     27380   1160.8573     -5690.699      -5460.3683      3341.3016      44225.315      146.47985    
     27390   1149.8842     -5690.4756     -5462.3221      3133.9965      44217.729      146.50114    
     27400   1122.7651     -5686.6315     -5463.8588      3026.0063      44209.794      146.45355    
     27410   1137.3878     -5690.6624     -5464.9883      2739.2627      44201.143      146.35676    
     27420   1139.1824     -5691.8112     -5465.7811      2790.3872      44191.469      146.27315    
     27430   1136.0645     -5691.7335     -5466.322       3066.0328      44181.153      146.22352    
     27440   1160.635      -5696.9897     -5466.7031      2938.1136      44170.666      146.18319    
     27450   1173.3207     -5699.8169     -5467.0133      2808.3754      44159.876      146.1535     
     27460   1179.9102     -5701.4414     -5467.3303      2758.4609      44148.487      146.12654    
     27470   1163.5278     -5698.5121     -5467.6515      2948.7982      44136.365      146.09692    
     27480   1164.8485     -5699.0925     -5467.9699      3097.5642      44123.696      146.07459    
     27490   1153.5024     -5697.1263     -5468.2549      3292.0642      44110.626      146.08768    
     27500   1158.7427     -5698.4279     -5468.5167      3182.1635      44097.354      146.14666    
     27510   1177.5235     -5702.3998     -5468.7622      2972.7783      44083.976      146.19992    
     27520   1168.0855     -5700.8112     -5469.0463      3222.7361      44070.27       146.22706    
     27530   1144.3        -5696.3793     -5469.3338      3585.3508      44056.176      146.2355     
     27540   1160.4277     -5699.8359     -5469.5905      3383.6699      44041.98       146.25067    
     27550   1173.216      -5702.6213     -5469.8385      3351.5473      44027.78       146.26959    
     27560   1166.1711     -5701.5311     -5470.1461      3698.9079      44013.566      146.24679    
     27570   1141.3715     -5696.9099     -5470.4455      4225.1875      43999.827      146.18839    
     27580   1145.849      -5698.0569     -5470.704       4171.8559      43987.147      146.15237    
     27590   1153.0513     -5699.707      -5470.9251      3863.5758      43975.64       146.15816    
     27600   1154.6223     -5700.2391     -5471.1455      3322.7924      43964.878      146.19901    
[...]
     48200   1061.4954     -5677.4099     -5466.794      -862.96555      51029.358      389.03699    
     48210   1067.3443     -5678.9883     -5467.2119     -1061.6327      51036.836      389.20031    
     48220   1059.2555     -5677.9629     -5467.7914     -824.90869      51040.726      389.3659     
     48230   1064.4502     -5679.761      -5468.5588     -547.44332      51041.717      389.50074    
     48240   1056.4124     -5679.1304     -5469.523      -65.246062      51040.851      389.595      
     48250   1038.101      -5676.5933     -5470.6191      483.44808      51039.776      389.65452    
     48260   1035.1774     -5677.177      -5471.783       624.97511      51040.246      389.70243    
     48270   1019.8882     -5675.283      -5472.9225      395.05677      51042.82       389.77601    
     48280   1021.0775     -5676.5878     -5473.9914     -371.23971      51046.606      389.86744    
     48290   1007.3994     -5674.8146     -5474.9321     -649.12443      51049.276      389.95545    
     48300   998.14409     -5673.7394     -5475.6933     -497.11395      51049.785      390.0471     
     48310   1004.1922     -5675.5034     -5476.2573     -174.88634      51048.594      390.16063    
     48320   1018.6899     -5678.7726     -5476.6499      112.59176      51046.783      390.29337    
     48330   1025.8864     -5680.47       -5476.9194      354.97679      51045.348      390.42689    
     48340   1028.5126     -5681.1497     -5477.078       349.31242      51045.07       390.56521    
     48350   1051.38       -5685.7917     -5477.1829     -209.14093      51045.827      390.72282    
     48360   1048.6455     -5685.3354     -5477.2692     -636.5473       51045.94       390.8928     
     48370   1035.9242     -5682.8947     -5477.3525     -902.97021      51043.86       391.06662    
     48380   1032.1147     -5682.1791     -5477.3927     -1104.77        51038.619      391.23252    
     48390   1022.7486     -5680.2909     -5477.3629     -1140.9881      51029.539      391.39729    
     48400   1015.3976     -5678.7012     -5477.2318     -1030.0594      51016.493      391.56421    
     48410   1010.6079     -5677.474      -5476.9549     -787.06156      50999.868      391.70249    
     48420   1019.6927     -5678.8246     -5476.503      -626.32557      50980.38       391.76468    
     48430   1032.1726     -5680.6838     -5475.886      -423.83056      50958.671      391.7445     
     48440   1045.1519     -5682.5244     -5475.1513     -325.90078      50935.355      391.67397    
     48450   1039.0463     -5680.4919     -5474.3303      31.814067      50910.885      391.59046    
     48460   1041.7111     -5680.1162     -5473.4258      291.1691       50886.349      391.5376     
     48470   1059.0362     -5682.5706     -5472.4426      368.8302       50862.687      391.5337     
     48480   1073.9673     -5684.5298     -5471.4393      263.71829      50840.156      391.55157    
     48490   1074.591      -5683.7205     -5470.5062      205.09535      50818.489      391.5043     
     48500   1064.8123     -5680.9435     -5469.6695      333.16653      50797.513      391.36136    
     48510   1067.6619     -5680.7461     -5468.9067      358.3503       50777.555      391.21033    
     48520   1068.942      -5680.3019     -5468.2085      471.68686      50758.762      391.12595    
     48530   1057.4303     -5677.3854     -5467.5761      730.26411      50741.601      391.09039    
     48540   1073.0784     -5679.9287     -5467.0146      504.2653       50726.738      391.06668    
     48550   1071.6044     -5679.1469     -5466.5252      412.42192      50713.645      391.03995    
     48560   1070.168      -5678.4891     -5466.1525      230.21108      50701.877      391.00476    
     48570   1066.2772     -5677.4216     -5465.857       263.3414       50690.945      390.9649     
     48580   1065.7366     -5677.0818     -5465.6244      271.73347      50680.82       390.92631    
     48590   1084.8537     -5680.7146     -5465.4641      173.50723      50671.52       390.89606    
     48600   1092.898      -5682.282      -5465.4354      173.05807      50662.8        390.89676    
     48610   1080.378      -5679.9291     -5465.5666      266.07628      50654.657      390.93145    
     48620   1085.8951     -5681.3104     -5465.8533      77.148023      50647.282      391.00585    
     48630   1075.8395     -5679.7654     -5466.3034      79.099266      50640.21       391.12205    
     48640   1055.477      -5676.3186     -5466.8968      299.11026      50633.471      391.24942    
     48650   1055.9503     -5677.1243     -5467.6086      347.31998      50627.649      391.34311    
     48660   1035.1548     -5673.8046     -5468.415       471.05978      50622.976      391.40599    
     48670   1019.2404     -5671.4993     -5469.2674      501.84826      50619.877      391.45859    
     48680   1031.2411     -5674.7732     -5470.1602      244.75025      50618.421      391.51183    
     48690   1043.6609     -5678.2273     -5471.15        43.207793      50617.829      391.56172    
     48700   1047.9358     -5680.2158     -5472.2903     -18.310294      50617.449      391.59657    
     48710   1053.7463     -5682.7101     -5473.6317     -102.27991      50616.983      391.65227    
     48720   1057.0972     -5684.9381     -5475.1949     -216.73011      50616.11       391.75817    
     48730   1046.244      -5684.5177     -5476.9279     -184.53264      50614.52       391.91775    
     48740   1024.686      -5681.9634     -5478.651      -3.6995014      50612.294      392.08997    
     48750   1023.8408     -5683.348      -5480.2033      228.70923      50610.045      392.22153    
     48760   1021.8935     -5684.2632     -5481.5049      549.1419       50608.603      392.29693    
     48770   1016.6685     -5684.231      -5482.5094      647.19587      50608.966      392.31869    
     48780   1010.6055     -5683.7505     -5483.2319      490.3041       50611.518      392.30499    
     48790   1006.3509     -5683.3546     -5483.6802      244.75462      50615.806      392.29383    
     48800   1003.9062     -5683.0701     -5483.8807      3.8030118      50621.011      392.32852    
     48810   1005.4755     -5683.3905     -5483.8898     -275.32839      50626.257      392.4236     
     48820   1011.3589     -5684.4078     -5483.7397     -564.95101      50630.613      392.54564    
     48830   1023.719      -5686.6095     -5483.489      -765.68481      50633.118      392.6638     
     48840   1008.6979     -5683.2942     -5483.1541     -646.73559      50633.11       392.78414    
     48850   985.64173     -5678.2808     -5482.7153     -277.92579      50630.952      392.90417    
     48860   985.62244     -5677.6648     -5482.1032     -100.03779      50627.754      393.00341    
     48870   1006.5804     -5681.0376     -5481.3176     -40.419827      50624.154      393.08554    
     48880   1031.4746     -5685.0919     -5480.4326      107.09863      50620.435      393.15558    
     48890   1038.5018     -5685.5889     -5479.5352      368.80411      50617.087      393.22726    
     48900   1049.6147     -5686.9449     -5478.6864      434.40011      50614.92       393.29747    
     48910   1066.7957     -5689.5879     -5477.9203      152.37518      50614.116      393.38952    
     48920   1069.3658     -5689.4473     -5477.2698     -132.32602      50613.823      393.52947    
     48930   1066.3485     -5688.3413     -5476.7625     -230.70327      50613.089      393.70663    
     48940   1041.7023     -5683.0261     -5476.3375      2.9351585      50611.653      393.889      
     48950   1028.6568     -5680.0349     -5475.9347      127.39524      50610.175      394.04373    
     48960   1019.5323     -5677.7695     -5475.4797      79.267013      50609.081      394.14955    
     48970   1019.4934     -5677.2209     -5474.9389     -197.1065       50608.21       394.22876    
     48980   1033.703      -5679.4116     -5474.3101     -595.70769      50606.624      394.28637    
     48990   1037.172      -5679.4281     -5473.6383     -635.11906      50603.069      394.31436    
     49000   1036.0496     -5678.5133     -5472.9462     -330.83511      50597.321      394.31188    
     49010   1040.268      -5678.636      -5472.2319      166.50453      50590.406      394.30681    
     49020   1060.0294     -5681.8374     -5471.5124      503.30746      50583.911      394.30418    
     49030   1066.6038     -5682.4867     -5470.8572      838.73315      50579.053      394.29797    
     49040   1068.3559     -5682.2684     -5470.2913      1020.5231      50576.971      394.32367    
     49050   1080.1924     -5684.1632     -5469.8376      832.04006      50578.242      394.41738    
     49060   1073.0843     -5682.4182     -5469.5029      777.8977       50582.479      394.5747     
     49070   1067.1089     -5681.0079     -5469.2783      601.02997      50589.473      394.79102    
     49080   1061.3624     -5679.7222     -5469.1327      149.45454      50598.616      395.02494    
     49090   1060.649      -5679.4849     -5469.0369     -425.71773      50608.423      395.24138    
     49100   1068.1863     -5680.9358     -5468.9923     -906.3308       50616.969      395.42829    
     49110   1061.0079     -5679.5328     -5469.0137     -916.91796      50622.669      395.58857    
     49120   1046.0689     -5676.6251     -5469.0701     -521.3848       50625.388      395.73412    
     49130   1050.0341     -5677.4696     -5469.1278     -226.339        50626.301      395.8846     
     49140   1051.7012     -5677.8651     -5469.1925      56.400766      50626.463      396.05905    
     49150   1031.2608     -5673.8668     -5469.2499      639.37457      50626.927      396.26488    
     49160   1031.3487     -5673.88       -5469.2457      899.8935       50629.478      396.49692    
     49170   1044.1013     -5676.334      -5469.1693      772.08583      50635.094      396.73274    
     49180   1046.0387     -5676.5837     -5469.0347      589.14517      50643.511      396.95707    
     49190   1057.2073     -5678.6558     -5468.8907      198.07035      50654.073      397.15177    
     49200   1051.0792     -5677.2905     -5468.7414     -33.057551      50665.622      397.31077    
     49210   1034.5883     -5673.8423     -5468.5651      127.78096      50677.443      397.43204    
     49220   1058.6913     -5678.3793     -5468.3198      28.392803      50689.814      397.50594    
     49230   1071.7712     -5680.6824     -5468.0276      262.27856      50702.639      397.56839    
     49240   1069.3469     -5679.9434     -5467.7696      668.68055      50716.64       397.66577    
     49250   1061.3873     -5678.12       -5467.5255      955.02301      50733.202      397.82606    
     49260   1067.5712     -5679.1183     -5467.2969      865.14781      50753.312      398.04472    
     49270   1070.9907     -5679.579      -5467.0791      568.42325      50776.808      398.29114    
     49280   1052.1815     -5675.6609     -5466.893       399.16168      50802.81       398.58073    
     49290   1050.1412     -5675.0643     -5466.7013      118.09263      50830.639      398.94103    
     49300   1053.0213     -5675.3917     -5466.4572     -126.14058      50859.345      399.31901    
     49310   1059.7667     -5676.4816     -5466.2087     -246.6491       50888.14       399.66693    
     49320   1056.152      -5675.5159     -5465.9602     -240.37529      50916.57       399.99932    
     49330   1038.8835     -5671.8285     -5465.6991      18.466192      50944.694      400.34395    
     49340   1044.5668     -5672.6477     -5465.3907     -97.678735      50973.164      400.71165    
     49350   1058.7892     -5675.1064     -5465.0275     -259.34168      51001.713      401.12547    
     49360   1053.0759     -5673.5988     -5464.6534     -153.01149      51029.862      401.60249    
     49370   1047.7607     -5672.1661     -5464.2754     -88.841395      51057.861      402.10859    
     49380   1044.5163     -5671.1045     -5463.8575     -149.73874      51085.911      402.62306    
     49390   1043.1244     -5670.371      -5463.4001     -268.18817      51113.801      403.11994    
     49400   1046.7388     -5670.572      -5462.884      -562.1291       51141.049      403.56524    
     49410   1068.623      -5674.3682     -5462.338      -1073.1769      51166.547      403.93811    
     49420   1069.1681     -5673.9456     -5461.8073     -1328.2942      51188.647      404.21107    
     49430   1073.579      -5674.3531     -5461.3397     -1542.4194      51206.27       404.37729    
     49440   1071.5053     -5673.5493     -5460.9473     -1560.6923      51218.682      404.4547     
     49450   1068.0438     -5672.5679     -5460.6527     -1446.8435      51225.721      404.4757     
     49460   1057.8118     -5670.2988     -5460.4138     -1261.5755      51227.719      404.49453    
     49470   1048.2426     -5668.1968     -5460.2104     -1100.705       51225.252      404.55959    
     49480   1036.6812     -5665.6794     -5459.987      -892.34672      51218.898      404.67525    
     49490   1038.5073     -5665.7622     -5459.7075     -882.97049      51209.274      404.78139    
     49500   1043.4584     -5666.4071     -5459.37       -935.41738      51196.406      404.83032    
     49510   1045.4659     -5666.4155     -5458.9801     -843.1981       51180.162      404.82884    
     49520   1053.5427     -5667.6021     -5458.5641     -644.52954      51160.861      404.84367    
     49530   1057.1285     -5667.8676     -5458.1181     -510.51217      51139.127      404.92437    
     49540   1065.4364     -5669.0717     -5457.6738     -503.45345      51115.409      405.06515    
     49550   1062.375      -5668.04       -5457.2496     -319.53679      51089.839      405.22074    
     49560   1056.1183     -5666.3917     -5456.8427     -125.3393       51062.979      405.32324    
     49570   1065.767      -5667.9181     -5456.4547      35.338558      51035.497      405.34117    
     49580   1057.8431     -5665.9731     -5456.0819      467.70261      51008.112      405.29832    
     49590   1052.0554     -5664.4552     -5455.7123      830.73312      50982.271      405.26345    
     49600   1054.1318     -5664.4757     -5455.3209      966.411        50959.201      405.28571    
     49610   1057.2907     -5664.6958     -5454.9142      1143.0508      50939.494      405.37607    
     49620   1069.195      -5666.6539     -5454.5103      1203.636       50923.712      405.5291     
     49630   1087.6129     -5669.9458     -5454.1478      981.28526      50912.035      405.74293    
     49640   1103.6178     -5672.9041     -5453.9305      752.66101      50903.766      405.98285    
     49650   1079.6388     -5668.1129     -5453.8971      945.53492      50898.309      406.2185     
     49660   1072.1337     -5666.7312     -5454.0045      734.34642      50895.989      406.40681    
     49670   1081.9128     -5668.8918     -5454.2248      295.40624      50896.142      406.53675    
     49680   1073.7639     -5667.6482     -5454.5981      13.401258      50897.353      406.63541    
     49690   1066.2221     -5666.6689     -5455.1152     -197.95598      50898.652      406.73263    
     49700   1076.1211     -5669.2815     -5455.7637     -582.42115      50899.22       406.79661    
     49710   1077.033      -5670.2977     -5456.599      -676.66751      50897.89       406.80151    
     49720   1046.5424     -5665.2495     -5457.6005     -489.67602      50894.298      406.79413    
     49730   1042.3459     -5665.5018     -5458.6855     -660.03333      50888.909      406.82533    
     49740   1049.5924     -5668.0627     -5459.8086     -781.75498      50881.308      406.88996    
     49750   1049.213      -5669.1412     -5460.9624     -556.95267      50871.153      406.98223    
     49760   1045.4052     -5669.5466     -5462.1233     -271.35149      50859.109      407.0889     
     49770   1038.2386     -5669.2273     -5463.2259      1.6694368      50846.21       407.18105    
     49780   1056.4162     -5673.8668     -5464.2587     -137.60997      50833.262      407.23723    
     49790   1068.9666     -5677.3682     -5465.2699     -309.40795      50819.912      407.2682     
     49800   1070.9205     -5678.7649     -5466.2789     -414.39679      50805.584      407.33775    
     49810   1072.7052     -5680.1243     -5467.2842     -387.0053       50789.945      407.46718    
     49820   1070.1994     -5680.5784     -5468.2355     -305.48961      50773.113      407.63334    
     49830   1086.7545     -5684.8088     -5469.1812     -569.85842      50755.216      407.83592    
     49840   1070.4635     -5682.5035     -5470.1082     -529.32325      50735.638      408.08993    
     49850   1050.8677     -5679.4731     -5470.9659     -448.15671      50714.423      408.32077    
     49860   1044.2444     -5678.8927     -5471.6997     -811.78317      50691.699      408.42764    
     49870   1029.9294     -5676.6522     -5472.2995     -1096.9576      50666.418      408.39812    
     49880   1006.1097     -5672.3602     -5472.7337     -942.03062      50637.766      408.28865    
     49890   987.43367     -5668.8717     -5472.9507     -613.37744      50606.236      408.1751     
     49900   998.95306     -5671.1444     -5472.9378     -542.76594      50572.798      408.08288    
     49910   1025.2708     -5676.1765     -5472.7481     -600.49741      50537.747      408.00883    
     49920   1036.6885     -5678.1639     -5472.4701     -303.18945      50501.119      407.9238     
     49930   1033.8613     -5677.2788     -5472.1459      76.208128      50463.805      407.7894     
     49940   1033.6009     -5676.8555     -5471.7742      495.24601      50427.151      407.6213     
     49950   1047.5113     -5679.2073     -5471.366       590.39289      50392.417      407.4337     
     49960   1039.5909     -5677.21       -5470.9402      833.99482      50360.083      407.21288    
     49970   1041.7369     -5677.1946     -5470.4991      987.96249      50330.838      406.97007    
     49980   1057.1457     -5679.7896     -5470.0367      909.16936      50305.148      406.75002    
     49990   1078.4875     -5683.5967     -5469.6093      696.72312      50282.749      406.59785    
     50000   1083.7214     -5684.3156     -5469.2897      639.57963      50262.998      406.51718    
Loop time of 7562.85 on 1 procs for 20000 steps with 1536 atoms

Performance: 0.228 ns/day, 105.040 hours/ns, 2.645 timesteps/s, 4.062 katom-step/s
124.0% CPU use with 1 MPI tasks x 1 OpenMP threads

MPI task timing breakdown:
Section |  min time  |  avg time  |  max time  |%varavg| %total
---------------------------------------------------------------
Pair    | 7402.8     | 7402.8     | 7402.8     |   0.0 | 97.88
Bond    | 0.0069307  | 0.0069307  | 0.0069307  |   0.0 |  0.00
Neigh   | 5.8821     | 5.8821     | 5.8821     |   0.0 |  0.08
Comm    | 0.66177    | 0.66177    | 0.66177    |   0.0 |  0.01
Output  | 151.84     | 151.84     | 151.84     |   0.0 |  2.01
Modify  | 1.5089     | 1.5089     | 1.5089     |   0.0 |  0.02
Other   |            | 0.142      |            |       |  0.00

Nlocal:           1536 ave        1536 max        1536 min
Histogram: 1 0 0 0 0 0 0 0 0 0
Nghost:           2491 ave        2491 max        2491 min
Histogram: 1 0 0 0 0 0 0 0 0 0
Neighs:              0 ave           0 max           0 min
Histogram: 1 0 0 0 0 0 0 0 0 0
FullNghs:        47574 ave       47574 max       47574 min
Histogram: 1 0 0 0 0 0 0 0 0 0

Total # of neighbors = 47574
Ave neighs/atom = 30.972656
Ave special neighs/atom = 0
Neighbor list builds = 2000
Dangerous builds = 2000
unfix           3

write_data      structure.end.data
System init for write_data ...
write_restart   structure.end
System init for write_restart ...
                    
Total wall time: 3:18:02
