LAMMPS data file via write_data, version 2 Aug 2023, timestep = 50000, units = metal

1536 atoms
3 atom types

-3.631186840942796 25.167663475245977 xlo xhi
-0.4762196899572171 22.01269632426033 ylo yhi
-6.499126676150794 71.10855657906075 zlo zhi

Masses

1 35.45
2 39.0983
3 6.94

Atoms # full

1072 0 1 -1 1.4141103128392007 2.361336553247978 -5.022709369566298 0 1 0
388 0 3 1 9.119695160296683 0.9880933912091747 -3.652348837968214 0 0 0
486 0 1 -1 9.208319253867893 2.62134351506231 -5.666455115844136 0 0 0
658 0 3 1 15.8303950070277 1.2652439635333816 -6.496855434038892 -1 1 1
1061 0 1 -1 17.591325036313034 2.3124898654719335 -5.808167784096872 -1 1 0
97 0 3 1 20.439101412952773 0.29263440410161157 -4.089035504963025 -1 0 0
478 0 1 -1 20.44571293360567 2.6348177246871445 -3.9950940446422827 -1 0 1
86 0 1 -1 24.279553129285183 0.7781197261954187 -4.3979878171651325 -1 0 1
579 0 3 1 22.2486381721591 2.092283393732488 -5.352874318010436 -1 1 0
1257 0 3 1 -1.049987101674287 2.918556453931483 -5.1941259616314674 0 0 0
1064 0 1 -1 -2.3037104384770624 3.6775646545645504 -3.335156271009524 0 1 0
761 0 3 1 -3.195170054098309 5.5486718442608955 -4.4613226738061815 0 1 1
481 0 3 1 5.949122363785998 5.369742251594724 -5.5966434048861755 0 0 0
967 0 1 -1 5.511389684924017 2.9693931469384927 -5.991962298370711 0 0 0
865 0 2 1 8.685001809609386 4.645331373195675 -3.272694231680278 0 0 0
778 0 2 1 11.929282634357964 3.0216399721652127 -5.076851004656939 0 0 0
1442 0 3 1 18.682266586319706 4.063919552764831 -5.146763500214178 0 1 0
869 0 1 -1 -1.2298443836771993 6.69854741192805 -4.750917003720131 0 0 0
878 0 1 -1 7.645583923885052 7.380521198840335 -5.617936658127592 0 0 0
1147 0 3 1 6.697930415170731 7.9982328606356745 -3.3469038331794096 0 0 1
585 0 3 1 15.78579507254862 6.614746546572298 -4.6235060855132035 -1 0 0
1159 0 1 -1 18.789167864091983 6.735505310802206 -4.389543636624197 0 0 0
485 0 1 -1 24.739844361033256 6.204934741747703 -6.404018737295102 -1 0 0
962 0 3 1 -2.9958552396713305 10.367067676237163 -5.62957299079216 0 0 0
487 0 1 -1 -2.2343216343864363 9.828157220827896 -3.380448978721894 0 0 0
866 0 3 1 3.6325306912387934 10.59681190881063 -3.767909824545064 0 0 0
1352 0 1 -1 5.050373792385626 11.441987243985983 -5.364832124401957 1 0 0
381 0 1 -1 8.942162924062673 11.741335582219204 -5.971204664909724 -1 0 1
577 0 3 1 9.813455780446041 9.645123560436454 -4.830227869724617 0 0 0
94 0 1 -1 11.533376370188803 10.020916031401596 -3.7157556098970286 -1 0 1
203 0 3 1 10.933110745572124 12.357287628608043 -5.055883107615716 -1 0 0
1254 0 1 -1 14.328219777238079 12.186611217321325 -3.5360095595328467 0 0 0
292 0 2 1 14.002978003436006 9.59175266183557 -5.7118266182401225 -1 0 0
864 0 1 -1 19.80492671758622 10.095864753254338 -5.3773545882465115 -1 -1 1
1346 0 3 1 21.235589898704337 11.504663249006231 -4.411051391660962 0 0 0
103 0 1 -1 23.40372251129253 11.44006435598377 -5.382450013784618 -1 0 0
384 0 1 -1 -1.433196332226113 15.201979778158513 -3.987949521079574 -1 0 1
284 0 2 1 0.47005372138765367 13.717315160447264 -6.457715521873042 0 0 1
684 0 3 1 1.8564130238971295 14.940318086357566 -3.687170408446448 0 0 0
205 0 1 -1 2.9389765087057222 12.791625210368293 -3.4714884579027148 0 0 0
1059 0 3 1 5.061956442357127 13.981892449907171 -3.3044344375587915 0 0 0
1256 0 1 -1 6.90679144278954 14.96231263221055 -4.1069652608602265 0 0 0
282 0 2 1 15.55423416128076 14.195639489213276 -6.100859541424463 -1 0 1
1368 0 1 -1 20.945052577313866 14.222104151531054 -5.00381619905177 0 0 0
1348 0 3 1 23.391313432624223 14.268843042041537 -4.185851019709297 0 0 0
467 0 3 1 -2.1133468349238385 17.427243480611395 -6.409035145410783 1 0 1
1447 0 1 -1 -2.3048235505360655 18.791305895320967 -4.578274352250046 1 0 0
583 0 1 -1 1.622699981726484 16.79728226270383 -5.779577261041551 0 0 0
291 0 3 1 1.5595793629509496 18.582672477753462 -3.8589293838817684 0 0 0
958 0 1 -1 11.762815211864991 18.479171950002637 -4.291849696768063 0 -1 1
71 0 1 -1 16.059515541512393 16.345015676407264 -3.925595080196433 -1 0 1
689 0 3 1 21.212747562396547 18.283830657563392 -4.652503552139273 -1 0 0
198 0 1 -1 23.083019399897367 16.71391778447773 -4.505727408357411 -1 0 0
107 0 3 1 24.164261123428137 18.35664852076212 -5.44604505281043 -1 0 0
666 0 2 1 -1.9893834152830894 21.470082504879514 -4.175538253867099 0 0 1
966 0 1 -1 1.4318997845285235 20.376768541674323 -5.45888289914244 0 0 0
1525 0 1 -1 8.662584413331462 20.611605621418775 -4.904720700745468 0 0 1
274 0 3 1 11.313367409109118 21.100827533705022 -4.559287954439053 -1 0 1
771 0 3 1 14.594937525324813 19.116649127017126 -4.638770746336979 0 -1 0
1174 0 1 -1 13.698376332672744 21.38474098230283 -4.377807224438538 0 -1 0
303 0 1 -1 18.432261528963025 20.81178146343244 -3.795077393720351 -1 0 0
1515 0 3 1 -3.6113742987688795 1.9585287606192274 -2.4910260773963264 1 1 1
1070 0 1 -1 7.60305120322667 1.44137767273041 -2.1863017090453756 0 1 0
1263 0 1 -1 10.74316914821875 -0.4291122837299212 -2.611735518485596 0 0 0
1455 0 1 -1 13.894349824206191 2.5088307436523984 -2.2470096520824665 0 1 0
779 0 3 1 12.912647308610797 0.38824865289394395 -2.486157811130239 0 0 0
1347 0 2 1 16.588549451154538 0.4192261271005657 -2.1587390466031957 0 1 0
953 0 3 1 21.239607386590897 2.2638684748709905 -1.8785046529516087 0 0 1
1167 0 1 -1 20.571470532809915 0.30245922931749936 -1.1951962209446272 0 0 0
194 0 3 1 -3.540782347977752 4.08493350377066 -0.9644939929394933 0 1 0
970 0 2 1 1.304202310714472 4.242885407144929 -2.48401705001221 0 1 0
776 0 1 -1 4.121812521276344 3.2591255130392494 -1.7133381052706609 0 0 0
657 0 3 1 5.105543541397184 4.7726838870519295 -0.28818281990414274 -1 0 1
1269 0 1 -1 11.391458595135363 5.507115243053166 -2.876613163386776 0 0 0
1171 0 3 1 12.312131088438386 4.035407313768766 -1.0959331526398168 0 0 0
1157 0 1 -1 20.59703555510014 5.007238111555898 -0.21643179366963405 0 0 0
1453 0 1 -1 23.391459477941172 2.9106634046154163 -1.4423237118063792 0 1 0
299 0 3 1 22.570814282015377 5.895660426000822 -1.2237271334195707 -1 1 0
301 0 1 -1 -0.9474944566977159 6.377519246921354 -0.6780231090366842 0 1 0
492 0 3 1 -1.8308375896605442 7.096420366881712 -2.6539520261618392 0 0 0
279 0 1 -1 2.7068124036911625 8.379284654844668 -2.8185755521475966 -1 0 1
961 0 3 1 4.735670674926373 8.185058840941528 -1.4005674136938486 0 0 0
496 0 1 -1 6.302940768760783 6.024960811170784 -2.81240309545165 0 0 0
880 0 1 -1 6.766486000382434 8.902521793805747 -1.0836676828409448 0 0 0
975 0 1 -1 9.522544241313236 7.876440015382391 -0.08912062406459231 0 0 0
404 0 3 1 11.163406235018808 6.333724670292188 -0.14284096442144012 0 0 0
1458 0 2 1 12.615981148357072 8.948012228366856 -1.3362812852844188 0 1 0
870 0 1 -1 14.5855248617286 7.931594851815792 -3.0905446070276708 0 0 0
1184 0 1 -1 13.614142588650019 5.978426512630112 -0.05715335443287817 0 0 0
12 0 2 1 19.330362605579563 8.044839043823801 -1.197943374998233 -1 0 0
1255 0 1 -1 24.954048265445973 6.205790904437632 -1.5405602460990204 0 0 0
1357 0 1 -1 22.290388709946576 8.817657501526673 -2.3389702241434502 0 0 0
195 0 2 1 0.1975470507602224 9.262014721613363 -1.0358130617135144 0 0 0
1354 0 2 1 7.619910486117835 11.818459626422108 -3.093040913422244 0 0 0
483 0 2 1 15.577323863316693 10.205553957492025 -1.5487049321297173 0 0 0
770 0 3 1 22.858362098467623 9.843427550002787 -0.2882678217457739 -1 0 0
1443 0 3 1 24.48089173129568 10.157291912645391 -1.9233056767331087 0 1 0
304 0 1 -1 24.264488785882495 11.623256611980192 -0.29925697182099853 -1 1 0
110 0 1 -1 4.921123887931197 12.454412883442838 -0.18367097587066805 0 0 0
1451 0 3 1 3.6037906978600827 14.508597995546387 -0.2211785614091628 0 0 0
1277 0 1 -1 9.614503574733948 12.689733041233724 -1.1957493562063144 0 -1 0
1418 0 3 1 14.452997911043141 14.124996880866183 -2.71543502954135 0 1 1
296 0 1 -1 12.735495753444486 14.814855341561424 -1.1898494441397034 -1 0 0
783 0 1 -1 17.236140686926564 14.675202208283743 -0.3989815016555589 0 -1 0
1258 0 2 1 18.85875291780957 15.567397175650145 -2.8823500351393028 0 0 0
592 0 1 -1 20.859441024223315 13.884939903578978 -1.4829501545058168 -1 0 0
1262 0 1 -1 23.99088362902385 14.847366732701813 -1.4750070906133859 0 0 0
489 0 3 1 -2.704276195025222 15.681852514373803 -2.4863093040901454 0 -1 0
974 0 1 -1 1.5707001539623242 15.761079308610148 -1.5907719223404015 0 0 0
675 0 3 1 -0.2953295553574713 17.74430154670003 -1.1791644259626484 0 0 0
589 0 1 -1 5.217694454488164 15.94904971150635 -0.8955552669668991 0 0 0
1076 0 2 1 5.027227352720088 17.81744498369728 -3.0131791175412035 0 0 0
773 0 1 -1 7.946996251933493 17.545027277508723 -1.5639964580146684 0 -1 0
378 0 2 1 10.291854992554786 15.633077781654523 -2.7856055279004766 0 1 1
948 0 3 1 15.76038554199112 16.67434207674124 -1.2215511125760434 0 0 1
1534 0 1 -1 20.320301367014352 17.88132401340944 -1.919845059295909 0 0 1
1146 0 3 1 22.29194103096902 16.991640548638166 -2.374506739519312 -1 1 1
683 0 3 1 -3.559882325272451 19.28765957465155 -0.3723807221454738 0 0 0
295 0 1 -1 -2.408304338138784 21.04707197971858 -1.4256836907132984 0 0 0
1077 0 1 -1 0.710108357078223 19.411480615622118 -1.884599305013043 0 0 0
1231 0 1 -1 4.344104701350783 19.12772063129175 -0.18097365718883296 0 -1 1
1506 0 3 1 8.987864115934189 21.793582979011745 -0.376614051844137 -1 0 1
780 0 3 1 9.410616674898138 19.055226756205116 -2.350485974687274 0 -1 0
1456 0 1 -1 10.477864269021085 19.836975597323836 -0.2542031003062588 0 0 0
1450 0 3 1 18.70864541033978 20.27880671464669 -1.4702019387752552 0 0 0
877 0 1 -1 16.89917188044398 20.932568953154906 -0.1293707933433499 0 -1 0
1063 0 1 -1 23.15360746601357 18.924018692072828 -1.7016435145375057 -1 0 0
490 0 2 1 -0.5059067162678623 1.2101613868622507 2.358388011949625 0 0 0
397 0 1 -1 2.190819907375224 0.31240301863851394 0.5459139414596681 0 0 0
1474 0 2 1 5.2670191525242895 0.7575727661465961 0.1316970794876715 0 1 0
15 0 1 -1 4.507345575826413 0.9371689607512184 2.8762152299847603 0 0 0
785 0 3 1 3.036393655618511 2.040031010687761 1.5018861338875737 0 0 0
1273 0 3 1 9.124206492740436 2.1223743471979604 0.8972802341640138 0 0 0
983 0 1 -1 10.950715800094379 1.0979309503367938 1.4330035777885684 0 0 0
1460 0 2 1 14.109309455611875 2.2690191150426178 2.139276229241162 0 1 0
1341 0 1 -1 18.714046256938566 2.403364918002936 0.11719258730762583 0 0 1
1154 0 3 1 18.22454780555607 0.23520069002943123 0.926770892069845 0 0 0
775 0 1 -1 -2.2748289332004843 3.3254551652641866 0.8632488050720601 0 0 0
395 0 3 1 -0.18205460938475415 4.7219797336819225 0.8599836319336811 0 0 0
590 0 1 -1 2.3025838894855104 4.351713523689484 1.4634437848578221 0 1 0
774 0 1 -1 7.119580966889689 3.178434150560661 0.9386037988417639 0 0 0
1172 0 3 1 8.504301437200766 5.600720822145258 0.7693139275089056 0 0 0
797 0 1 -1 10.621667661559453 4.87076986524987 0.9346008064346503 0 0 0
1452 0 3 1 15.43782661916056 5.816049636671248 1.5312322184632343 0 1 0
13 0 1 -1 16.431269151995398 3.8550134566481127 1.8509730758322203 -1 0 0
1353 0 3 1 18.5360039913905 4.7534760059566 0.9467431424511386 0 1 0
494 0 1 -1 2.1799472632074695 8.245032127751598 2.3269206011819286 0 0 0
119 0 1 -1 4.227690586659488 6.809707940513795 0.5003091901764849 0 0 0
17 0 3 1 3.7800696797495945 6.968003941693893 2.636434194900076 0 0 0
1266 0 3 1 7.563317879273908 8.963818015883525 1.3333187286795578 0 0 0
686 0 1 -1 7.928519985049274 7.016637660133468 2.642404289509784 0 0 0
1355 0 3 1 14.69654866230811 9.042822295540017 1.163935229203429 0 0 0
1365 0 1 -1 12.71959951848256 8.31107930637654 2.0689582931459682 0 0 0
1264 0 1 -1 16.934242594739807 8.182848340324906 0.8744936737752056 0 0 0
22 0 1 -1 19.311827208636892 6.810385710337152 2.763118607274281 -1 0 0
105 0 3 1 21.273335539811494 7.975761725531605 2.8577159144491286 -1 0 0
693 0 1 -1 -1.4447956380550457 9.566183031657015 2.3579672759583925 0 0 0
98 0 2 1 -2.6421327575905025 12.022543660450806 1.959893924632432 0 0 0
867 0 3 1 3.7512526423686 9.899087912917599 3.013627326517467 1 0 0
1359 0 1 -1 6.774765334231812 10.737837043044754 2.5896965427726624 0 0 0
207 0 1 -1 14.02857318759666 11.422562813515503 0.48090873119847366 -1 0 0
127 0 1 -1 21.71689275914588 10.437724318668028 1.7904252013075137 -1 0 0
212 0 3 1 19.907841391027272 11.57103153593125 2.3335357208493726 -1 0 0
551 0 1 -1 1.8467729696608473 14.561317512909188 1.4623670398022321 0 0 1
500 0 3 1 6.27692336516769 12.667308666881613 1.4664768294810697 0 0 0
1166 0 1 -1 8.974982643310119 13.615986205428484 2.498599668443621 0 -1 0
1164 0 3 1 11.90850648859466 12.823494861570904 0.23542567768567402 0 -1 0
1073 0 3 1 10.840254358464689 12.675800136367156 3.115413037596621 0 0 0
973 0 1 -1 13.461787181739489 15.190151184004353 3.092601829446979 0 0 0
1363 0 3 1 19.368215864514063 14.408330687281554 0.34360786928988407 0 0 0
1270 0 1 -1 20.25490214497684 14.066767335459241 2.6424684834310757 0 0 0
1066 0 3 1 23.01105590945556 13.642105268237072 0.24682123020066893 -1 0 0
7 0 1 -1 -1.597680800705516 16.83103875336029 0.2699620896132231 0 -1 0
394 0 3 1 0.40504603441217846 16.812047539266885 1.0587496358858957 0 -1 0
1080 0 1 -1 1.319864782374002 18.6967890786225 1.4841422225554313 0 0 0
685 0 1 -1 4.065375179552708 17.156282908885146 2.5650226621937087 0 0 0
92 0 3 1 3.1181829533684553 16.90597228457748 0.2504088953965109 -1 -1 1
1067 0 2 1 7.4043204538448215 16.006491728605127 2.1770223046223496 0 0 0
1060 0 3 1 8.484992804344518 18.695894132443286 0.919160454208976 0 0 0
981 0 1 -1 10.525364626530495 17.3944509528625 1.587659711862635 0 0 0
1361 0 3 1 12.465391428498386 18.58316191489974 0.37636751092211007 0 0 0
120 0 1 -1 14.662311139683222 17.90705385914866 0.3940608375364789 -1 0 0
391 0 1 -1 20.224173475147133 18.331979373761115 2.4393074879758885 -1 -1 0
208 0 1 -1 24.91852572385334 18.787456439525023 1.9964901168240363 -1 0 0
297 0 3 1 -1.9841541665683307 19.992114531115632 2.638691090589873 0 0 0
875 0 3 1 1.8948603210811559 20.77519341952462 0.05037625603200091 0 0 0
497 0 2 1 4.970756028072611 19.95944499184114 2.819831865382893 0 -1 0
1175 0 1 -1 7.969549555995311 21.684618153481722 1.6268686174801559 0 -1 0
1180 0 3 1 11.688054525032358 21.19243863016912 1.722143683501665 0 -1 0
302 0 1 -1 14.141687484908005 21.625072891932646 1.5721562966967184 -1 0 0
202 0 3 1 15.867281439023703 19.97214053911106 1.7388196817610506 -1 0 0
1351 0 1 -1 17.94117253566003 21.891393004291892 2.9800656916398616 0 0 0
307 0 2 1 22.2875152321982 20.62847650452519 0.48327757090001455 -1 0 0
21 0 1 -1 -2.7443805141134394 -0.19103688799556895 3.5118292818022727 0 0 0
201 0 3 1 -3.200656895201862 1.197544097157178 5.295630666463495 0 1 0
1373 0 1 -1 -1.8785313457124757 2.7211742023922647 5.728940584718037 1 0 0
306 0 3 1 3.662029532278181 -0.1524546610448651 5.860930981141172 0 1 0
873 0 2 1 6.472300585486911 2.2976400845379454 4.370752864612953 0 0 0
804 0 2 1 12.030024166733407 0.2811930334064403 5.7671068443245925 0 0 0
1267 0 2 1 17.62821601822947 2.108611038674937 4.163241998565157 0 0 0
1459 0 3 1 21.158166766905957 1.458037787846858 6.049027316926226 0 1 0
16 0 1 -1 23.32328356535785 1.729650878189183 6.093192907919638 -1 0 0
298 0 3 1 -1.779259819124676 4.981475075870262 4.960406015083217 0 1 0
18 0 3 1 2.510573106737966 4.549154875209524 3.7431710791632895 0 0 0
125 0 1 -1 0.4455951850742501 5.314078818181496 4.588366510257849 0 0 0
879 0 1 -1 4.756390140125051 5.017834324611339 3.748034300685239 0 0 0
887 0 1 -1 12.843811452554615 3.180505349904775 4.582507803867575 0 0 0
898 0 3 1 14.076042333365915 4.201684971074114 6.076631444539695 0 0 0
1192 0 1 -1 20.472330252116336 3.5147530815614516 5.312036022212331 0 0 0
108 0 2 1 22.734288990913935 4.8557709380854055 6.143063557790494 -1 0 0
117 0 1 -1 -2.8051175680399245 7.079826481844923 5.303788801385146 0 0 0
396 0 3 1 -2.961660669556565 8.321064338370768 3.638857939270329 0 -1 0
1162 0 3 1 0.46851348239596824 8.619090620387674 3.777408693339524 0 0 0
1169 0 3 1 5.047626574927202 6.806859035309913 5.957635203808319 0 0 0
886 0 1 -1 5.143287347081197 8.804579266530988 4.763042613971635 0 0 0
692 0 3 1 7.110847853748567 8.83077096697676 4.002539244560802 0 0 0
1082 0 3 1 8.877824415399347 8.644132397077216 6.386287955135238 0 0 0
889 0 2 1 11.312237418204829 6.365953854733776 3.5210504057034377 0 0 0
1278 0 1 -1 21.486349953212724 8.820948829943985 4.909163199100732 0 0 0
784 0 1 -1 -0.26982997185674806 9.676906841204664 5.8641053627394975 0 0 0
495 0 1 -1 2.843068387382382 11.731653958121502 4.1313154427518075 0 0 0
874 0 3 1 8.109784606616175 12.02993051553023 3.978354944791441 0 0 0
1071 0 1 -1 9.190893474790414 10.366303837397846 5.074723049531141 0 0 0
979 0 3 1 11.50072248919393 10.938387680602457 5.959575924933576 0 0 0
597 0 1 -1 13.70955583265831 10.956599092881618 5.828788750087229 0 0 0
1168 0 1 -1 18.591644238314718 10.855362335401475 4.083698403298703 0 0 0
1362 0 3 1 19.071716328695313 11.304558265696796 6.222298096088915 0 0 0
121 0 3 1 22.652066177638325 10.583135156293118 4.045927520866103 -1 0 0
215 0 1 -1 24.978114595080118 10.51773161839661 3.9901706377855337 -1 0 0
596 0 2 1 0.7818484375788213 12.745638800572978 6.000752800127685 0 0 0
977 0 3 1 4.625445374565725 12.870533262775984 5.325188698962874 0 0 0
116 0 3 1 3.254054103549165 14.178867718568767 3.610607654225115 0 0 0
885 0 1 -1 5.562738687994749 13.509111280246707 3.586106866105018 0 0 0
790 0 1 -1 3.304386157116979 14.664132017592262 6.286281917571786 0 -1 0
216 0 1 -1 11.481930108263972 13.524534532364953 5.065344986259499 -1 0 0
1371 0 3 1 13.835997310730335 14.52683348453916 5.318117295007944 0 0 0
305 0 3 1 18.313397560396464 14.367586987141957 4.213371774686841 -1 0 0
505 0 3 1 22.661931113979637 13.835212777288305 5.927866130719272 -1 0 0
591 0 1 -1 24.813283997270748 15.091152944339385 5.553585814865409 -1 0 0
9 0 2 1 -2.1204726062089687 16.990085380415785 4.195052480101554 0 -1 0
587 0 3 1 2.2710778738443977 17.78656158691072 3.373904469496818 0 0 0
791 0 1 -1 0.22525585989453267 15.673395673197978 5.545672968523567 0 -1 0
109 0 1 -1 3.055631844031672 18.597667655350314 5.3064532929093176 0 -1 0
789 0 1 -1 7.68764933577523 18.543310358556056 4.06958870224145 0 -1 0
868 0 2 1 11.443736202523667 16.67001439058565 5.35711786303373 0 -1 0
402 0 3 1 14.732585592165425 17.245703599330227 3.2488101073138083 0 -1 0
1252 0 2 1 18.367222559148455 18.61480049075722 4.64956127328437 0 0 0
206 0 1 -1 16.744161432806983 16.3819126857953 4.215320029701948 -1 0 0
788 0 2 1 22.206397845372695 16.975837464808514 3.6251924425260835 0 0 0
213 0 1 -1 24.662007272132776 18.35510658067583 5.933088853484739 -1 0 0
400 0 1 -1 -0.5365305948568504 19.435708533869125 4.409016049988592 0 -1 0
20 0 3 1 1.2839269185533801 20.675202059297547 4.502300019426441 0 -1 0
14 0 1 -1 5.290061894502964 21.084903988130044 6.152204102990678 0 -1 0
491 0 3 1 8.25470865770851 20.60090683269032 4.137914043940068 0 -1 0
1462 0 1 -1 10.89022458478965 21.14457641803621 3.8918247553904113 0 0 0
772 0 3 1 24.884821841047657 20.635000215618113 4.871529002479296 0 -1 0
595 0 2 1 1.140769584763599 2.4322908052845493 7.735100891278412 0 0 0
398 0 1 -1 4.544600187770673 1.8217844836365549 6.783652221329453 0 0 0
882 0 3 1 4.29008988045966 0.9857983290279482 9.571545787413537 0 0 0
808 0 1 -1 8.644219743672027 0.46945764578596283 6.505699388024562 0 0 0
1377 0 3 1 6.484537184540494 0.35638263138279114 7.6369344407433974 0 0 0
399 0 1 -1 15.862693879294312 2.5429025689573437 6.513444243742995 0 0 0
1369 0 2 1 16.666573453638367 -0.2477174549787781 7.541352981327286 0 1 0
1085 0 1 -1 19.170021782157814 0.7880246429039484 7.678793032220657 0 1 0
1374 0 1 -1 21.761568090691323 2.5887545087411254 8.846867374830342 0 0 0
122 0 2 1 24.984954999083538 2.597602383117239 8.29058721759786 -1 0 0
32 0 1 -1 -1.1074407156564616 3.319283272913223 9.110881751671077 0 0 0
892 0 3 1 5.938392834272596 5.325987783522493 8.101022414070295 0 0 0
800 0 1 -1 7.478395551295444 4.536957928423945 6.73475292317748 0 0 0
980 0 3 1 8.444650104762053 2.9242217371118446 8.432492615099001 0 0 0
412 0 2 1 10.351652892466117 5.384858868297948 8.981413537555449 0 0 0
1465 0 3 1 19.959590645668918 3.792416564823438 7.767520485467738 0 0 0
1470 0 1 -1 18.89866349960424 5.768320925673568 8.430667448723794 0 1 0
128 0 1 -1 24.300195167526685 5.2898741722012375 8.832056298923266 -1 0 0
320 0 1 -1 -2.2502615118740708 8.072566986758561 8.859496839223882 0 0 0
1 0 2 1 0.6952099454168703 7.65926391944595 8.17554316130036 0 0 0
504 0 1 -1 3.9027724729327486 6.038558112787856 8.076294401463832 0 0 0
6 0 1 -1 7.083890292052811 8.530206836481488 8.044592769693777 0 0 0
1271 0 1 -1 11.93863283306588 7.708540824341991 6.533059622605991 0 0 0
1370 0 2 1 11.8998230439091 9.14217646500252 8.973338943182272 0 0 0
798 0 1 -1 14.914047055123962 6.195194284996001 6.454675108694278 0 0 0
1274 0 3 1 16.960869349641083 6.149082881900748 7.337747339355889 0 0 0
1268 0 3 1 24.399920932300176 7.42785045136065 8.592420981833188 0 0 0
1366 0 1 -1 23.060790147577027 8.909195920457297 8.723724729450767 0 0 0
218 0 2 1 -3.2839334682690833 10.79106782894512 7.535157898516413 0 0 0
586 0 3 1 2.1901790613629757 10.95984038312068 9.162048090584978 0 0 0
1276 0 3 1 5.290433478509657 10.422471940634592 8.15031134682608 1 0 0
214 0 1 -1 3.255653562854995 9.721614155737095 7.5248940819042645 0 0 0
488 0 1 -1 6.569316990554908 11.889721828045602 6.471253786981526 0 0 0
786 0 2 1 8.464710653118342 12.02392054078664 8.657252078053649 0 -1 0
971 0 2 1 15.619261430043693 10.577987650099745 8.073587984266556 0 0 0
111 0 1 -1 19.78963287907094 9.569995381485787 7.686289566302646 -1 0 0
209 0 3 1 22.568053222423053 9.387303015255377 6.546523133213752 -1 0 0
1253 0 1 -1 22.401603511781047 11.690690916998047 6.571115675949191 0 0 0
403 0 3 1 4.6296210083759775 13.700035788300356 8.718046804177366 0 -1 0
893 0 1 -1 11.523688495105455 13.978753320682374 9.396739002208077 0 0 0
1367 0 1 -1 19.434107186394655 13.526425458721587 6.540944376529188 0 0 0
401 0 3 1 -1.1505784150324967 17.170559992109048 8.943672019568616 0 -1 0
1084 0 3 1 1.8138343868272386 16.801614778938124 6.607832333761561 0 0 0
782 0 1 -1 0.8185319381077001 17.978336023373934 8.543241075367186 0 -1 0
1095 0 1 -1 5.686068021627792 15.799456251489863 8.400904638399268 0 0 0
10 0 2 1 4.123000520241961 18.73682343935129 8.62873990633765 0 -1 0
884 0 3 1 7.788293568798391 16.87917207199787 8.900358606614706 0 0 0
1079 0 1 -1 9.916532433016526 17.68868769127497 7.688963482524292 0 0 0
114 0 3 1 11.868326713143174 15.965686954297636 8.680117887658607 -1 0 0
1176 0 1 -1 13.56104085409708 16.061018914899165 7.287952098143274 0 -1 0
387 0 2 1 19.240817539580423 17.715029814077063 9.107092148948983 -1 -1 0
308 0 3 1 24.043039673817297 16.62334843339076 7.505214555308269 -1 0 0
1280 0 1 -1 22.244219091705308 15.672793726330296 8.507832178511542 0 0 0
405 0 1 -1 -2.8004800604647206 19.03478695007697 8.920370938279133 0 -1 0
124 0 3 1 -0.07509329084328842 20.152312394888753 8.105334624387527 0 -1 0
493 0 1 -1 1.2398982593114543 21.36343249188061 6.7901896778470245 0 -1 0
321 0 2 1 11.615817004072051 18.83476861219806 9.589003617012928 -1 0 0
1163 0 3 1 15.521186262474831 19.232953324401187 8.178450312901838 0 -1 0
792 0 1 -1 14.345874575028024 21.145078335570794 8.378962407509235 0 -1 0
1358 0 1 -1 17.73028158458409 19.704224853974743 7.123688439522695 0 0 0
1461 0 1 -1 25.097343104629136 21.73523789824786 6.984720256493517 0 0 0
1449 0 3 1 23.75132375414516 20.175092187622177 8.139747279141748 0 0 0
31 0 1 -1 22.231061314386817 19.489369700150718 9.616186018149754 -1 -1 0
512 0 1 -1 -0.5466112347036507 2.5330242950753754 12.793969611566734 0 0 0
498 0 3 1 -0.08638676833714909 1.474628885085639 11.007949268705186 0 0 0
407 0 1 -1 2.2501493355679276 1.5949161955279116 10.398745290824422 0 0 0
509 0 1 -1 6.497722010232545 0.8311615200629652 10.03237053669384 0 0 0
408 0 1 -1 9.468847877479673 2.65113370157183 10.662811671239385 0 0 0
787 0 3 1 10.266252377362362 0.8210776600075551 11.776764461915064 0 0 0
796 0 3 1 16.731432333971384 2.646089966590128 10.795684489451322 0 0 0
814 0 1 -1 17.540015644019704 0.4551189315404408 10.868156181520568 0 0 0
1466 0 2 1 20.520028788060817 -0.13253789389521764 10.461930384187603 0 1 0
503 0 1 -1 1.9368150698528321 5.717606833949107 12.230075129955264 0 0 0
600 0 1 -1 6.784214006855182 4.5984307012124 10.158646233922951 0 0 0
508 0 2 1 8.021875773002765 3.3911112706809723 12.900706616237336 0 0 0
1288 0 1 -1 15.500852924033232 4.415588288270552 10.184170915069956 0 0 0
1177 0 3 1 17.92988611526935 5.6229496534690115 10.49992207768356 0 0 0
1261 0 1 -1 18.948276480985843 5.57777826447775 12.591163249591322 0 0 0
26 0 3 1 22.137601544467238 3.610779235896933 11.278128887321547 -1 0 0
311 0 1 -1 22.043599731032433 5.408932384420892 12.755454978786233 -1 0 0
210 0 2 1 -1.6634456765466583 6.008786496527067 11.04426692703396 0 0 0
309 0 1 -1 -2.270287897628055 9.04047625064595 12.611045146855322 0 0 0
690 0 2 1 4.607207041806779 6.570994365157608 11.405425044394988 0 0 0
896 0 1 -1 12.170961534552541 6.627064141719447 10.901458790776008 0 0 0
516 0 3 1 14.363781025817623 6.539032135448235 11.166296045015478 0 0 0
1272 0 1 -1 16.358331494116214 7.561558492842073 10.271544357775124 0 0 0
1260 0 2 1 19.285312148574157 8.899351179783713 10.346774621845569 0 0 0
317 0 1 -1 0.699034459056417 11.73032146097384 10.925502633436775 0 0 0
33 0 3 1 0.3600474412707273 9.77307317313962 12.383474591795643 0 -1 0
1356 0 3 1 2.885482748992514 12.225576993408161 11.398259603997541 1 0 0
888 0 1 -1 4.470700392341593 11.763295806540523 9.692745525301078 0 0 0
984 0 1 -1 9.826819145119124 10.0745462580614 11.330615109042796 0 0 0
1375 0 1 -1 13.867163165282637 10.505217810616246 10.752023166685607 0 0 0
883 0 3 1 15.098361372730693 11.493767810625524 12.464187196413395 0 0 0
1469 0 1 -1 18.08000100415813 10.892128260147986 11.93093585351409 0 0 0
221 0 1 -1 21.299957988855148 10.074926011468111 11.930571457233771 -1 0 0
314 0 2 1 23.80502560410039 9.22005077137972 12.436067705810817 -1 0 0
197 0 1 -1 -2.147561982586912 15.447137994779716 10.445204547611894 0 0 0
11 0 2 1 -0.04829858517657204 15.205600829872925 12.070302151778552 0 -1 0
598 0 1 -1 2.355339409268672 14.529154507157749 10.591345053728208 0 0 0
985 0 3 1 3.485938897208432 14.79323497778221 12.49727228177435 0 -1 0
502 0 1 -1 7.5101831287464975 13.985535014005894 10.956272076192523 0 -1 0
28 0 3 1 9.614436372337542 14.056940388597534 11.449980709097513 0 -1 0
1457 0 3 1 12.748977381974118 14.359982373303442 12.156973697489821 0 0 0
990 0 1 -1 15.043448978631936 13.626482323694455 12.890141857442085 0 0 0
1275 0 2 1 17.25002260384056 15.194794394453634 11.822896842070897 0 0 0
1090 0 2 1 20.476392601362548 12.835373588528135 9.80123773683615 0 1 0
1467 0 2 1 23.526363007323585 15.027338612959229 11.099580425811439 0 0 0
1078 0 1 -1 3.9913092970455955 18.016451236967733 11.442070954060593 0 0 0
1088 0 1 -1 8.517665985764712 17.886296076650368 11.260833005458426 0 0 0
986 0 3 1 6.640162670947552 16.02436063189831 12.182885634134639 0 0 0
1086 0 1 -1 13.329677658463215 16.390005783050697 11.589516336430755 0 0 0
982 0 1 -1 16.53757018205028 17.42181395549043 9.96285850820474 0 0 0
312 0 1 -1 20.54755241652118 16.515635068338824 11.43179415174555 -1 0 0
410 0 2 1 -3.1981285729937903 20.6154608308102 11.638855342510244 0 -1 0
24 0 1 -1 -0.3929935165757148 21.362236711041653 10.696008058655593 0 -1 0
115 0 3 1 1.9486355096565333 21.90050355956189 11.026553619330425 0 -1 0
29 0 1 -1 3.7160812792015268 21.115314696859656 11.723066779927436 0 -1 0
507 0 2 1 6.572335091919403 20.392240778445355 11.276630827083302 0 -1 0
902 0 1 -1 10.53531216370039 21.14726418822749 12.063949219853647 0 -1 0
411 0 2 1 16.814922080355068 19.295337503914702 12.354153813331422 0 -1 0
1075 0 3 1 21.03592739582189 18.888854251972496 11.837620505480295 0 0 0
1463 0 1 -1 19.443349830259383 19.991711254688212 12.560827092313144 0 0 0
220 0 3 1 -0.24070098284066122 1.0644004571027763 15.017257620043612 0 0 0
605 0 1 -1 2.0638812880004007 0.017394648225697584 15.856828445972255 0 0 0
226 0 2 1 4.53326508063472 0.1694672022650141 14.291327637625209 0 0 0
219 0 3 1 3.1686309330540228 2.5335026272237955 15.830577534064112 0 0 0
900 0 3 1 17.906155457359134 -0.191824367034311 12.993983248054136 0 0 0
1183 0 1 -1 18.660458898085114 1.2667908510760255 14.7715203630068 0 0 0
1181 0 1 -1 24.3035208632436 0.6520244678046199 13.61808931435952 0 0 0
228 0 3 1 1.3853846887600056 3.6666287750860036 13.282277422299064 0 0 0
607 0 1 -1 1.438762248263897 4.353017313018858 15.624175113490761 0 0 0
1087 0 1 -1 4.4159647178587775 2.932741218238618 13.841721797198261 0 0 0
1279 0 1 -1 15.827641521662152 3.0539022474706163 13.234039654614335 0 0 0
1476 0 3 1 16.351988394956738 5.270417941214604 13.421194103944249 0 1 0
1178 0 3 1 16.89881535136079 2.9325542388422496 15.112676414837125 0 0 0
904 0 1 -1 18.006533403732178 5.017247684398518 15.8479304678234 0 0 0
1468 0 3 1 19.85149738904846 4.239210034046645 13.90780982800511 0 1 0
1187 0 3 1 22.627416988160114 5.749141860823822 15.101235904486 0 0 0
313 0 3 1 1.340875426666698 7.174731124400729 16.034321127080776 0 0 0
601 0 2 1 5.495900010598714 5.984070804675676 15.360779906044893 0 0 0
211 0 3 1 8.79762049942716 8.35151983414362 13.185198019716438 0 0 0
992 0 1 -1 8.027821209005586 6.202127885762085 13.352050479740829 0 0 0
620 0 3 1 12.279785332305613 6.06967725263867 12.990236823099739 0 0 0
599 0 1 -1 10.995630553033424 8.088949961855384 14.176035745388631 0 0 0
912 0 1 -1 14.432671706268433 6.37986944667136 13.892744694719106 0 0 0
988 0 3 1 13.437564458478409 8.441978059782931 14.59790793513326 0 0 0
1372 0 2 1 17.7840370471515 8.285792625768078 14.178631549607875 0 0 0
325 0 1 -1 24.763034989042808 6.6883799759241365 14.969524512467903 -1 0 0
602 0 3 1 -1.3906841440045699 9.88546858778658 14.643054938287424 0 0 0