LAMMPS (29 Sep 2021 - Update 3)
OMP_NUM_THREADS environment is not set. Defaulting to 1 thread. (src/comm.cpp:98)
  using 1 OpenMP thread(s) per MPI task
units	metal
atom_style	full

read_data	mixed.data
Reading data file ...
  orthogonal box = (0.0000000 0.0000000 0.0000000) to (15.969932 15.719106 81.083077)
  2 by 1 by 8 MPI processor grid
  reading atoms ...
  864 atoms
Finding 1-2 1-3 1-4 neighbors ...
  special bond factors lj:    0        0        0       
  special bond factors coul:  0        0        0       
     0 = max # of 1-2 neighbors
     0 = max # of 1-3 neighbors
     0 = max # of 1-4 neighbors
     1 = max # of special neighbors
  special bonds CPU = 0.001 seconds
  read_data CPU = 0.010 seconds

pair_style	quip
pair_coeff	* * /ocean/projects/cts180021p/wuziqi/clease/mint-PD/PhaseDiagram-Clease/Liquid/GAP_potential/gap_LiKCl.xml "Potential xml_label=GAP_2021_9_27_0_1_17_37_618" 17 19 3

neighbor	0.3 bin
neigh_modify	delay 10

timestep	0.001
compute	msd all msd
thermo_style	custom step temp pe etotal press vol c_msd[4]
thermo	10
dump	1 all custom 10 xyz-mix.dump type id x y z
dump	2 all custom 10 force-mix.dump type id fx fy fz

fix     1 all nve
run     2000
Neighbor list info ...
  update every 1 steps, delay 10 steps, check yes
  max neighbors/atom: 2000, page size: 100000
  master list distance cutoff = 6.22
  ghost atom cutoff = 6.22
  binsize = 3.11, bins = 6 6 27
  1 neighbor lists, perpetual/occasional/extra = 1 0 0
  (1) pair quip, perpetual
      attributes: full, newton on
      pair build: full/bin
      stencil: full/bin/3d
      bin: standard
Per MPI rank memory allocation (min/avg/max) = 8.888 | 8.903 | 8.913 Mbytes
Step Temp PotEng TotEng Press Volume c_msd[4] 
       0            0   -6930.8241   -6930.8241   -4495.9065    20354.533            0 
      10    65.904237   -6938.1841   -6930.8324   -5379.5912    20354.533 0.0005000384 
      20    168.73131   -6949.6632    -6930.841   -6364.5261    20354.533 0.0061479459 
      30    200.57733   -6953.2127    -6930.838   -5696.6671    20354.533  0.020662009 
      40    199.55606   -6953.0935   -6930.8327   -4580.1506    20354.533   0.03833664 
      50    226.88579   -6956.1474   -6930.8379   -4419.7801    20354.533  0.051806208 
      60    238.47957   -6957.4392   -6930.8365   -4645.7272    20354.533  0.061424452 
      70    236.06355   -6957.1692   -6930.8359    -4807.043    20354.533  0.069853138 
      80    232.99362   -6956.8259   -6930.8351    -5036.908    20354.533  0.079308594 
      90    234.23747   -6956.9654   -6930.8358   -5260.6038    20354.533  0.090830495 
     100    232.00556   -6956.7159   -6930.8353   -5208.0306    20354.533   0.10432197 
     110    232.79067   -6956.8033   -6930.8352   -5031.3164    20354.533   0.11840709 
     120    238.30149    -6957.419   -6930.8361   -4942.2097    20354.533   0.13201584 
     130    238.74514   -6957.4687   -6930.8363   -4988.8033    20354.533   0.14538478 
     140    232.54984   -6956.7771   -6930.8358   -4942.4536    20354.533   0.15867927 
     150    225.40044   -6955.9792   -6930.8355   -4787.8719    20354.533   0.17110203 
     160    224.38726   -6955.8659   -6930.8352   -4620.0724    20354.533    0.1817825 
     170    231.86358   -6956.7009   -6930.8362   -4442.3359    20354.533   0.19072597 
     180    237.58036   -6957.3391   -6930.8366   -4192.2572    20354.533   0.19889867 
     190    235.69365   -6957.1279    -6930.836   -3927.7806    20354.533   0.20710191 
     200    234.44619   -6956.9885   -6930.8356   -3773.8119    20354.533   0.21513007 
     210    236.73114   -6957.2437    -6930.836   -3777.5502    20354.533   0.22305549 
     220    238.14425   -6957.4012   -6930.8359   -3899.9101    20354.533    0.2315521 
     230     238.4388   -6957.4341   -6930.8359   -4006.5782    20354.533   0.24098695 
     240    239.23886    -6957.523   -6930.8356   -3984.7528    20354.533   0.25141959 
     250     242.0724   -6957.8401   -6930.8366   -3793.3442    20354.533   0.26265129 
     260       239.05   -6957.5024    -6930.836   -3540.3897    20354.533   0.27417391 
     270    235.84511    -6957.145   -6930.8361   -3272.6541    20354.533   0.28493922 
     280    231.62838   -6956.6748   -6930.8363   -2948.2435    20354.533   0.29437431 
     290    226.51317   -6956.1028    -6930.835   -2633.8875    20354.533   0.30220439 
     300    232.88912   -6956.8151    -6930.836   -2478.1682    20354.533   0.30835486 
     310    239.65399   -6957.5709   -6930.8371   -2317.7128    20354.533   0.31386348 
     320    236.98534   -6957.2718   -6930.8357   -2020.1819    20354.533   0.31985126 
     330    235.73864   -6957.1329   -6930.8359   -1957.4113    20354.533   0.32664959 
     340    236.09186   -6957.1723   -6930.8359   -2003.6376    20354.533   0.33435107 
     350    237.19352   -6957.2955   -6930.8363   -2145.8328    20354.533   0.34289663 
     360     235.6501   -6957.1226   -6930.8355   -2186.0282    20354.533   0.35153924 
     370      237.245   -6957.3009   -6930.8359   -2246.4379    20354.533   0.35886165 
     380     239.0727   -6957.5047   -6930.8358   -2396.5837    20354.533   0.36451066 
     390    241.64207   -6957.7913   -6930.8358   -2701.0958    20354.533   0.36907283 
     400    244.68963   -6958.1321   -6930.8366    -3058.184    20354.533   0.37340775 
     410    240.84575   -6957.7024   -6930.8357   -3233.9135    20354.533   0.37836011 
     420    237.91038    -6957.375   -6930.8357   -3296.1667    20354.533    0.3837999 
     430    237.53548   -6957.3335    -6930.836     -3297.92    20354.533   0.38923076 
     440    236.65311   -6957.2351   -6930.8361   -3132.9159    20354.533   0.39408345 
     450    236.54722   -6957.2227   -6930.8355   -2838.3736    20354.533   0.39819744 
     460    240.22636   -6957.6339   -6930.8363   -2750.9298    20354.533   0.40204023 
     470    240.52465   -6957.6669    -6930.836   -2995.4918    20354.533   0.40599969 
     480    237.66852   -6957.3482   -6930.8359   -3342.9489    20354.533   0.40967234 
     490     233.8587   -6956.9231   -6930.8358   -3484.3142    20354.533   0.41268728 
     500    232.08796   -6956.7258   -6930.8361   -3205.4816    20354.533   0.41521326 
     510    230.70203   -6956.5715   -6930.8364   -2716.5526    20354.533   0.41731564 
     520    228.05602   -6956.2759   -6930.8359   -2363.5724    20354.533   0.41870774 
     530    227.97164    -6956.267   -6930.8365   -2215.6832    20354.533   0.41939371 
     540    224.82248   -6955.9152   -6930.8359   -2142.5726    20354.533   0.41965215 
     550    224.12424   -6955.8368   -6930.8354   -2230.4398    20354.533   0.41896539 
     560    230.14975   -6956.5094   -6930.8358   -2549.6413    20354.533   0.41694428 
     570    236.18881   -6957.1833   -6930.8361   -2919.3179    20354.533   0.41431605 
     580    239.11248   -6957.5092   -6930.8358   -3311.7801    20354.533   0.41218239 
     590    240.41038    -6957.654   -6930.8359   -3417.9605    20354.533   0.41128732 
     600     241.9108   -6957.8213   -6930.8358   -3319.9933    20354.533   0.41181297 
     610    244.71998   -6958.1355   -6930.8366   -3218.6172    20354.533   0.41378595 
     620     241.0794   -6957.7291   -6930.8363   -3147.9995    20354.533   0.41727735 
     630    235.50013   -6957.1059   -6930.8355   -3135.0665    20354.533   0.42154918 
     640    235.11112   -6957.0634   -6930.8364   -3257.6948    20354.533   0.42544554 
     650    231.17765   -6956.6238   -6930.8356   -3363.2824    20354.533   0.42831027 
     660    230.96587      -6956.6   -6930.8354    -3278.616    20354.533   0.42962018 
     670    236.71051   -6957.2418   -6930.8364   -3057.6575    20354.533   0.43008462 
     680    237.89077   -6957.3735   -6930.8365   -2729.6334    20354.533   0.43147958 
     690    233.77068   -6956.9134    -6930.836   -2455.8007    20354.533   0.43467882 
     700    232.73214   -6956.7972   -6930.8356   -2458.1317    20354.533   0.43896836 
     710     238.6713   -6957.4612    -6930.837     -2772.14    20354.533   0.44306523 
     720    238.40713   -6957.4307    -6930.836    -2807.083    20354.533   0.44626276 
     730     240.4682   -6957.6606    -6930.836   -2649.5036    20354.533   0.44805059 
     740    245.36669   -6958.2082   -6930.8372   -2598.8991    20354.533   0.44927166 
     750    241.62154   -6957.7892    -6930.836   -2531.0184    20354.533   0.45180545 
     760    240.83361   -6957.7015   -6930.8361   -2663.8574    20354.533   0.45609454 
     770    242.81641   -6957.9232   -6930.8366   -2904.7405    20354.533   0.46149917 
     780    240.55873   -6957.6716   -6930.8369   -3011.4883    20354.533   0.46731331 
     790    234.48344    -6956.992    -6930.835   -2984.9723    20354.533   0.47270083 
     800    241.36903   -6957.7616   -6930.8365   -3043.6074    20354.533   0.47702973 
     810    248.02611   -6958.5044   -6930.8367   -3212.7271    20354.533   0.48113406 
     820    247.07524   -6958.3983   -6930.8367   -3298.0857    20354.533   0.48604281 
     830    241.62282   -6957.7892   -6930.8358   -3451.0521    20354.533   0.49200069 
     840    241.09937   -6957.7309   -6930.8359   -3767.5583    20354.533    0.4980224 
     850    243.86884   -6958.0407   -6930.8367   -3969.0277    20354.533   0.50315689 
     860    240.67295   -6957.6839   -6930.8364   -3878.9651    20354.533   0.50749313 
     870    234.88256   -6957.0377   -6930.8362   -3705.4216    20354.533   0.51123394 
     880     230.9712   -6956.6008   -6930.8356   -3732.8653    20354.533   0.51418617 
     890    234.71187   -6957.0191   -6930.8366   -3903.3458    20354.533   0.51649556 
     900    236.69755   -6957.2408   -6930.8368   -4096.5729    20354.533   0.51925856 
     910    234.14135   -6956.9543   -6930.8355   -4214.9524    20354.533   0.52270274 
     920     239.2214   -6957.5215    -6930.836    -4371.806    20354.533    0.5260843 
     930    246.23434   -6958.3046   -6930.8368   -4388.3174    20354.533   0.52947161 
     940    244.93011   -6958.1585   -6930.8361    -4140.633    20354.533    0.5331014 
     950    244.54566   -6958.1146   -6930.8351   -3874.4856    20354.533   0.53608506 
     960     253.5944   -6959.1267   -6930.8378   -3771.8165    20354.533   0.53803089 
     970     248.3829   -6958.5442   -6930.8367   -3524.3442    20354.533   0.53986141 
     980    238.35135   -6957.4243   -6930.8358   -3260.4338    20354.533   0.54101785 
     990    236.50322   -6957.2181   -6930.8358   -3175.8957    20354.533   0.54134372 
    1000    241.19481   -6957.7423   -6930.8367   -3304.4267    20354.533   0.54225539 
    1010    241.95562   -6957.8272   -6930.8367   -3391.2596    20354.533   0.54502288 
    1020    240.16869   -6957.6269   -6930.8357   -3447.0496    20354.533   0.54930268 
    1030    245.53617   -6958.2267   -6930.8368   -3456.4918    20354.533   0.55419445 
    1040    247.77076    -6958.476   -6930.8368   -3298.5887    20354.533   0.55950896 
    1050     244.2442   -6958.0816   -6930.8358   -3136.4369    20354.533   0.56417367 
    1060    244.98518   -6958.1647   -6930.8363    -3248.508    20354.533   0.56688242 
    1070    245.91228   -6958.2687   -6930.8368   -3519.1406    20354.533   0.56812185 
    1080    243.86214    -6958.039   -6930.8358   -3692.2455    20354.533   0.56934968 
    1090    246.84293   -6958.3726   -6930.8369   -3906.5524    20354.533   0.57178329 
    1100      244.881   -6958.1533   -6930.8365   -4089.2355    20354.533   0.57651628 
    1110    240.43499   -6957.6569    -6930.836   -4077.0823    20354.533    0.5832495 
    1120    237.92872   -6957.3775   -6930.8362   -4003.4461    20354.533   0.59023617 
    1130    236.51172   -6957.2189   -6930.8357   -4042.4172    20354.533   0.59550452 
    1140    238.96444   -6957.4936   -6930.8368   -4040.0227    20354.533   0.59831056 
    1150    235.78148   -6957.1379   -6930.8361   -3879.2914    20354.533   0.59921996 
    1160    234.20341   -6956.9615   -6930.8358   -3837.8249    20354.533    0.5985221 
    1170    240.41902   -6957.6544   -6930.8353    -3935.141    20354.533   0.59722217 
    1180    255.54411   -6959.3435   -6930.8372     -4092.55    20354.533   0.59743217 
    1190    258.99242   -6959.7285   -6930.8375   -4046.2257    20354.533    0.6011544 
    1200    248.88394   -6958.5986   -6930.8352   -3714.2841    20354.533   0.60762836 
    1210    248.47025   -6958.5542    -6930.837   -3470.6197    20354.533   0.61448368 
    1220    244.95446   -6958.1613   -6930.8363   -3177.7538    20354.533   0.62050251 
    1230     241.8534   -6957.8153   -6930.8362   -3046.6572    20354.533   0.62473384 
    1240    239.93171   -6957.6017    -6930.837   -2953.8402    20354.533   0.62763822 
    1250    233.26136   -6956.8559   -6930.8352   -2777.3686    20354.533   0.63038166 
    1260    237.93988   -6957.3787   -6930.8361   -2775.1391    20354.533    0.6330371 
    1270    246.35675   -6958.3182   -6930.8368   -2888.4422    20354.533   0.63643977 
    1280    248.45813   -6958.5525   -6930.8366   -2920.0425    20354.533   0.64183599 
    1290    245.47675   -6958.2198   -6930.8365   -2685.1116    20354.533   0.64908358 
    1300    241.63357   -6957.7906    -6930.836   -2354.7632    20354.533   0.65669456 
    1310    242.43427   -6957.8804   -6930.8365   -2080.8148    20354.533   0.66291632 
    1320    245.28186   -6958.1979   -6930.8364   -1915.3295    20354.533    0.6669735 
    1330    248.60459   -6958.5691   -6930.8369   -2012.6907    20354.533   0.66938419 
    1340    247.35187   -6958.4291   -6930.8367   -2148.5782    20354.533   0.67162517 
    1350    244.12194   -6958.0683   -6930.8361   -1975.6824    20354.533   0.67460298 
    1360    246.17117   -6958.2975   -6930.8367   -1695.7314    20354.533   0.67795806 
    1370    247.81913   -6958.4815   -6930.8369   -1406.6961    20354.533   0.68155459 
    1380    246.54204   -6958.3387   -6930.8366   -1365.9532    20354.533   0.68550067 
    1390    245.37096   -6958.2083   -6930.8368   -1609.7263    20354.533   0.68946972 
    1400    243.36629   -6957.9841   -6930.8362   -2040.6718    20354.533   0.69316197 
    1410    243.94371   -6958.0489   -6930.8367    -2492.182    20354.533   0.69632692 
    1420    241.91407   -6957.8222   -6930.8364   -2641.5513    20354.533   0.69908731 
    1430    240.29252    -6957.641   -6930.8361   -2738.6597    20354.533   0.70169952 
    1440    243.00906   -6957.9446   -6930.8366   -2920.7186    20354.533   0.70454594 
    1450    244.25454   -6958.0838   -6930.8369   -3048.4377    20354.533   0.70795341 
    1460    242.09952    -6957.843   -6930.8364   -2976.5792    20354.533   0.71130224 
    1470    243.45842   -6957.9943   -6930.8362   -3081.8274    20354.533    0.7132231 
    1480    250.70065   -6958.8033   -6930.8373   -3338.8349    20354.533   0.71370178 
    1490    252.18388   -6958.9685    -6930.837   -3376.1382    20354.533    0.7144344 
    1500    251.43885   -6958.8853   -6930.8369   -3315.8008    20354.533   0.71637247 
    1510    251.24938    -6958.864   -6930.8368   -3301.7557    20354.533   0.71942223 
    1520    249.70733   -6958.6922    -6930.837   -3282.0336    20354.533   0.72323431 
    1530    244.44696   -6958.1054    -6930.837   -3302.2244    20354.533   0.72763008 
    1540    236.75683   -6957.2464   -6930.8358   -3274.9713    20354.533    0.7323608 
    1550    237.57971   -6957.3389   -6930.8365   -3428.4116    20354.533   0.73683196 
    1560    241.15015   -6957.7371   -6930.8364   -3593.4236    20354.533   0.74115804 
    1570    245.97302   -6958.2754   -6930.8368   -3733.6516    20354.533   0.74547586 
    1580    248.38573   -6958.5448    -6930.837   -3697.1233    20354.533   0.74963233 
    1590    246.86432   -6958.3746   -6930.8366   -3466.8015    20354.533   0.75351214 
    1600     247.7118   -6958.4687    -6930.836   -3388.9239    20354.533   0.75677589 
    1610    253.82537   -6959.1519   -6930.8373    -3531.034    20354.533   0.75955216 
    1620    251.92871   -6958.9401   -6930.8371   -3648.0728    20354.533   0.76294914 
    1630    244.66821   -6958.1291    -6930.836   -3657.5504    20354.533   0.76703359 
    1640    244.28177   -6958.0866   -6930.8366   -3671.0399    20354.533   0.77099433 
    1650    244.83575   -6958.1483   -6930.8365   -3788.3144    20354.533   0.77508445 
    1660    246.40424   -6958.3232   -6930.8364    -3813.853    20354.533   0.77989624 
    1670     250.2724    -6958.755   -6930.8367   -3565.9239    20354.533   0.78529205 
    1680    252.16532   -6958.9666   -6930.8372   -3320.4462    20354.533   0.79034429 
    1690    248.06278   -6958.5083   -6930.8366    -3241.467    20354.533   0.79410211 
    1700    246.18953   -6958.2989   -6930.8361   -3435.3007    20354.533   0.79613512 
    1710    251.37963   -6958.8788   -6930.8371   -3765.1983    20354.533   0.79697816 
    1720    252.49637   -6959.0036   -6930.8373   -4015.6546    20354.533   0.79809077 
    1730    246.19105   -6958.2991   -6930.8361   -4012.8085    20354.533   0.80001418 
    1740    244.72061   -6958.1349   -6930.8359   -3836.2711    20354.533   0.80174398 
    1750    250.77886   -6958.8116   -6930.8368   -3664.5304    20354.533   0.80300604 
    1760    253.23106   -6959.0851   -6930.8368   -3574.9487    20354.533   0.80474848 
    1770     250.9182   -6958.8268   -6930.8365   -3643.0638    20354.533   0.80759401 
    1780    248.19059    -6958.522   -6930.8359    -3925.933    20354.533   0.81194222 
    1790    251.50586   -6958.8923   -6930.8365   -4358.7518    20354.533   0.81788965 
    1800    254.74644   -6959.2547   -6930.8373   -4555.0094    20354.533   0.82537267 
    1810    250.83969   -6958.8178   -6930.8362   -4276.5786    20354.533   0.83331392 
    1820     251.8855   -6958.9345   -6930.8362   -4012.9598    20354.533   0.83972246 
    1830      255.594   -6959.3496   -6930.8377   -3901.3718    20354.533   0.84445553 
    1840    246.70995   -6958.3569   -6930.8361   -3626.6691    20354.533   0.84851616 
    1850    241.86654   -6957.8157   -6930.8351   -3456.7016    20354.533   0.85180041 
    1860    250.43531   -6958.7737   -6930.8372    -3514.864    20354.533    0.8548436 
    1870    251.67809   -6958.9117   -6930.8366    -3317.435    20354.533   0.85904271 
    1880    249.74232   -6958.6953   -6930.8361   -2814.4162    20354.533   0.86408884 
    1890    251.03758   -6958.8407    -6930.837   -2598.2462    20354.533   0.86903478 
    1900    247.47063   -6958.4421   -6930.8364   -2762.2368    20354.533   0.87371783 
    1910    246.41436   -6958.3238   -6930.8359   -3170.3298    20354.533   0.87809892 
    1920    252.32808   -6958.9847   -6930.8371   -3481.0709    20354.533    0.8826292 
    1930    251.70282   -6958.9148    -6930.837   -3522.0143    20354.533   0.88826081 
    1940    246.41342   -6958.3234   -6930.8356   -3409.4835    20354.533   0.89502972 
    1950     251.5574   -6958.8983   -6930.8367   -3383.3627    20354.533   0.90192896 
    1960    256.70331    -6959.473   -6930.8374   -3284.7665    20354.533   0.90797257 
    1970    251.99325   -6958.9465   -6930.8363   -3170.8424    20354.533   0.91214044 
    1980    249.36931   -6958.6536    -6930.836    -3268.664    20354.533   0.91382089 
    1990    253.19383   -6959.0808   -6930.8367   -3484.4565    20354.533   0.91429439 
    2000    255.75062   -6959.3664    -6930.837   -3645.8324    20354.533   0.91593526 
Loop time of 1470.79 on 16 procs for 2000 steps with 864 atoms

Performance: 0.117 ns/day, 204.276 hours/ns, 1.360 timesteps/s
97.5% CPU use with 16 MPI tasks x 1 OpenMP threads

MPI task timing breakdown:
Section |  min time  |  avg time  |  max time  |%varavg| %total
---------------------------------------------------------------
Pair    | 658.07     | 1186.3     | 1462.1     | 604.3 | 80.66
Bond    | 0.00013924 | 0.00036655 | 0.0011265  |   0.0 |  0.00
Neigh   | 0.017831   | 0.027821   | 0.036307   |   3.5 |  0.00
Comm    | 8.4892     | 266.32     | 769.81     |1231.2 | 18.11
Output  | 0.12955    | 9.2696     | 21.745     | 275.8 |  0.63
Modify  | 0.0084779  | 0.010225   | 0.012372   |   1.0 |  0.00
Other   |            | 8.833      |            |       |  0.60

Nlocal:        54.0000 ave          71 max          39 min
Histogram: 3 2 1 1 0 4 1 0 3 1
Nghost:        497.125 ave         591 max         387 min
Histogram: 1 2 1 1 1 3 2 1 2 2
Neighs:         0.00000 ave           0 max           0 min
Histogram: 16 0 0 0 0 0 0 0 0 0
FullNghs:      2382.00 ave        3956 max        1259 min
Histogram: 3 2 2 0 2 3 1 1 1 1

Total # of neighbors = 38112
Ave neighs/atom = 44.111111
Ave special neighs/atom = 0.0000000
Neighbor list builds = 199
Dangerous builds = 198
unfix   1

velocity    all create 825.0 1312343 dist gaussian
fix     2 all npt temp 825.0 825.0 $(100.0*dt) aniso 0.0 1.01325 $(1000.0*dt)
fix     2 all npt temp 825.0 825.0 0.10000000000000000555 aniso 0.0 1.01325 $(1000.0*dt)
fix     2 all npt temp 825.0 825.0 0.10000000000000000555 aniso 0.0 1.01325 1
run     3000
Per MPI rank memory allocation (min/avg/max) = 8.897 | 8.905 | 8.914 Mbytes
Step Temp PotEng TotEng Press Volume c_msd[4] 
    2000          825   -6959.3664   -6867.3364   -313.59484    20354.533   0.91593526 
    2010    729.04877   -6948.6327   -6867.3062    1680.5944    20354.573   0.92832594 
    2020    583.17842   -6932.1685   -6867.1141      4529.75    20356.835    0.9505435 
    2030    536.19348   -6926.4514   -6866.6383    5230.6042    20364.568   0.96920401 
    2040    522.17496   -6924.0635   -6865.8141    4859.1961     20378.82   0.98298962 
    2050    504.88402    -6921.103   -6864.7824    4289.6459    20399.233   0.99554347 
    2060    498.48389   -6919.3797   -6863.7731    3598.2908    20425.124     1.008537 
    2070    530.28969   -6922.0097   -6862.8551     2897.267    20455.645     1.022505 
    2080    544.84502   -6922.7266   -6861.9483     2806.395    20489.991    1.0394189 
    2090    524.39485    -6919.515   -6861.0179    2906.1697    20528.003    1.0585682 
    2100    538.49561   -6920.0595   -6859.9895    2002.4692     20569.65    1.0756881 
    2110    557.40621   -6920.9619   -6858.7824     1039.398    20613.885    1.0905049 
    2120    551.84603   -6919.0447   -6857.4854    302.52518    20659.441    1.1046266 
    2130    553.21708   -6917.8555   -6856.1433   -565.92325    20705.262    1.1187009 
    2140    550.75671   -6916.1905   -6854.7527   -1166.1288    20750.207    1.1339533 
    2150    545.13305   -6914.1496   -6853.3392   -1417.4181    20793.433    1.1502269 
    2160    541.76162   -6912.3337   -6851.8994   -1744.3896    20834.493    1.1664947 
    2170    552.54804   -6912.0568   -6850.4192   -1750.4449    20872.988     1.182626 
    2180    565.15449   -6911.9385   -6848.8947   -1369.0969    20908.903    1.2000259 
    2190    587.19457   -6912.8397   -6847.3373   -1335.4499    20942.622    1.2194698 
    2200     599.4926   -6912.6145   -6845.7402   -1410.4688    20974.201    1.2419585 
    2210    591.88783   -6910.1845   -6844.1585   -1643.4968    21003.525    1.2661865 
    2220    593.06028   -6908.7358   -6842.5791   -2375.8242    21030.241    1.2880329 
    2230    610.38737   -6909.0454   -6840.9558   -3126.8085    21053.427    1.3058103 
    2240     625.1874   -6909.0349   -6839.2943   -3495.8382    21072.143    1.3201919 
    2250    626.85699   -6907.5503   -6837.6234   -3104.2661    21085.987    1.3315047 
    2260    620.61576   -6905.1971   -6835.9665   -2153.9162    21095.526    1.3409179 
    2270    632.21024   -6904.8228   -6834.2988   -1356.8647    21102.019    1.3493453 
    2280    642.06594   -6904.2313   -6832.6078   -977.79551    21106.543    1.3586478 
    2290    646.52146   -6903.0446   -6830.9241   -1036.5605    21109.629    1.3694245 
    2300    650.97681   -6901.8647   -6829.2472   -1347.0539    21111.248     1.380319 
    2310    648.00665   -6899.8633   -6827.5771   -1578.8356    21111.044    1.3897935 
    2320    656.48409   -6899.1444   -6825.9126   -1481.8482    21108.774    1.3967944 
    2330    686.30216   -6900.7669   -6824.2089   -1412.9773    21104.538    1.4031035 
    2340    689.08647    -6899.348   -6822.4794   -771.31455    21098.563    1.4130311 
    2350    673.82039   -6895.9536   -6820.7879   -21.754964    21091.694    1.4270718 
    2360    679.09706   -6894.8587   -6819.1044   -13.571805    21084.845     1.442308 
    2370    693.06145   -6894.7112   -6817.3991   -471.73726    21078.069    1.4570645 
    2380      705.705   -6894.4005    -6815.678   -639.24591    21070.844     1.472227 
    2390    722.93343   -6894.6016   -6813.9573   -310.16911    21062.944    1.4890166 
    2400    725.48597   -6893.1814   -6812.2524     752.5734    21054.883    1.5070942 
    2410     727.4949   -6891.7422   -6810.5891    1523.3992     21047.96    1.5238312 
    2420    728.60795   -6890.2209   -6808.9436    1860.7039     21043.18    1.5386054 
    2430    746.23774    -6890.549    -6807.305    1654.8174    21040.925    1.5522566 
    2440     771.9597   -6891.7577   -6805.6445    1317.5774    21040.917     1.567122 
    2450    751.78244   -6887.8998   -6804.0373    1391.4877    21042.727    1.5855527 
    2460     758.8322   -6887.1306   -6802.4817     1377.396    21046.326    1.6044351 
    2470    772.95684   -6887.1452   -6800.9207    1752.0758    21051.735    1.6213606 
    2480    796.84623   -6888.2657   -6799.3763    2340.0332    21059.407    1.6358984 
    2490    821.96042   -6889.5582   -6797.8673    2613.5776    21069.995    1.6501515 
    2500    827.28344   -6888.7329   -6796.4482    2778.1073    21083.857    1.6657048 
    2510    822.01304   -6886.8382   -6795.1414    2704.6475     21101.14     1.681725 
    2520    807.61122   -6884.0172    -6793.927    2736.0632    21121.725    1.6972625 
    2530    803.58063   -6882.4053   -6792.7647     2090.765    21145.474    1.7116394 
    2540     811.0004   -6882.0711   -6791.6028    884.01752    21171.497    1.7259958 
    2550    815.25761   -6881.3789   -6790.4357   -40.590443    21198.217    1.7440477 
    2560    812.11584   -6879.8908    -6789.298    331.96778    21224.503    1.7681519 
    2570    800.32524   -6877.4799   -6788.2024    1066.9701    21250.746    1.7962255 
    2580    821.18817   -6878.7274   -6787.1226    1098.0686    21277.822    1.8228024 
    2590    830.65961   -6878.7041   -6786.0428     700.2253    21305.784    1.8470561 
    2600    822.97306   -6876.8156   -6785.0118    163.38347    21334.126    1.8697318 
    2610    819.12017   -6875.3861    -6784.012   -496.82968    21362.092     1.889352 
    2620    826.35867   -6875.2123   -6783.0308   -794.57876    21388.843    1.9071505 
    2630    828.09451    -6874.449   -6782.0738   -805.83716     21413.97    1.9263358 
    2640    839.14072    -6874.764   -6781.1566   -544.88925     21437.49    1.9473965 
    2650    839.93868   -6873.9826   -6780.2862   -115.00439    21459.784    1.9682781 
    2660    833.14732   -6872.4164   -6779.4776    94.103129    21481.408    1.9878738 
    2670    817.48072   -6869.9071   -6778.7159    273.77097     21502.72    2.0062451 
    2680     807.9361   -6868.1001   -6777.9736    307.50309    21523.947    2.0244402 
    2690    820.95208   -6868.7923   -6777.2139    27.506093    21545.135    2.0443548 
    2700    853.55342    -6871.656   -6776.4408   -828.09166    21565.838    2.0671527 
    2710    845.82804   -6870.0608   -6775.7074   -1035.3993    21585.042    2.0938443 
    2720    830.60423   -6867.7013   -6775.0462   -1071.7391    21602.407    2.1219445 
    2730    860.80192   -6870.4355   -6774.4117   -1534.2006    21617.833    2.1507228 
    2740    877.79854   -6871.7444   -6773.8247   -1525.7178    21630.845    2.1822331 
    2750    858.40475   -6869.1006   -6773.3443   -1067.3104    21641.496    2.2142364 
    2760    853.94855   -6868.2234   -6772.9641   -948.57053    21650.367    2.2430442 
    2770    856.78871   -6868.2404   -6772.6643    -731.7134     21657.75    2.2678438 
    2780    854.02995   -6867.7104   -6772.4421   -650.82654    21663.922    2.2874354 
    2790    861.31335   -6868.3705   -6772.2897   -836.42344    21669.019    2.3025151 
    2800    859.63822   -6868.1113   -6772.2174   -752.23998    21672.889    2.3187021 
    2810    856.57955   -6867.7725   -6772.2198   -418.19212    21675.656    2.3372078 
    2820    853.68368   -6867.5244   -6772.2947   -94.103633    21677.777    2.3549204 
    2830    847.99498   -6867.0246   -6772.4294   -46.298117    21679.707    2.3718881 
    2840    859.88768   -6868.5487   -6772.6269    -210.6614    21681.515    2.3893992 
    2850    864.63665    -6869.357   -6772.9054    132.71231    21683.082     2.409767 
    2860    850.88558   -6868.1889   -6773.2714    740.44906    21684.827    2.4345565 
    2870    838.42502   -6867.2195   -6773.6919    1192.5644    21687.573    2.4612548 
    2880     843.0999   -6868.2016   -6774.1526    1015.2039    21691.891    2.4869562 
    2890    832.79026   -6867.5411   -6774.6421    636.81498    21697.578    2.5136233 
    2900    838.93354    -6868.739   -6775.1547   -35.844577    21704.049    2.5420263 
    2910    835.80796   -6868.9265   -6775.6908   -356.26566    21710.419    2.5702643 
    2920    828.16184   -6868.6199   -6776.2372   -288.83017    21716.244    2.5940917 
    2930    839.21869   -6870.4094   -6776.7933   -450.37767     21721.55    2.6101976 
    2940    843.71559   -6871.4979   -6777.3801   -612.06619     21726.15    2.6222951 
    2950    828.86978   -6870.4573   -6777.9957   -339.44039    21729.883    2.6364869 
    2960    809.85007    -6868.943    -6778.603     46.11785    21733.093    2.6547563 
    2970    807.99096   -6869.3009   -6779.1683     354.0823    21736.334    2.6743365 
    2980     807.9072   -6869.8177   -6779.6944    525.90726    21740.041    2.6949348 
    2990    797.50289   -6869.1345   -6780.1719    334.27844    21744.407    2.7161403 
    3000    789.63374   -6868.6672   -6780.5824    200.73228    21749.217    2.7355895 
    3010    800.54056   -6870.2203   -6780.9188   -111.60225    21754.253    2.7519444 
    3020    824.32114   -6873.1718   -6781.2176   -729.92458    21759.028    2.7671833 
    3030    822.85859   -6873.2962   -6781.5051   -937.90158    21762.772    2.7852905 
    3040    812.89624   -6872.4707   -6781.7909   -1002.8877    21765.163     2.806634 
    3050    786.85193   -6869.8167   -6782.0422   -969.64732    21766.131    2.8284618 
    3060    775.68944   -6868.7384   -6782.2091   -1226.0029    21765.669    2.8471876 
    3070    797.32152   -6871.2339   -6782.2915   -1463.2622    21763.459    2.8624198 
    3080    789.61455   -6870.3845   -6782.3018   -1065.5255    21759.265    2.8757903 
    3090    767.42286   -6867.8416   -6782.2344   -674.72457    21753.566    2.8881598 
    3100    774.58742   -6868.4635   -6782.0571   -556.99396    21746.918    2.9007743 
    3110    815.86901   -6872.7894    -6781.778    -775.7787    21739.486     2.916719 
    3120     827.1485   -6873.7221   -6781.4525   -900.87021    21731.016    2.9392928 
    3130    805.67447   -6870.9951   -6781.1209   -791.76422    21721.348    2.9661292 
    3140    790.07062   -6868.8893   -6780.7557   -724.83493    21710.594    2.9906735 
    3150    798.30034   -6869.3843   -6780.3327    -542.4336    21698.876    3.0106268 
    3160    793.62823   -6868.3675    -6779.837    -13.65314    21686.521     3.028493 
    3170    811.71322   -6869.8419    -6779.294   -123.86668    21674.108    3.0460863 
    3180    811.43527   -6869.2203   -6778.7035    -23.31577    21661.632    3.0640022 
    3190    811.00254   -6868.5607   -6778.0921    1.0420884    21649.187    3.0829272 
    3200    819.20275   -6868.8459   -6777.4626   -388.86711     21636.74     3.105563 
    3210    822.10562     -6868.53   -6776.8229   -667.73624    21623.811    3.1331614 
    3220     823.9342   -6868.0996   -6776.1885   -996.24658    21609.984    3.1629979 
    3230     833.8309   -6868.5806   -6775.5655   -1317.1475    21594.819     3.192544 
    3240    826.00537   -6867.1003   -6774.9581   -769.68837    21577.973    3.2231668 
    3250    816.79585   -6865.4786   -6774.3637    118.36031    21560.141    3.2519137 
    3260    825.38998   -6865.8193   -6773.7458    605.86448    21542.524    3.2772165 
    3270    852.35362   -6868.2071   -6773.1258    652.35544    21525.784    3.3006837 
    3280     864.4874   -6868.9917   -6772.5569    881.75821    21510.066    3.3198704 
    3290    870.61931   -6869.1999    -6772.081    1292.6006    21495.693    3.3341702 
    3300    864.42769   -6868.1392   -6771.7109    1935.6239    21483.236      3.34633 
    3310    844.18385   -6865.6035   -6771.4335    2470.1468    21473.511    3.3561701 
    3320    828.62039   -6863.6422   -6771.2084    2634.4006    21467.238    3.3632597 
    3330    845.82396   -6865.3592   -6771.0062    2298.8562    21464.624    3.3686921 
    3340    865.28297   -6867.3787   -6770.8551    1980.9272    21465.234    3.3751055 
    3350    859.49848   -6866.6701   -6770.7917    2190.3389    21468.703    3.3826406 
    3360    837.60483   -6864.2459   -6770.8098    2306.0158     21475.24    3.3916888 
    3370    823.17794    -6862.689   -6770.8622    2143.6221    21484.991     3.402075 
    3380    821.80147   -6862.5988   -6770.9256    1925.8538    21497.736    3.4116304 
    3390    809.42093   -6861.2638   -6770.9717    1707.9811    21513.209    3.4223517 
    3400    822.19196   -6862.7122   -6770.9954    881.60938    21531.019    3.4364806 
    3410    823.93612   -6862.9042   -6770.9929    128.94601    21550.106    3.4562935 
    3420    824.37102   -6862.9412   -6770.9814   -328.83101    21569.407    3.4792263 
    3430    824.94269   -6862.9932   -6770.9696   -173.31132    21588.332    3.5022894 
    3440    826.95426   -6863.2074   -6770.9594   -72.324635    21607.013    3.5226339 
    3450    840.83482   -6864.7578   -6770.9614    -450.0388    21625.546    3.5394151 
    3460    853.68838   -6866.2264   -6770.9962   -1018.7662    21643.431    3.5561975 
    3470    841.08329   -6864.9087   -6771.0846   -1203.2202    21659.928     3.577104 
    3480    817.24403   -6862.3635   -6771.1987   -1237.0072    21674.725    3.6009127 
    3490    819.87297   -6862.7605   -6771.3024   -1394.3174    21687.727    3.6219221 
    3500    833.63169   -6864.3926   -6771.3998   -1136.6667    21698.804    3.6364892 
    3510    839.51237   -6865.1647   -6771.5158   -872.85562    21708.263    3.6449856 
    3520    855.12781   -6867.0758    -6771.685   -1280.6487    21716.387    3.6506409 
    3530    830.35361   -6864.5336   -6771.9064   -1544.8742    21722.708    3.6571499 
    3540    802.11985   -6861.6144   -6772.1367   -1415.6335    21726.861    3.6645527 
    3550    793.00928   -6860.7811   -6772.3197    -1285.062    21728.983    3.6718647 
    3560    795.05018   -6861.1382   -6772.4491    -1302.382    21729.238    3.6800514 
    3570    778.05623   -6859.3022   -6772.5089   -968.75854    21727.686    3.6894685 
    3580    764.05487   -6857.6991   -6772.4676   -512.83056    21724.748    3.6994093 
    3590    791.29916   -6860.5801   -6772.3095   -294.87628    21721.047    3.7088775 
    3600      808.364   -6862.2301   -6772.0559   -245.38813    21716.912    3.7156516 
    3610    817.98286   -6862.9978   -6771.7506    -248.1991    21712.434    3.7171836 
    3620    843.05639   -6865.4718   -6771.4276   -450.42875    21707.572    3.7174551 
    3630    842.01298   -6865.0502   -6771.1224   -245.75613    21702.148    3.7249034 
    3640    853.35465   -6866.0692   -6770.8762   -305.94948    21696.324    3.7403852 
    3650    842.63554   -6864.6841   -6770.6868   -179.11699    21690.106    3.7605261 
    3660    838.43309   -6864.0751   -6770.5466   -316.29923    21683.591    3.7776698 
    3670    836.74974   -6863.7687    -6770.428    -471.8413    21676.628    3.7923931 
    3680    840.27968   -6864.0675    -6770.333    -456.9265    21669.027    3.8136179 
    3690    845.87987   -6864.6287   -6770.2695    -210.3871    21660.823     3.846812 
    3700    818.49858   -6861.5298    -6770.225    586.00244     21652.44    3.8879841 
    3710    824.76959   -6862.1819   -6770.1776    554.73363    21644.795     3.926512 
    3720    834.08584   -6863.1713   -6770.1277    37.663312    21637.897    3.9578511 
    3730    820.27772   -6861.5978   -6770.0945   -146.40449    21631.125    3.9789077 
    3740    825.49899   -6862.1569   -6770.0713   -283.56513    21624.172    3.9894957 
    3750    822.68249   -6861.8136   -6770.0421   -307.04783    21616.841    3.9970495 
    3760    830.68331   -6862.6827   -6770.0187   -389.87122    21609.072    4.0114629 
    3770    836.27159   -6863.2941   -6770.0067     -342.814    21600.774    4.0367219 
    3780    838.88581    -6863.593    -6770.014    4.7554946    21592.037    4.0678544 
    3790    857.53642   -6865.7183   -6770.0588     430.5706    21583.336    4.1014657 
    3800    868.10025   -6867.0103   -6770.1724    913.67263    21575.281    4.1370946 
    3810    872.42539   -6867.7183    -6770.398     1224.574    21568.507    4.1727034 
    3820    848.23708    -6865.344   -6770.7219    1677.5317    21563.492    4.2092158 
    3830     832.4621   -6863.9653   -6771.1029    2101.3696    21560.848    4.2457683 
    3840    820.51198   -6863.0237   -6771.4944    2005.9526    21561.118    4.2808098 
    3850    813.67816   -6862.6512   -6771.8842     1366.289    21564.139    4.3125085 
    3860    798.73724   -6861.3304   -6772.2301    1058.7887    21569.173    4.3420528 
    3870    795.01278   -6861.2157   -6772.5308    700.23055    21575.713    4.3716432 
    3880    770.97109   -6858.7508   -6772.7478    395.19678    21583.273    4.4015431 
    3890    790.03184   -6861.0011   -6772.8719   -263.31635    21591.358    4.4293976 
    3900    804.81093   -6862.6927   -6772.9148   -446.93893    21599.179     4.460397 
    3910    806.06354   -6862.8296    -6772.912   -833.47753    21606.353    4.4987813 
    3920    802.38445   -6862.3729   -6772.8657   -1256.9739    21612.364    4.5400002 
    3930    793.83825   -6861.3172   -6772.7634   -1086.8926    21616.693    4.5776341 
    3940    807.37964   -6862.6639   -6772.5995   -1051.6682     21619.46    4.6098958 
    3950    799.14258   -6861.5308   -6772.3853   -802.90703    21620.767    4.6357046 
    3960    771.51597   -6858.1781   -6772.1143   -279.32741    21620.989    4.6489399 
    3970    785.40018   -6859.3641   -6771.7516   -406.18927    21620.719    4.6451414 
    3980    818.34597   -6862.5752   -6771.2874   -639.32853    21619.872    4.6330771 
    3990     835.5856   -6864.0034   -6770.7926   -504.84062    21618.172    4.6257653 
    4000    820.72746   -6861.8617   -6770.3083   -292.30907    21615.767     4.630124 
    4010    835.12982   -6863.0022   -6769.8422   -656.94871     21612.85    4.6457277 
    4020    823.59102   -6861.2543   -6769.3815   -647.34723    21609.054    4.6700398 
    4030    815.48763   -6859.9066   -6768.9378   -406.63702    21604.346    4.6967288 
    4040    816.47408   -6859.5599    -6768.481    38.980819    21599.066    4.7216126 
    4050    813.97974   -6858.8134   -6768.0127    828.81592    21593.874    4.7423761 
    4060     812.0735   -6858.1147   -6767.5267    1320.9236    21589.797     4.759741 
    4070    829.44408   -6859.5504   -6767.0246    1301.7191    21587.519    4.7766675 
    4080    848.22106   -6861.1555   -6766.5352    1036.7404    21587.037    4.7954766 
    4090    843.33254   -6860.1628   -6766.0877    1130.4153    21588.082    4.8127159 
    4100    852.09503   -6860.7475    -6765.695    1301.7778    21590.748    4.8226151 
    4110     870.5524   -6862.4803   -6765.3688    1409.0242    21595.276    4.8283738 
    4120    867.86501   -6861.9551   -6765.1434    1729.8589    21601.877    4.8356886 
    4130    847.89246   -6859.6035   -6765.0198    1848.7882    21610.955    4.8472675 
    4140    842.66966   -6858.9534   -6764.9523    1893.2837    21622.738    4.8637203 
    4150    854.46626    -6860.253    -6764.936    1724.2459    21637.267    4.8858412 
    4160    840.60682   -6858.7391   -6764.9681    1154.4649    21654.306    4.9135456 
    4170    830.25413   -6857.6426   -6765.0265    177.53557    21673.057    4.9405252 
    4180    845.82318   -6859.4442   -6765.0913   -1095.0428    21692.131    4.9635236 
    4190    857.65686    -6860.868    -6765.195    -1433.055    21709.877    4.9856367 
    4200    857.37283   -6861.0277   -6765.3865    -935.4828    21725.764    5.0111603 
    4210    829.57671   -6858.1877   -6765.6472   -223.23883    21740.443    5.0417771 
    4220    818.41837   -6857.2247   -6765.9289   -376.43128    21754.763    5.0743948 
    4230    832.85131   -6859.1249   -6766.2191   -1158.3158    21768.521    5.1033806 
    4240    823.82108   -6858.4193   -6766.5208   -1340.5591    21780.758     5.126714 
    4250    822.54874   -6858.5841   -6766.8275   -1322.8733    21791.125     5.145607 
    4260     833.8345   -6860.1497   -6767.1342   -1633.2133    21799.579    5.1633969 
    4270    846.79642   -6861.9388   -6767.4774   -2208.4968    21805.679    5.1852565 
    4280    830.11746   -6860.4674   -6767.8665   -2628.5339    21808.628    5.2128162 
    4290    806.04681   -6858.1725   -6768.2567   -2795.1087    21807.819    5.2440341 
    4300    803.13613   -6858.1991    -6768.608   -2978.4348    21802.946    5.2775878 
    4310    805.43476   -6858.7566   -6768.9091   -2799.4934    21793.814    5.3077693 
    4320    804.33755   -6858.8936   -6769.1685   -2228.3731    21780.677    5.3301245 
    4330    802.14252   -6858.8546   -6769.3744   -1649.2389    21764.314    5.3456161 
    4340     817.8856   -6860.7739   -6769.5375   -1678.2424    21745.498    5.3549812 
    4350    834.83501    -6862.818   -6769.6909   -1766.1157    21724.274    5.3586244 
    4360    831.70123   -6862.6461   -6769.8686   -1231.4574    21700.629    5.3577664 
    4370    825.72779   -6862.1726   -6770.0614    -528.5615    21675.297    5.3535514 
    4380    826.58232   -6862.4611   -6770.2546    4.8094151    21649.265     5.347179 
    4390    847.91339   -6865.0532   -6770.4672    326.35239    21623.292    5.3421876 
    4400    862.84002   -6866.9975   -6770.7464    631.04794    21597.879    5.3443445 
    4410    846.78707   -6865.5601   -6771.0997    1054.6035    21573.501    5.3536428 
    4420    837.80637   -6864.9611   -6771.5025    1197.6584     21550.69     5.363222 
    4430    830.50859   -6864.5746   -6771.9301    1521.7297    21529.719    5.3747389 
    4440       815.78   -6863.3526   -6772.3511    1887.8288    21511.016    5.3909854 
    4450    814.07834   -6863.5798   -6772.7681    1584.1746    21494.973     5.407239 
    4460    797.48577   -6862.1091   -6773.1484    1349.9339    21481.282    5.4211423 
    4470    804.31705   -6863.2017    -6773.479    1171.8417    21469.567    5.4352008 
    4480    811.59594   -6864.3018   -6773.7671    1151.0075    21459.572    5.4507235 
    4490    801.98588   -6863.4773   -6774.0146    1450.7461    21451.274    5.4662258 
    4500     804.1852    -6863.926    -6774.218    1849.8116    21445.063    5.4801259 
    4510    824.05731   -6866.3159   -6774.3911    1710.2234    21441.394    5.4918378 
    4520    832.14443   -6867.3971   -6774.5701    1669.3733    21440.156    5.5015033 
    4530    823.34907   -6866.6108    -6774.765    1911.0942    21441.306    5.5097848 
    4540    826.45236   -6867.1655   -6774.9735    1911.6688    21445.102    5.5176601 
    4550    824.28639   -6867.1386   -6775.1882     2018.164    21451.592    5.5286722 
    4560    822.90349   -6867.2134   -6775.4173     1680.242    21460.814     5.542693 
    4570    816.74656   -6866.7542   -6775.6449     1196.785    21472.365    5.5592404 
    4580    804.24801   -6865.5693   -6775.8542    706.82979    21485.564    5.5784055 
    4590    798.58195   -6865.1101   -6776.0271    379.60684    21499.741    5.6011111 
    4600    791.22839   -6864.4085   -6776.1458    379.54037    21514.447    5.6221315 
    4610    794.87321   -6864.8705   -6776.2012     577.5571     21529.68     5.637033 
    4620    811.30553   -6866.7042   -6776.2018    734.78381    21545.676    5.6521891 
    4630    817.05807   -6867.3048   -6776.1607    1114.4481     21562.71    5.6775842 
    4640    835.39621   -6869.2985   -6776.1088    1163.0375    21581.228     5.712304 
    4650    825.50087   -6868.1528   -6776.0669     1569.847    21601.411    5.7497758 
    4660     800.4623   -6865.3187    -6776.026    1994.1561    21623.796    5.7872489 
    4670    797.78779   -6864.9369   -6775.9424    1695.6414    21648.865    5.8257614 
    4680    787.83423   -6863.6516   -6775.7675    1115.9316    21676.263    5.8666261 
    4690    797.60396    -6864.458    -6775.484    256.74206    21705.148    5.9046256 
    4700    816.16542   -6866.1174    -6775.073   -581.08658    21734.333    5.9375053 
    4710    847.33456    -6869.087   -6774.5656   -1428.9844    21762.583    5.9655176 
    4720    876.01652    -6871.746    -6774.025   -2154.4522    21788.684    5.9888601 
    4730     886.1014   -6872.3871   -6773.5412   -2398.8848    21811.635    6.0120979 
    4740    873.28133   -6870.5793   -6773.1635   -2258.2439    21831.055    6.0356357 
    4750    866.04018   -6869.4977   -6772.8896   -1691.8708    21847.168    6.0555438 
    4760    861.98448   -6868.8586   -6772.7029   -1143.3081    21860.744    6.0751421 
    4770    847.10509   -6867.0879   -6772.5921   -833.05862    21872.556    6.0932767 
    4780    831.22584   -6865.2534   -6772.5289   -291.04848    21883.149    6.1024103 
    4790     811.9421   -6863.0434   -6772.4701   -144.21958    21893.222    6.1004251 
    4800    806.85761   -6862.3816   -6772.3754   -555.01165    21902.989    6.0950307 
    4810    807.38274   -6862.2862   -6772.2215    -1314.816    21911.839    6.0995164 
    4820    805.87838   -6861.8988   -6772.0019   -1818.4517    21918.765    6.1167286 
    4830    821.71397   -6863.3806   -6771.7172   -2342.5523    21922.986    6.1399483 
    4840    833.35139   -6864.3485   -6771.3869   -2356.7399    21923.837    6.1651513 
    4850    812.35102   -6861.6457   -6771.0268   -1556.5837    21921.346    6.1887262 
    4860    804.82444    -6860.387   -6770.6076   -665.44527    21916.594     6.203607 
    4870    826.18364   -6862.2565   -6770.0944   -239.36105    21910.839    6.2135164 
    4880    833.33929    -6862.474   -6769.5138    6.2473204    21904.745    6.2294991 
    4890    834.10643   -6861.9575   -6768.9117    367.53297    21898.719    6.2562349 
    4900    842.08138   -6862.2328   -6768.2974    787.71721    21893.295    6.2934828 
    4910    859.46327   -6863.5778   -6767.7033      791.366    21888.989    6.3359447 
    4920    859.02541   -6862.9943   -6767.1687    771.61505    21885.865    6.3764938 
    4930    853.18942   -6861.8935   -6766.7189    716.11447     21883.88    6.4132232 
    4940    838.63496   -6859.8877   -6766.3367     843.5868    21882.977    6.4450132 
    4950    832.12694   -6858.8156   -6765.9906    975.50928    21883.295    6.4713672 
    4960    848.45888   -6860.3175   -6765.6706    1046.1562    21885.031    6.4930118 
    4970    855.88518   -6860.8656   -6765.3903    1246.3793    21888.319    6.5114572 
    4980    858.30854   -6860.9286    -6765.183    1448.8047    21893.423     6.530268 
    4990    849.81288   -6859.8442   -6765.0463    1515.6577    21900.618    6.5508853 
    5000    854.64283   -6860.3104   -6764.9737    1043.0289    21909.941    6.5729516 
Loop time of 2222.59 on 16 procs for 3000 steps with 864 atoms

Performance: 0.117 ns/day, 205.795 hours/ns, 1.350 timesteps/s
97.7% CPU use with 16 MPI tasks x 1 OpenMP threads

MPI task timing breakdown:
Section |  min time  |  avg time  |  max time  |%varavg| %total
---------------------------------------------------------------
Pair    | 1443.2     | 1892.5     | 2195.7     | 477.2 | 85.15
Bond    | 0.00022888 | 0.00054282 | 0.0018425  |   0.0 |  0.00
Neigh   | 0.029517   | 0.04158    | 0.055388   |   3.8 |  0.00
Comm    | 22.556     | 253.19     | 661.28     |1230.4 | 11.39
Output  | 0.29089    | 0.29426    | 0.34166    |   2.3 |  0.01
Modify  | 1.0072     | 76.498     | 143.33     | 684.6 |  3.44
Other   |            | 0.01415    |            |       |  0.00

Nlocal:        54.0000 ave          70 max          41 min
Histogram: 2 1 2 2 2 3 2 0 0 2
Nghost:        464.375 ave         549 max         400 min
Histogram: 1 4 1 2 1 1 3 2 0 1
Neighs:         0.00000 ave           0 max           0 min
Histogram: 16 0 0 0 0 0 0 0 0 0
FullNghs:      2167.88 ave        3314 max        1263 min
Histogram: 3 1 3 0 2 1 3 1 0 2

Total # of neighbors = 34686
Ave neighs/atom = 40.145833
Ave special neighs/atom = 0.0000000
Neighbor list builds = 300
Dangerous builds = 300
unfix   2

fix     3 all npt temp 825.0 825.0 $(100.0*dt) aniso 1.01325 1.01325 $(1000.0*dt)
fix     3 all npt temp 825.0 825.0 0.10000000000000000555 aniso 1.01325 1.01325 $(1000.0*dt)
fix     3 all npt temp 825.0 825.0 0.10000000000000000555 aniso 1.01325 1.01325 1
run     20000
Per MPI rank memory allocation (min/avg/max) = 8.898 | 8.906 | 8.914 Mbytes
Step Temp PotEng TotEng Press Volume c_msd[4] 
    5000    854.64283   -6860.3104   -6764.9737    1043.0289    21909.941    6.5729516 
    5010    853.81082   -6860.2589    -6765.015    826.36111    21910.601      6.59119 
    5020    834.66967    -6858.216   -6765.1074    1041.3606    21912.534    6.6071968 
    5030    859.21039   -6861.0965   -6765.2503    956.05582    21915.967    6.6212377 
    5040    863.72987   -6861.8168   -6765.4664    799.50846     21920.82    6.6424633 
    5050    860.73728   -6861.8002   -6765.7837    206.70884      21926.8    6.6759814 
    5060    863.77829   -6862.5566   -6766.2008   -442.81044    21933.099    6.7170583 
    5070    848.71171   -6861.3928   -6766.7177   -331.07917    21938.863    6.7565456 
    5080    831.46668   -6860.0444    -6767.293    117.57563    21944.207    6.7858364 
    5090    832.64867    -6860.787   -6767.9038    147.42063    21949.684    6.8043998 
    5100    814.77541   -6859.4077   -6768.5182    340.91594     21955.45    6.8232222 
    5110    810.34869   -6859.4905   -6769.0948   -13.735701    21961.675    6.8451523 
    5120    828.99572   -6862.1145   -6769.6388   -1154.0677    21967.787    6.8641718 
    5130    822.20173   -6861.8715   -6770.1537   -1742.3393     21972.31    6.8785214 
    5140    803.18102   -6860.2174   -6770.6213   -1749.5902    21974.369    6.8899272 
    5150    786.59581   -6858.7417   -6770.9957   -1583.9744    21973.893    6.8988071 
    5160    789.42536   -6859.3265   -6771.2649   -1555.7122    21971.073    6.9077693 
    5170    783.59788   -6858.8447   -6771.4332   -1595.9384    21965.935    6.9203993 
    5180    772.51703   -6857.6773   -6771.5018   -1334.0539    21958.462    6.9336494 
    5190    777.48211   -6858.1926   -6771.4633   -1345.8139    21948.947    6.9406479 
    5200    798.32215   -6860.3966   -6771.3425   -1388.2525    21937.393    6.9382229 
    5210    805.97146   -6861.0795   -6771.1722   -662.21101    21923.862    6.9269537 
    5220    816.51369   -6862.0612   -6770.9779    103.02834    21909.306    6.9095384 
    5230    828.89299   -6863.2517   -6770.7874    520.13353    21894.788    6.8937734 
    5240    835.24928   -6863.7972   -6770.6239     622.4322     21880.94    6.8850219 
    5250    845.39396   -6864.8158   -6770.5108    364.21233    21867.882    6.8823606 
    5260    841.01452    -6864.268   -6770.4516    522.37231    21855.345    6.8841377 
    5270    827.69386   -6862.7636   -6770.4331    1063.1876    21843.558    6.8869445 
    5280    815.02903   -6861.3328   -6770.4151    1284.9257    21833.213    6.8874021 
    5290    801.12031   -6859.7455   -6770.3793    1027.6183    21824.629    6.8873216 
    5300    795.30982   -6859.0198   -6770.3018    650.66736    21817.507    6.8938953 
    5310    826.19329   -6862.3562   -6770.1931    56.735802    21811.243    6.9064415 
    5320    826.49916   -6862.2792    -6770.082   -45.617256    21805.078    6.9219244 
    5330    824.96927   -6862.0132   -6769.9866    325.60475     21798.87     6.935207 
    5340    837.08879   -6863.2827   -6769.9042    443.57965    21793.054    6.9428844 
    5350    839.03702   -6863.4445   -6769.8487    226.53931    21787.786    6.9505249 
    5360    833.93956   -6862.8533   -6769.8261   -193.70841    21782.779    6.9600253 
    5370    821.31282   -6861.4472   -6769.8285    -469.0224    21777.478    6.9688581 
    5380    808.24425   -6859.9853   -6769.8245   -384.98763    21771.522    6.9815402 
    5390    818.08104   -6861.0561   -6769.7979   -692.14209    21764.891    7.0018079 
    5400    831.29069    -6862.488   -6769.7563   -949.30158    21757.217     7.024575 
    5410    837.79929   -6863.1846   -6769.7268   -776.92195    21748.169    7.0404256 
    5420    828.52448   -6862.1356   -6769.7125   -318.82483    21737.977    7.0481854 
    5430    836.14881   -6862.9856   -6769.7119   -452.36784    21727.159    7.0514351 
    5440     844.6559   -6863.9549   -6769.7322   -818.58808    21715.579    7.0554123 
    5450     843.8696   -6863.9327   -6769.7978   -951.03679    21702.767    7.0660032 
    5460    836.95754    -6863.273   -6769.9092    -1041.014    21688.482     7.082835 
    5470    839.17896   -6863.6662   -6770.0545   -1260.7768    21672.569    7.1027397 
    5480    865.00438   -6866.7488   -6770.2563   -1618.8578    21654.701    7.1271522 
    5490    867.51829   -6867.3241   -6770.5511   -1459.9553    21634.446    7.1548705 
    5500    855.98634   -6866.4271   -6770.9405   -750.11022    21612.029     7.179599 
    5510    847.11155   -6865.9085    -6771.412   -157.46382    21588.351    7.1975066 
    5520    829.53342     -6864.47   -6771.9343    495.61313    21564.286    7.2111635 
    5530    829.88411   -6865.0522   -6772.4774    953.83503    21540.735    7.2306416 
    5540    837.35978   -6866.4641   -6773.0553    980.87874    21518.309    7.2600912 
    5550    838.61222   -6867.2235    -6773.675    807.75264    21497.089    7.2893062 
    5560    821.80475    -6865.985   -6774.3114    1279.6999    21476.963     7.310833 
    5570    793.96173   -6863.4533   -6774.8856    2010.3527    21458.533    7.3217477 
    5580    806.21088   -6865.2935   -6775.3594    1919.3624    21442.708      7.32523 
    5590    839.83022    -6869.471   -6775.7866    1397.4192    21429.413    7.3357387 
    5600    837.37206   -6869.6074   -6776.1973    1263.7193    21418.049    7.3585256 
    5610    837.20322   -6869.9905   -6776.5992    913.62163    21408.337    7.3829947 
    5620    827.09934   -6869.2238   -6776.9596     968.1884    21399.904    7.4025239 
    5630    821.91041    -6868.952   -6777.2667    1152.1793    21392.772    7.4182561 
    5640    802.15587   -6866.9683   -6777.4867    1366.8221    21387.208    7.4288347 
    5650    809.26204   -6867.8934    -6777.619    1448.4589     21383.49    7.4286061 
    5660    831.95114   -6870.5018   -6777.6964     1494.389    21381.771     7.420328 
    5670    839.02597   -6871.3667   -6777.7721    1953.7343    21382.182    7.4144342 
    5680    825.58679   -6869.9471   -6777.8517    2595.3804     21385.36    7.4141098 
    5690    843.62026   -6872.0509   -6777.9438    2209.4482    21392.043    7.4166186 
    5700    827.38341   -6870.3483   -6778.0525    2146.8426    21401.934     7.423666 
    5710    794.14949   -6866.7363   -6778.1477    2387.4611    21414.987     7.435461 
    5720    807.08861   -6868.2213   -6778.1894    1838.1199    21431.423    7.4486123 
    5730    829.09736   -6870.6766   -6778.1895    1412.8984    21450.659    7.4595074 
    5740    830.40065   -6870.8243   -6778.1919     1125.423    21472.122    7.4693974 
    5750    823.44071   -6870.0555   -6778.1995    425.80402     21495.35    7.4814996 
    5760    822.70459   -6869.9715   -6778.1975   -363.68643    21519.424     7.495734 
    5770    820.51841   -6869.7053   -6778.1753   -1018.5407    21543.259    7.5106239 
    5780    812.38164   -6868.7443   -6778.1219   -1230.4034    21565.954    7.5264675 
    5790    828.05046   -6870.4228   -6778.0526   -1114.4095    21587.173    7.5426857 
    5800    840.30156   -6871.7294   -6777.9925   -767.78594    21607.044    7.5607289 
    5810    842.62608   -6871.9692    -6777.973   -211.17045    21626.049    7.5852828 
    5820    843.83128   -6872.1387   -6778.0081   -174.63845    21644.872    7.6173316 
    5830    804.30834   -6867.7927   -6778.0709    88.319238    21663.714    7.6506327 
    5840    794.81042   -6866.7704   -6778.1081   -53.546548    21682.823    7.6815893 
    5850    811.06213   -6868.5643   -6778.0891   -300.75585    21702.037     7.710705 
    5860    806.42713    -6867.982   -6778.0238    -218.2885    21721.067    7.7361553 
    5870    791.41808   -6866.1921   -6777.9082   -91.969902    21739.986    7.7608799 
    5880    792.09374   -6866.0783    -6777.719    98.218216    21758.994    7.7873852 
    5890     813.3567   -6868.1786   -6777.4475    271.92365    21778.344    7.8142891 
    5900    818.61031   -6868.4313   -6777.1141    681.50417    21798.337      7.84083 
    5910    820.56331   -6868.2783   -6776.7432     906.6943    21819.508    7.8675306 
    5920    826.92441   -6868.5781   -6776.3335    915.46061    21842.201    7.8956215 
    5930    805.36662   -6865.7182   -6775.8783    706.74298    21866.448    7.9296542 
    5940    810.37007   -6865.7589   -6775.3609   -284.70669    21891.872    7.9709304 
    5950    831.88141   -6867.5582   -6774.7606   -1410.9546    21917.132    8.0131598 
    5960    817.63507   -6865.3311   -6774.1227   -1972.5499    21940.641    8.0540929 
    5970    806.26281   -6863.4131   -6773.4733   -2208.6623    21961.511    8.0996264 
    5980    809.16783   -6863.0471   -6772.7832   -2607.0589    21979.283    8.1525785 
    5990    812.86144    -6862.738   -6772.0621   -3020.5239    21993.356    8.2095636 
    6000    815.26778   -6862.2974   -6771.3531   -3500.9414    22003.067    8.2603823 
    6010    844.52086   -6864.9041   -6770.6965   -3785.0438    22007.721    8.2951716 
    6020    865.16586   -6866.6533   -6770.1427   -3421.6844    22006.899    8.3169182 
    6030    855.70582   -6865.1909   -6769.7357    -2823.996    22001.048    8.3375707 
    6040     851.7835   -6864.4738    -6769.456   -2830.6783    21990.901     8.364627 
    6050    843.98911   -6863.4222   -6769.2739   -2724.3444    21976.542    8.3976027 
    6060    834.33495   -6862.2311   -6769.1598   -2524.6374    21958.076    8.4306993 
    6070     832.5215   -6861.9563   -6769.0873   -2110.6089    21935.817    8.4600819 
    6080    831.21691   -6861.7632   -6769.0397   -1504.5205    21910.372    8.4835324 
    6090    824.37478   -6860.9666   -6769.0063   -627.07015    21882.644    8.5034582 
    6100     817.0267   -6860.1044   -6768.9639    174.76332    21853.868    8.5230036 
    6110    836.14234   -6862.1847   -6768.9118    512.00354    21825.165    8.5408282 
    6120    858.25261   -6864.6329   -6768.8935    185.72739    21796.983    8.5549499 
    6130    853.78165   -6864.1882   -6768.9475    -65.85331    21768.973    8.5682126 
    6140    840.93794   -6862.8732   -6769.0653    349.32563     21740.86    8.5827585 
    6150    840.80513   -6862.9895   -6769.1965    899.62098     21713.19    8.5956451 
    6160    877.10666   -6867.2193   -6769.3767    723.88814    21686.611    8.6057672 
    6170    876.14409   -6867.3843   -6769.6491    989.17087    21661.077    8.6193947 
    6180    872.63089   -6867.3724   -6770.0291    1192.9206    21636.874    8.6353248 
    6190    866.11904   -6867.1146   -6770.4977    1589.9201    21614.335    8.6460096 
    6200    856.93501   -6866.6174    -6771.025     2205.108     21594.03    8.6467884 
    6210    858.87652   -6867.4079   -6771.5989    2430.3175    21576.737    8.6405483 
    6220    834.42295   -6865.2585   -6772.1773    3011.9351    21562.911    8.6425803 
    6230    827.10643   -6864.9836   -6772.7186    3066.8023    21553.243    8.6631638 
    6240    822.64171   -6864.9665   -6773.1996    2498.8483    21547.826    8.7002477 
    6250    831.88944   -6866.4129   -6773.6144    1694.9192    21545.915    8.7447633 
    6260    849.85391   -6868.8038   -6774.0013    1059.8929    21546.423    8.7897524 
    6270    840.60161   -6868.1443   -6774.3739    1052.2654    21548.522    8.8334649 
    6280    835.21026   -6867.8954   -6774.7265    1082.2854     21552.12    8.8741879 
    6290     846.2099   -6869.4439   -6775.0479    957.41643    21557.268    8.9084686 
    6300    862.66337   -6871.6108   -6775.3794     671.1282    21563.781    8.9327966 
    6310    848.28038    -6870.358    -6775.731    656.28301    21571.318    8.9504182 
    6320    835.30276   -6869.2561   -6776.0769    733.48308    21579.834    8.9716365 
    6330    824.65031   -6868.3861   -6776.3951    790.84564    21589.442    9.0013497 
    6340    814.26413   -6867.5046   -6776.6722    498.79023    21600.197    9.0349697 
    6350    809.85733   -6867.2429   -6776.9021   -23.146966    21611.713    9.0641595 
    6360    796.34015      -6865.9    -6777.067   -334.35921     21623.32    9.0882028 
    6370    802.17323   -6866.6538   -6777.1701   -636.05548    21634.511    9.1131709 
    6380    812.88945   -6867.8994   -6777.2204   -647.54085    21644.899    9.1368645 
    6390     825.2716   -6869.3047   -6777.2444   -680.85777    21654.404    9.1534895 
    6400     832.0444    -6870.082   -6777.2662   -801.75891    21662.975    9.1629889 
    6410    816.93349   -6868.4257   -6777.2955   -897.97646    21670.461    9.1718088 
    6420    789.43011   -6865.3617   -6777.2996    -800.3807    21676.755    9.1861853 
    6430    801.48851   -6866.6543    -6777.247   -819.16363     21681.94    9.2076801 
    6440    822.19897   -6868.8634   -6777.1459   -885.97719    21685.974    9.2374685 
    6450    815.22156   -6867.9617   -6777.0225   -881.00598    21688.774    9.2760742 
    6460    830.43369   -6869.5209   -6776.8848   -1213.5622    21690.278    9.3173469 
    6470    843.20033   -6870.8156   -6776.7554   -1386.3018     21690.07    9.3531551 
    6480    820.32493    -6868.157   -6776.6485   -1021.1631    21687.948    9.3775293 
    6490    820.79233   -6868.1018   -6776.5412   -673.21086    21684.336    9.3858586 
    6500    831.19496   -6869.1331   -6776.4121   -101.91874    21679.758    9.3826312 
    6510    827.53824   -6868.5851    -6776.272    514.99568     21675.02    9.3747643 
    6520     852.5657   -6871.2413   -6776.1363    3.6097198    21670.835    9.3658977 
    6530    872.57866   -6873.3949   -6776.0574   -723.23386    21666.607    9.3601771 
    6540    845.72297    -6870.418   -6776.0763   -788.95929    21661.384    9.3554367 
    6550    819.30009   -6867.5509   -6776.1567   -366.15591     21655.04    9.3513795 
    6560    807.21889   -6866.2881   -6776.2416    106.32416    21648.126    9.3513219 
    6570     807.1796   -6866.3365   -6776.2944    295.01315    21641.273    9.3582671 
    6580    828.16042    -6868.707   -6776.3244    224.99857    21634.752    9.3736658 
    6590    823.23163   -6868.1772   -6776.3445    385.53711    21628.522    9.3915975 
    6600    816.54267   -6867.4378   -6776.3513    718.23763    21622.812     9.401302 
    6610    827.09688   -6868.6049    -6776.341    796.51724    21618.052    9.4002459 
    6620    834.26454   -6869.3964    -6776.333    709.43663    21614.381    9.3938613 
    6630    835.94992   -6869.5959   -6776.3444    504.26543    21611.691    9.3894138 
    6640    865.24505   -6872.9335   -6776.4141    27.915483    21609.664     9.392264 
    6650     879.7115    -6874.735   -6776.6018   -44.603627     21607.71     9.405998 
    6660    859.44621   -6872.8109   -6776.9384    747.36611    21605.801    9.4259967 
    6670    843.90899   -6871.5386   -6777.3993    924.00693    21604.857    9.4438886 
    6680    846.52734   -6872.3821   -6777.9507    561.15487     21605.17    9.4591806 
    6690     845.1217   -6872.8586    -6778.584    323.91825    21606.306    9.4754482 
    6700    817.99493   -6870.5108   -6779.2623    153.80787    21607.934    9.4938717 
    6710    790.23775   -6868.0573   -6779.9051   -223.97973    21609.797    9.5126972 
    6720    799.68278   -6869.6883   -6780.4824   -805.40539    21611.323    9.5264201 
    6730    796.32551   -6869.8227   -6780.9914   -894.93985    21611.777    9.5341309 
    6740    784.11916   -6868.8807    -6781.411   -849.15659    21610.987    9.5417886 
    6750    808.94935   -6871.9916   -6781.7521   -1327.4323    21608.903    9.5540149 
    6760    807.03573   -6872.0604   -6782.0344   -1252.2781    21604.991    9.5691326 
    6770    808.43771   -6872.4543   -6782.2719   -969.47043    21599.289    9.5833608 
    6780    820.67916   -6874.0281   -6782.4801   -800.97566    21592.122    9.5953468 
    6790    805.02106   -6872.4659   -6782.6646    -63.95544    21583.819    9.6042724 
    6800    786.41285   -6870.5242   -6782.7986    458.33358    21575.324     9.608453 
    6810    789.53995     -6870.93   -6782.8556    508.40702    21567.351      9.60657 
    6820    800.96702   -6872.1807   -6782.8316    590.61727    21560.039    9.5966475 
    6830    832.71117   -6875.6616   -6782.7714    122.51271    21553.405    9.5810425 
    6840    827.62792   -6875.0315   -6782.7083     264.9929    21546.978    9.5667244 
    6850    801.74223   -6872.0812   -6782.6457    783.31486    21540.907    9.5501483 
    6860    797.39177   -6871.4901   -6782.5398    494.76351     21535.78    9.5254801 
    6870    810.71569   -6872.8122   -6782.3757   -174.19174    21531.261     9.497423 
    6880    815.25514   -6873.1072   -6782.1643   -275.35583    21526.522    9.4759384 
    6890      814.323   -6872.7527   -6781.9138    82.279939    21521.388    9.4650789 
    6900    816.20753   -6872.6652    -6781.616    346.36914    21516.292    9.4630037 
    6910    814.93909   -6872.1749   -6781.2672    221.18276    21511.572    9.4649022 
    6920    830.14508   -6873.4784   -6780.8745   -368.26984    21507.034    9.4651017 
    6930    844.06802   -6874.6084   -6780.4513   -940.73676    21501.915    9.4693174 
    6940    831.55553   -6872.7962   -6780.0349   -790.58845    21495.475    9.4831541 
    6950    795.04447   -6868.2855   -6779.5971   -2.8710793    21487.893    9.5011837 
    6960    814.66812   -6869.9605    -6779.083    93.136677    21480.066    9.5169005 
    6970    840.26124   -6872.2154    -6778.483   -127.17601    21472.207    9.5284265 
    6980    842.69352   -6871.8716   -6777.8679   -247.37845    21464.046    9.5334626 
    6990    834.43307   -6870.3529   -6777.2707    82.781581    21455.444    9.5332602 
    7000    821.73217   -6868.3522   -6776.6867    653.73511    21446.832    9.5312248 
    7010     811.0912   -6866.5682   -6776.0898    1068.7906    21438.966    9.5227108 
    7020    833.91974   -6868.4973   -6775.4723    1007.7149    21432.395     9.507073 
    7030    851.64021   -6869.8701   -6774.8684    648.89866    21427.078    9.4953812 
    7040    849.57825   -6869.1142   -6774.3425    434.71844    21422.588    9.4951327 
    7050    853.06345   -6869.0721   -6773.9116    600.56299    21418.682     9.507128 
    7060    848.14505   -6868.1857   -6773.5739    1126.8678    21415.591    9.5279533 
    7070    830.04284   -6865.9047   -6773.3122    1834.5223    21414.053     9.551141 
    7080    835.76185   -6866.3338   -6773.1033    1991.7537    21414.988    9.5734472 
    7090    846.99152   -6867.4316   -6772.9484    2268.2702    21418.783    9.5928407 
    7100    842.10949   -6866.7922   -6772.8536     2560.154    21425.883    9.6068007 
    7110    856.23263   -6868.3347   -6772.8206    2104.7092    21436.677    9.6178847 
    7120    865.89507   -6869.4355   -6772.8436    1106.1583    21450.658    9.6302799 
    7130    868.56959   -6869.8438   -6772.9535    134.65449     21466.54    9.6467272 
    7140     848.6755   -6867.8004   -6773.1293    48.865527    21483.123    9.6699343 
    7150    848.30777   -6867.9843   -6773.3542   -104.63284    21500.149    9.7018251 
    7160     837.9893   -6867.0833   -6773.6043   -560.40894    21517.395    9.7426057 
    7170    827.20014   -6866.1206   -6773.8452   -654.77713    21534.303     9.791172 
    7180    816.06135   -6865.0791   -6774.0462   -2.1271149    21550.769      9.84552 
    7190    803.01328   -6863.7712   -6774.1938    521.08968     21567.57    9.9000901 
    7200     807.6641   -6864.3776   -6774.2814     464.5036    21585.422    9.9456806 
    7210    836.83272   -6867.6878   -6774.3379   -224.56973    21604.226    9.9772541 
    7220    839.29906   -6868.0289   -6774.4038   -331.55166    21623.184    9.9979017 
    7230    835.02235   -6867.6515   -6774.5035   -213.62299     21642.08    10.016431 
    7240    857.16233   -6870.2545   -6774.6367    -437.3614    21660.993     10.04593 
    7250    855.04316   -6870.1934    -6774.812   -401.51649     21679.65    10.094497 
    7260    812.00557   -6865.5793   -6774.9988    101.95669    21698.113    10.161844 
    7270    799.60015   -6864.3158   -6775.1192   -91.731897    21716.945    10.235055 
    7280    815.52129   -6866.1405   -6775.1679   -1162.9075    21735.819    10.298068 
    7290    807.45184   -6865.2439   -6775.1714   -1990.2473    21753.335    10.346381 
    7300    797.88582   -6864.1455   -6775.1401   -2087.2311    21768.289     10.38431 
    7310    795.62786   -6863.8095    -6775.056   -1475.4595    21780.485    10.421766 
    7320    828.19647   -6867.3156   -6774.9291   -1065.2396    21790.639    10.466389 
    7330    842.39278    -6868.773   -6774.8028   -826.41137    21799.326    10.522102 
    7340    820.26557   -6866.2087   -6774.7069   -1029.2381    21806.836    10.591802 
    7350    814.04546    -6865.421    -6774.613   -1743.0852    21812.857    10.672282 
    7360    814.53127   -6865.3679   -6774.5058   -2190.6838    21816.451    10.753447 
    7370    809.31046   -6864.6703   -6774.3905   -2402.2972    21816.911    10.829747 
    7380    799.17474   -6863.4033   -6774.2541   -2011.4824    21813.982    10.901927 
    7390    811.99244   -6864.6608   -6774.0819   -1608.6189    21808.112    10.967252 
    7400    821.88528   -6865.5568   -6773.8743   -1442.8371     21799.85    11.027057 
    7410    809.16512   -6863.9125   -6773.6489   -1583.3423    21789.452    11.084373 
    7420     803.4997   -6863.0371   -6773.4055   -1967.8142    21776.708    11.134291 
    7430    813.89931   -6863.9273   -6773.1356   -1715.4094    21761.183    11.166863 
    7440    829.44498   -6865.3616   -6772.8357   -1173.3812    21743.182    11.188167 
    7450    834.04942   -6865.5745   -6772.5351   -786.63742    21723.453    11.211779 
    7460    830.33298   -6864.8759    -6772.251   -420.25145     21702.59      11.2389 
    7470    832.64978   -6864.8611   -6771.9778    -38.51358    21681.116    11.261121 
    7480    836.57966   -6865.0385   -6771.7168    180.15388    21659.557    11.277339 
    7490    839.21823   -6865.0849   -6771.4688    586.09582    21638.314    11.295251 
    7500      858.994   -6867.0839   -6771.2618    1101.5396    21617.932    11.316506 
    7510    846.75624   -6865.5663   -6771.1094    2024.3099    21599.207    11.333618 
    7520    850.56523   -6865.8983   -6771.0165    2581.8209    21583.336    11.345006 
    7530     853.6206   -6866.1903   -6770.9677    2823.6613    21571.124    11.360974 
    7540    869.63446   -6868.0082   -6770.9992    2632.1358    21562.863    11.382496 
    7550    862.92286   -6867.3975   -6771.1372    2616.0989     21558.37    11.403649 
    7560    851.57831   -6866.3962   -6771.4014    2440.1433    21557.576    11.419874 
    7570    843.03659   -6865.8376   -6771.7956    2107.1886    21560.225    11.434483 
    7580    834.87782   -6865.4587   -6772.3268    1856.0484    21565.869     11.45435 
    7590     848.0684   -6867.6426   -6773.0393    1389.8178    21574.139    11.479428 
    7600    838.12208   -6867.4583   -6773.9645    841.40796    21584.364    11.503414 
    7610      815.185   -6865.9928   -6775.0577     486.7536    21595.818    11.524094 
    7620    825.05367     -6868.27    -6776.234   -174.13256    21607.928    11.542032 
    7630    836.96571   -6870.7882   -6777.4234   -574.11849    21619.844    11.558029 
    7640    836.16626   -6871.8111   -6778.5355   -812.03721    21630.978    11.573792 
    7650    827.39273   -6871.7844   -6779.4875   -772.71826    21641.001    11.587562 
    7660    804.55326    -6869.973   -6780.2238   -539.55442     21649.96    11.602347 
    7670    804.54067   -6870.5035   -6780.7558   -539.81832    21658.118     11.61856 
    7680    813.84189   -6871.9123   -6781.1271   -393.65396    21665.539     11.63406 
    7690     810.8963   -6871.8483   -6781.3916   -188.37609    21672.411    11.651388 
    7700    797.16772   -6870.4929   -6781.5676    -281.6186    21678.976    11.667224 
    7710    801.23386   -6871.0429   -6781.6641   -499.78095    21685.122     11.67824 
    7720    802.67286   -6871.2382   -6781.6988   -272.89908     21690.62    11.689307 
    7730    804.01908   -6871.3813   -6781.6918   -37.355159    21695.719    11.700851 
    7740    808.97299   -6871.8874   -6781.6452    67.051315    21700.757    11.708659 
    7750    826.18973   -6873.7379   -6781.5752   -141.18344    21705.856    11.711708 
    7760    841.57522   -6875.3886   -6781.5096   -626.23544     21710.72    11.706037 
    7770    846.08693   -6875.8661   -6781.4839   -1007.9249     21714.68    11.688915 
    7780    822.36968   -6873.2279   -6781.4913    -423.5346     21717.33    11.665246 
    7790    800.89623   -6870.8276   -6781.4864    328.17135    21719.401    11.639254 
    7800    805.39776   -6871.2783    -6781.435    295.11709    21721.843    11.611972 
    7810     802.6286   -6870.8696   -6781.3351    9.9552445    21724.688    11.588639 
    7820    795.21711   -6869.8958   -6781.1881    201.96723    21727.625    11.570928 
    7830    819.61583    -6872.413   -6780.9836    316.96313    21730.831    11.557383 
    7840     841.1185   -6874.5718   -6780.7438    396.17092    21734.495    11.552444 
    7850    847.89581   -6875.1068   -6780.5228    343.50321    21738.702    11.556837 
    7860    848.51899    -6875.002   -6780.3484    121.49757    21743.377     11.56337 
    7870    849.51864   -6875.0017   -6780.2366   -179.43061    21748.229    11.566382 
    7880    834.84148     -6873.31   -6780.1822   -328.57869    21752.847    11.563564 
    7890    822.40942   -6871.8954   -6780.1544   -370.77589    21756.999    11.554908 
    7900     808.2966   -6870.2621   -6780.0954   -528.68036    21760.598    11.545978 
    7910    835.44685    -6873.198   -6780.0027   -999.08454     21763.38    11.540363 
    7920    857.22376   -6875.5339   -6779.9093    -835.8234     21764.81     11.53653 
    7930    842.50074   -6873.8463   -6779.8641   -53.466649    21765.128    11.528542 
    7940    843.85417   -6873.9962    -6779.863    110.93127    21765.283    11.513725 
    7950     844.4218   -6874.0998   -6779.9033    146.27176    21765.586     11.49489 
    7960    820.85229   -6871.5424   -6779.9751    471.87318    21766.159    11.470358 
    7970     836.9025   -6873.4264   -6780.0687    90.757377    21767.317    11.436789 
    7980    848.76691   -6874.8903   -6780.2091   -635.91945    21768.542    11.404669 
    7990    826.82369   -6872.6512   -6780.4177   -449.04807    21768.968    11.392778 
    8000    794.81613   -6869.3103   -6780.6474    310.16159    21768.828    11.408254 
    8010     789.7196   -6868.9344     -6780.84     657.5462    21769.091    11.439305 
    8020    815.24067   -6871.9351   -6780.9938    778.80958    21770.286    11.471068 
    8030    815.20613    -6872.073   -6781.1356    1016.7184    21772.612    11.496847 
    8040    812.94272   -6871.9591   -6781.2741    1156.2271    21776.388    11.515852 
    8050    821.77636   -6873.0798   -6781.4094    987.71375    21781.763    11.528263 
    8060    811.92693    -6872.106   -6781.5343    705.65534     21788.53    11.534575 
    8070    815.80369   -6872.6524   -6781.6482   -170.84533    21796.191    11.538731 
    8080    814.36804   -6872.5921   -6781.7481   -845.96844    21803.595    11.546364 
    8090    813.23326   -6872.5556   -6781.8382   -801.60858    21809.835    11.556036 
    8100    831.16825   -6874.6496   -6781.9316   -378.61392    21814.927    11.562544 
    8110    827.92588   -6874.3972   -6782.0408   -25.372494    21819.447    11.563731 
    8120    839.46195   -6875.8263   -6782.1831   -278.65499    21823.833    11.555756 
    8130    839.32918   -6875.9998   -6782.3714   -502.86403    21827.811    11.540687 
    8140    821.99834   -6874.3094   -6782.6143   -373.04422    21831.095    11.525715 
    8150    805.68111   -6872.7527   -6782.8777   -303.85006    21833.814    11.520583 
    8160    792.78338   -6871.5614   -6783.1252   -141.52944    21836.107    11.536143 
    8170    788.73606   -6871.3122   -6783.3275   -6.7582614    21838.189    11.575314 
    8180    788.61647   -6871.4387   -6783.4673   -146.81167    21840.215    11.628375 
    8190    779.69535    -6870.498   -6783.5218   -266.61814    21842.034    11.680902 
    8200    789.87329   -6871.6014   -6783.4899   -592.65803    21843.431    11.729037 
    8210    783.13111   -6870.7234   -6783.3639   -490.70423    21844.037    11.775445 
    8220       773.87   -6869.4637   -6783.1373   -369.21262    21843.932    11.824681 
    8230    783.84862    -6870.221   -6782.7815   -572.19379    21843.268    11.876645 
    8240    807.90478   -6872.4247   -6782.3017   -1093.5399    21841.719    11.924373 
    8250     823.1559   -6873.5585   -6781.7342   -901.01786    21838.724    11.958579 
    8260    836.93014   -6874.4937   -6781.1329   -836.74728    21834.411    11.972366 
    8270    837.11595   -6873.9119   -6780.5304   -847.88998    21828.921    11.969925 
    8280    838.42856   -6873.4722   -6779.9442   -941.38188    21822.237    11.964283 
    8290    832.18481   -6872.2145    -6779.383   -611.11922    21814.299    11.969634 
    8300    825.38014   -6870.9247   -6778.8523    26.956502    21805.573    11.990457 
    8310    829.45253   -6870.8659   -6778.3392    360.38821    21796.916    12.019135 
    8320    848.95582   -6872.5641   -6777.8618    141.58893    21788.801    12.040447 
    8330    853.76541    -6872.695   -6777.4562   -657.46721    21780.871    12.046576 
    8340    850.66619   -6872.0341   -6777.1411   -774.10329    21772.143    12.042353 
    8350    819.58319   -6868.3067    -6776.881    139.91533      21762.5    12.038747 
    8360     808.8216    -6866.854   -6776.6287    1086.1227    21753.128      12.0433 
    8370    815.04225   -6867.2669   -6776.3477      1388.56    21745.286    12.059709 
    8380     807.8361    -6866.155   -6776.0397    1543.6043    21739.493    12.083719 
    8390    830.54129     -6868.37   -6775.7219     1045.206    21735.872    12.109311 
    8400    844.63256   -6869.6321   -6775.4121    735.95429    21733.816    12.140333 
    8410    865.92523   -6871.7559   -6775.1606    444.86918     21732.83    12.182249 
    8420    866.39754    -6871.649   -6775.0011    303.05144    21732.506     12.22938 
    8430    831.34479   -6867.6584   -6774.9207      696.205    21732.717     12.27539 
    8440    842.70765   -6868.8988   -6774.8935    475.52415    21733.823    12.318492 
    8450    820.62003    -6866.427   -6774.8856    817.17829    21735.708    12.365726 
    8460    802.77775   -6864.4229   -6774.8718    893.74783    21738.723    12.414154 
    8470    823.21049   -6866.6493   -6774.8189    195.49456    21742.908    12.456855 
[...]
   22890    834.18994   -6870.9317   -6777.8766    -2378.397    21837.538    34.069151 
   22900    822.22716   -6869.4344   -6777.7138   -1978.4459    21832.361    34.094789 
   22910    814.60591    -6868.388   -6777.5175   -1783.2177    21824.245    34.114305 
   22920    809.17018   -6867.5216   -6777.2575   -1281.2006    21813.533    34.105421 
   22930    824.79758    -6868.921   -6776.9136    -866.3606    21800.873    34.075671 
   22940    858.08291   -6872.2172   -6776.4967   -666.08843    21786.841    34.053455 
   22950    877.83036   -6873.9952   -6776.0719   -312.57039    21771.778    34.050299 
   22960    862.15608   -6871.8733   -6775.6985    585.93201    21756.232    34.059383 
   22970    853.16659    -6870.545    -6775.373    1298.5857    21741.375    34.069572 
   22980    863.89611   -6871.4518   -6775.0829    1500.0166    21728.214    34.072308 
   22990    856.23064   -6870.3588    -6774.845    1316.6494    21717.079    34.062843 
   23000    864.96607   -6871.1692   -6774.6809    633.61903    21707.687    34.038438 
   23010    872.93441   -6871.9719   -6774.5947    225.81934    21699.177    34.008273 
   23020    872.00685   -6871.8997    -6774.626    302.49673    21690.968     33.98292 
   23030    845.21645   -6869.0398   -6774.7547    939.10054    21683.195    33.964991 
   23040    849.48373   -6869.7211   -6774.9599    1257.6568    21676.635    33.955943 
   23050    849.73765   -6870.0327   -6775.2432    1702.9312    21671.846    33.953278 
   23060     822.1967   -6867.2959   -6775.5786    2341.7514      21669.5     33.94858 
   23070    830.76888   -6868.6284   -6775.9549    2024.3006    21670.368    33.932893 
   23080    835.07948   -6869.5305   -6776.3761    1514.4722    21674.161    33.902041 
   23090    821.63608   -6868.4856   -6776.8309    828.07065    21680.159    33.872033 
   23100    829.84581   -6869.8813   -6777.3108   -231.39674    21687.359    33.859679 
   23110    820.09264   -6869.2932   -6777.8106    -626.7392    21694.394     33.86242 
   23120    813.81951   -6869.0954   -6778.3126   -647.52129     21700.65     33.87429 
   23130    824.60174   -6870.7853   -6778.7997   -919.78407    21706.008    33.895336 
   23140    853.86137   -6874.5587   -6779.3092   -1232.8999    21710.108    33.919606 
   23150     858.8464   -6875.6925   -6779.8869   -1260.4908    21712.522    33.941033 
   23160    845.45477   -6874.8305   -6780.5187    -1104.087    21713.179    33.953063 
   23170    845.46802   -6875.4935   -6781.1803   -1545.5365    21712.162    33.955076 
   23180    819.22293   -6873.2202   -6781.8346    -1703.266    21708.954    33.950482 
   23190    802.96392   -6871.9952   -6782.4233   -1579.1538    21703.296    33.936541 
   23200    816.21635   -6873.9831    -6782.933   -1427.2763    21695.303    33.922784 
   23210    824.88102   -6875.3918   -6783.3751   -996.67186    21685.206    33.921902 
   23220    828.19136    -6876.152   -6783.7661   -29.477387    21673.653    33.933907 
   23230    817.97825   -6875.3532   -6784.1065    813.71828    21661.926    33.944895 
   23240    800.76903   -6873.7045   -6784.3776    1222.4205    21651.185     33.93263 
   23250    799.65942   -6873.7736   -6784.5704    1532.4311    21642.073    33.893634 
   23260    791.58181   -6872.9885   -6784.6864    1834.8817    21635.068    33.849259 
   23270    785.85111   -6872.3834   -6784.7205    2105.1857    21630.625    33.808773 
   23280    798.54291   -6873.7658   -6784.6871     1955.767    21629.107    33.765029 
   23290    796.92702      -6873.5   -6784.6016    1336.9134    21630.325    33.719849 
   23300    801.60914   -6873.8854   -6784.4647     365.2131    21633.443    33.688193 
   23310     827.8376   -6876.6305   -6784.2839   -874.58703    21637.087    33.675197 
   23320    839.67318   -6877.7758    -6784.109   -1397.9856    21639.615    33.663847 
   23330    813.61818   -6874.7238   -6783.9635   -1114.1363     21640.29     33.63889 
   23340    800.15856   -6873.0748   -6783.8159   -1079.5077    21639.348    33.599383 
   23350    797.32013   -6872.5595   -6783.6172   -1230.3902    21636.836    33.551356 
   23360    808.29944   -6873.5421   -6783.3751   -1547.9841    21632.501    33.502182 
   23370    817.37023   -6874.2744   -6783.0955   -1582.9334    21625.948    33.452481 
   23380    826.44088    -6874.992   -6782.8012   -1469.2148    21617.067    33.396509 
   23390    835.54896   -6875.7176   -6782.5108   -1150.9968    21606.004    33.344272 
   23400    826.34416   -6874.4143   -6782.2344   -874.61603    21593.161    33.309492 
   23410    817.48796   -6873.1511    -6781.959   -857.40942    21578.878    33.289718 
   23420    825.23587   -6873.7282   -6781.6719   -720.43651    21563.231    33.281933 
   23430    820.26627   -6872.8749    -6781.373   -407.98956    21546.404    33.285804 
   23440      821.973   -6872.7575   -6781.0652   -177.76964    21528.768    33.302563 
   23450    827.55256   -6873.0604   -6780.7456    306.95834    21510.699    33.329333 
   23460    813.17737   -6871.1219   -6780.4108    1189.0748    21492.895    33.352439 
   23470    808.68341   -6870.2578    -6780.048    1691.4084    21476.497    33.355094 
   23480    805.05522   -6869.4411    -6779.636    1960.9929    21462.268    33.333768 
   23490    818.19774   -6870.4415   -6779.1703    1710.7599    21450.561    33.301586 
   23500    836.75303   -6872.0079   -6778.6669     1087.673    21441.063    33.264312 
   23510    825.64566   -6870.2601   -6778.1581    1115.0919     21433.06    33.216511 
   23520    827.29291   -6869.9279   -6777.6421    1250.5185    21426.535    33.172606 
   23530    856.45661   -6872.6554   -6777.1164    1371.3555    21421.682    33.156417 
   23540    861.31952   -6872.7045    -6776.623    2009.5317    21418.762    33.169467 
   23550    850.94053   -6871.1248   -6776.2011    2562.0746    21418.606      33.1988 
   23560    853.51091   -6871.0463   -6775.8358    2593.1567    21421.995    33.228977 
   23570    861.79484   -6871.6562   -6775.5217    2357.3275    21429.083    33.246693 
   23580    860.40101   -6871.2513   -6775.2723    1962.2774    21439.585    33.247924 
   23590    850.20318   -6869.9194    -6775.078    1299.4788        21453     33.24536 
   23600    866.51487   -6871.5943   -6774.9333    700.50122    21468.475    33.259647 
   23610    860.58102   -6870.8447   -6774.8455    1097.2833    21485.341    33.302107 
   23620    855.08666   -6870.2273   -6774.8411    1545.9194     21504.06    33.362942 
   23630    848.49432   -6869.5661   -6774.9153    1685.2389    21525.264    33.418442 
   23640    834.93175   -6868.2108    -6775.073    1659.4338    21549.213    33.458414 
   23650    825.49194   -6867.4038   -6775.3189    1706.6985    21575.964    33.491109 
   23660      827.869   -6868.0055   -6775.6555    1517.8214      21605.6    33.540555 
   23670    840.32967   -6869.8362   -6776.0962    611.09181    21637.819    33.624742 
   23680    830.84095   -6869.3159   -6776.6344   -160.06535    21671.481    33.731895 
   23690    823.73895   -6869.1296   -6777.2403   -862.54739     21705.47    33.831227 
   23700    827.78805     -6870.21    -6777.869   -1670.7099    21738.755    33.906419 
   23710    848.35779   -6873.1795    -6778.544   -2637.8737      21770.1     33.96099 
   23720    832.84457   -6872.1654   -6779.2604   -3123.8411    21798.134    34.004298 
   23730    805.67961   -6869.8387   -6779.9639   -3070.4917    21822.072    34.040499 
   23740    798.03269   -6869.6187    -6780.597   -2907.9443    21841.859    34.074123 
   23750    799.79802   -6870.3593   -6781.1406   -2805.6334    21857.659    34.100715 
   23760    797.45998   -6870.5545   -6781.5966   -2875.3666    21869.554    34.118797 
   23770    804.21797   -6871.6967    -6781.985   -3191.1042    21877.341    34.137131 
   23780    805.22259   -6872.1438     -6782.32   -3029.5271    21880.616    34.166904 
   23790    810.89549   -6873.0616    -6782.605   -2990.3703    21879.484    34.215269 
   23800    823.27957   -6874.7072   -6782.8692   -3225.7692    21873.913     34.28115 
   23810    824.23111   -6875.0766   -6783.1324   -2923.4348     21863.63    34.349648 
   23820    819.18729   -6874.7798   -6783.3983   -2443.2515    21848.957    34.401341 
   23830    803.85287   -6873.3107   -6783.6397   -1912.6067    21830.554    34.426278 
   23840    807.74998   -6873.9506   -6783.8449   -1373.1146     21809.16     34.42764 
   23850    798.68762    -6873.095   -6784.0002   -472.73602    21785.584    34.418225 
   23860     777.6755   -6870.8235   -6784.0727    799.57363    21761.139    34.409564 
   23870    801.78977   -6873.4916   -6784.0508    1216.1562    21737.484    34.404394 
   23880     819.9964   -6875.4434   -6783.9716    1085.7015    21715.294    34.411143 
   23890    813.94849   -6874.6759   -6783.8787    1062.4091    21694.477    34.438414 
   23900    804.03013   -6873.4556   -6783.7648    1264.9504    21675.001    34.474907 
   23910    797.43744   -6872.5541   -6783.5987    1849.0473     21657.22    34.514719 
   23920    788.54982   -6871.3234   -6783.3595    2212.5484    21641.902    34.555514 
   23930     777.3815   -6869.7577   -6783.0396    2341.1068    21629.587    34.584508 
   23940    776.16137   -6869.1942   -6782.6122    2357.3164    21620.489    34.599632 
   23950    803.73899   -6871.7286   -6782.0703    2011.8408    21614.629    34.604288 
   23960    834.53742   -6874.5473   -6781.4534    1538.0758    21611.577    34.599726 
   23970      835.286   -6874.0223   -6780.8449    1405.0961     21610.74    34.598098 
   23980    835.88135   -6873.5269   -6780.2831    1495.0416    21611.943    34.605276 
   23990    822.64511   -6871.5303    -6779.763    1838.1446    21615.362    34.622856 
   24000    822.45054   -6871.0202   -6779.2746    1438.8875    21621.343    34.647281 
   24010    824.39295   -6870.7591   -6778.7968    1098.0448     21629.48     34.67355 
   24020    828.16737    -6870.723   -6778.3397    1077.8725    21639.319    34.707562 
   24030    820.38714   -6869.4226   -6777.9072    1187.5709    21650.823     34.74699 
   24040    820.06117   -6868.9725   -6777.4934    1081.8605    21664.112    34.792538 
   24050     843.9769   -6871.2504   -6777.1035    415.35532    21679.003    34.845083 
   24060    855.95876    -6872.253   -6776.7695   -49.925039    21694.635    34.894491 
   24070     840.7964   -6870.3092   -6776.5171    326.21602    21710.456     34.94314 
   24080    830.89669   -6869.0043   -6776.3165    150.00131    21726.789    34.997311 
   24090    840.93787   -6869.9468   -6776.1389   -201.86425    21743.434    35.050409 
   24100     842.1567   -6869.9414   -6775.9975   -5.6000626    21759.981    35.097935 
   24110    850.14173   -6870.7437   -6775.9091    264.07969    21776.638    35.140112 
   24120    867.88487   -6872.7063   -6775.8924    274.00124    21793.729     35.18954 
   24130    844.11441   -6870.1153   -6775.9531    557.37056    21811.364    35.271664 
   24140    811.51728   -6866.5758   -6776.0498    681.87609    21829.889    35.391791 
   24150    814.25975   -6866.9452   -6776.1133    169.19098    21849.427    35.520805 
   24160    833.56154   -6869.1357   -6776.1506   -681.70657    21869.253    35.640609 
   24170    823.43344   -6868.0487   -6776.1934   -837.98669    21888.294    35.749188 
   24180    822.49678    -6867.993   -6776.2422   -990.26296    21906.204    35.845779 
   24190    846.23891   -6870.6944   -6776.2952   -1673.9792    21922.668    35.932413 
   24200    850.50149   -6871.2716   -6776.3969   -2175.4987     21936.77    36.016168 
   24210     824.3289   -6868.5169   -6776.5618   -2153.9588      21947.8    36.092412 
   24220    802.87401   -6866.3071   -6776.7453   -1665.8064    21955.797      36.1571 
   24230    818.31113   -6868.1985   -6776.9147   -2027.0883     21961.25    36.204371 
   24240    833.73491   -6870.1053   -6777.1009   -2474.3739    21963.728    36.232926 
   24250    816.19116   -6868.3762   -6777.3288   -1971.7661    21962.705    36.260261 
   24260    803.62405   -6867.2241   -6777.5787   -1081.6613    21958.849     36.28664 
   24270    803.24474   -6867.4408   -6777.8376   -796.60315      21953.3    36.292929 
   24280    785.25208   -6865.6886   -6778.0926   -549.29355    21946.555    36.270569 
   24290    778.08088   -6865.1091    -6778.313   -321.40261    21938.959    36.233577 
   24300    793.52932   -6867.0051   -6778.4857   -298.72443    21930.847    36.200495 
   24310    801.97681   -6868.0834   -6778.6217   -791.69861    21922.195    36.172665 
   24320    799.04363   -6867.8705    -6778.736   -1202.4423    21912.345    36.139156 
   24330    774.33785   -6865.1746   -6778.7961   -660.56159    21900.813    36.108853 
   24340    774.57486   -6865.1651   -6778.7601   -479.74766    21888.168    36.096994 
   24350     789.3306   -6866.6524   -6778.6014   -445.94451     21874.76    36.095315 
   24360    805.44916   -6868.1806   -6778.3316   -359.37001    21860.638    36.092938 
   24370    831.69468   -6870.7568   -6777.9801   -296.67225    21845.908    36.084181 
   24380    831.09917   -6870.2977   -6777.5873     331.0017    21830.749    36.068697 
   24390    816.07272    -6868.204   -6777.1699    1241.5383    21816.031    36.045636 
   24400    835.60161   -6869.9297   -6776.7171    1186.8821    21802.904    36.023428 
   24410    847.67112    -6870.814   -6776.2551     731.7456    21791.362    36.022678 
   24420    851.74329   -6870.8432     -6775.83    616.45934    21780.854    36.050606 
   24430    860.51935   -6871.4481   -6775.4559    506.50275     21771.18    36.070916 
   24440    866.40834    -6871.807   -6775.1579    477.44592     21762.19    36.045771 
   24450    870.04189   -6872.0045   -6774.9501    831.94735    21753.896    35.973792 
   24460    875.82037   -6872.5453   -6774.8462    1080.0937    21746.711    35.879734 
   24470    859.78686   -6870.7594   -6774.8489    1398.4163    21741.075    35.796638 
   24480    852.94475   -6870.0919   -6774.9446    1398.7645    21737.377     35.73486 
   24490     836.1973   -6868.3729   -6775.0938    1634.7585    21735.713    35.689696 
   24500    846.54321   -6869.7195   -6775.2863    1831.9837    21736.397    35.652201 
   24510    841.53469   -6869.4132   -6775.5388    1926.2449    21739.737    35.617939 
   24520    820.42243   -6867.3556   -6775.8362    1508.4461    21745.832    35.590497 
   24530    827.54159   -6868.4658   -6776.1523    475.08515    21754.063    35.567216 
   24540    823.10189   -6868.2846   -6776.4664   -84.518806    21763.118    35.545154 
   24550    831.74944   -6869.5872   -6776.8043   -413.28581    21772.117    35.525142 
   24560    811.37835   -6867.6639   -6777.1535    4.5356631    21780.675    35.509215 
   24570    792.23609    -6865.854   -6777.4788    378.42814     21789.28    35.498943 
   24580    796.87999   -6866.6503   -6777.7572    68.322168    21798.382    35.493143 
   24590    789.36868   -6866.0294   -6777.9741   -151.89877    21807.664    35.479925 
   24600    805.86028   -6868.0359    -6778.141   -973.55535    21816.677    35.448826 
   24610    825.66614   -6870.3855   -6778.2812    -1808.848    21824.312    35.410308 
   24620    810.94491   -6868.8725   -6778.4104    -1983.882    21829.436    35.381213 
   24630     791.0265   -6866.7467   -6778.5065    -1873.545    21831.726    35.372138 
   24640    800.16725   -6867.8013   -6778.5414   -1928.3086     21831.28    35.389326 
   24650    830.47267   -6871.1792   -6778.5388   -2022.6037    21828.023    35.418662 
   24660    823.56923   -6870.4154    -6778.545   -1671.5273    21821.885    35.433405 
   24670    816.58911   -6869.6517     -6778.56   -1248.4462    21813.328    35.411823 
   24680    839.92522   -6872.2596   -6778.5647   -1148.5955    21802.929    35.365569 
   24690    855.27004    -6874.003   -6778.5964   -809.87263    21790.909    35.323857 
   24700    845.86431   -6873.0439   -6778.6865   -209.39699    21777.757    35.306466 
   24710       838.59   -6872.3864   -6778.8404    228.78549    21764.294    35.314408 
   24720    840.70854   -6872.8418   -6779.0595     239.6253    21751.128    35.329199 
   24730    837.22959   -6872.7448   -6779.3506    197.09801    21738.335    35.343327 
   24740    826.49443   -6871.8978   -6779.7011    311.96636    21725.885    35.361264 
   24750    812.85242   -6870.7592   -6780.0843    759.80404    21713.989    35.378606 
   24760    810.60733   -6870.9009   -6780.4764    1045.4054     21703.21    35.381821 
   24770    823.76305   -6872.7857   -6780.8937    790.93059    21693.897    35.362526 
   24780    823.88903   -6873.2599   -6781.3539    648.49803     21685.79    35.316726 
   24790    819.48684   -6873.2733   -6781.8583    796.21208     21678.69    35.248513 
   24800    813.16245   -6873.0832   -6782.3737    1149.7517     21672.79    35.187525 
   24810    813.51057   -6873.6313   -6782.8829    1419.8849    21668.562    35.149947 
   24820    822.93504   -6875.1961   -6783.3964    1257.7695    21666.323    35.127476 
   24830    817.42457   -6875.0992   -6783.9143    951.14411    21665.862    35.117984 
   24840    801.20041   -6873.7838   -6784.4087    602.11201    21666.759    35.115159 
   24850    792.16277   -6873.2093   -6784.8424    44.437406    21668.493     35.11443 
   24860    791.69455   -6873.5193   -6785.2046   -445.88125    21670.301    35.120459 
   24870    798.42561   -6874.5555   -6785.4899   -801.22147     21671.49    35.132715 
   24880    822.93836   -6877.5386   -6785.7386   -838.21412    21671.583    35.154235 
   24890     797.5747   -6874.9361   -6785.9654   -149.98692    21670.583    35.184171 
   24900    754.43976   -6870.2787   -6786.1198    492.93805    21669.358    35.200269 
   24910    776.23405   -6872.7352   -6786.1452    397.78572    21668.761    35.188075 
   24920    824.99823   -6878.1077   -6786.0779   -148.02783    21668.673    35.160258 
   24930    813.43527   -6876.7226   -6785.9827    30.751336    21668.488    35.134913 
   24940    793.13268   -6874.3457   -6785.8705    409.91346    21668.371    35.116006 
   24950    793.21783   -6874.1743   -6785.6897    606.29836    21668.826    35.110733 
   24960    800.00047   -6874.6676   -6785.4263    508.64972    21670.101    35.123553 
   24970    788.45717   -6873.0418   -6785.0882     639.8726    21672.127    35.155723 
   24980    770.06149   -6870.5485    -6784.647    780.82219    21675.079    35.203522 
   24990     790.0868    -6872.205   -6784.0696    42.946648    21679.026    35.253701 
   25000    813.06338   -6874.0486   -6783.3502   -628.60519    21683.045    35.296752 
Loop time of 14848.6 on 16 procs for 20000 steps with 864 atoms

Performance: 0.116 ns/day, 206.230 hours/ns, 1.347 timesteps/s
97.5% CPU use with 16 MPI tasks x 1 OpenMP threads

MPI task timing breakdown:
Section |  min time  |  avg time  |  max time  |%varavg| %total
---------------------------------------------------------------
Pair    | 9743.2     | 12415      | 14640      |1275.8 | 83.61
Bond    | 0.0016153  | 0.0038636  | 0.014681   |   5.1 |  0.00
Neigh   | 0.19656    | 0.27296    | 0.37579    |  10.4 |  0.00
Comm    | 202.6      | 1770.4     | 4573.6     |3256.5 | 11.92
Output  | 2.8051     | 2.8344     | 3.2544     |   6.4 |  0.02
Modify  | 2.3471     | 660.38     | 1355.6     |2110.3 |  4.45
Other   |            | 0.0941     |            |       |  0.00

Nlocal:        54.0000 ave          70 max          42 min
Histogram: 2 3 2 1 1 2 1 2 1 1
Nghost:        477.562 ave         550 max         415 min
Histogram: 2 2 2 2 1 1 1 3 0 2
Neighs:         0.00000 ave           0 max           0 min
Histogram: 16 0 0 0 0 0 0 0 0 0
FullNghs:      2193.50 ave        3469 max        1340 min
Histogram: 2 5 1 0 1 2 1 2 1 1

Total # of neighbors = 35096
Ave neighs/atom = 40.620370
Ave special neighs/atom = 0.0000000
Neighbor list builds = 2000
Dangerous builds = 2000
unfix   3
                
Total wall time: 5:09:07
