LAMMPS (29 Sep 2021 - Update 3)
OMP_NUM_THREADS environment is not set. Defaulting to 1 thread. (src/comm.cpp:98)
  using 1 OpenMP thread(s) per MPI task
units	metal
atom_style	full

read_data	mixed.data
Reading data file ...
  orthogonal box = (0.0000000 0.0000000 0.0000000) to (15.857269 15.758596 73.856324)
  2 by 1 by 8 MPI processor grid
  reading atoms ...
  864 atoms
Finding 1-2 1-3 1-4 neighbors ...
  special bond factors lj:    0        0        0       
  special bond factors coul:  0        0        0       
     0 = max # of 1-2 neighbors
     0 = max # of 1-3 neighbors
     0 = max # of 1-4 neighbors
     1 = max # of special neighbors
  special bonds CPU = 0.001 seconds
  read_data CPU = 0.013 seconds

pair_style	quip
pair_coeff	* * /ocean/projects/cts180021p/wuziqi/clease/mint-PD/PhaseDiagram-Clease/Liquid/GAP_potential/gap_LiKCl.xml "Potential xml_label=GAP_2021_9_27_0_1_17_37_618" 17 19 3

neighbor	0.3 bin
neigh_modify	delay 10

timestep	0.001
compute	msd all msd
thermo_style	custom step temp pe etotal press vol c_msd[4]
thermo	10
dump	1 all custom 10 xyz-mix.dump type id x y z
dump	2 all custom 10 force-mix.dump type id fx fy fz

fix     1 all nve
run     2000
Neighbor list info ...
  update every 1 steps, delay 10 steps, check yes
  max neighbors/atom: 2000, page size: 100000
  master list distance cutoff = 6.22
  ghost atom cutoff = 6.22
  binsize = 3.11, bins = 6 6 24
  1 neighbor lists, perpetual/occasional/extra = 1 0 0
  (1) pair quip, perpetual
      attributes: full, newton on
      pair build: full/bin
      stencil: full/bin/3d
      bin: standard
Per MPI rank memory allocation (min/avg/max) = 8.896 | 8.907 | 8.915 Mbytes
Step Temp PotEng TotEng Press Volume c_msd[4] 
       0            0   -6680.0933   -6680.0933   -8281.1165    18455.831            0 
      10    70.089017   -6687.9205    -6680.102   -9637.9304    18455.831 0.00053514082 
      20    180.09083   -6700.2003   -6680.1109   -11326.743    18455.831 0.0066144209 
      30    218.60542   -6704.4933   -6680.1075   -10699.378    18455.831  0.022432956 
      40    219.14865   -6704.5494    -6680.103   -8951.3193    18455.831  0.042690684 
      50    240.47609   -6706.9311   -6680.1056   -8003.5149    18455.831  0.059191698 
      60    253.66901   -6708.4039   -6680.1068    -7626.627    18455.831   0.07070925 
      70     242.9182   -6707.2018   -6680.1039   -7466.6829    18455.831  0.079364222 
      80    245.92472    -6707.537   -6680.1038   -7609.4954    18455.831  0.086633288 
      90    257.49674   -6708.8305   -6680.1063   -7851.5904    18455.831  0.095173812 
     100    252.46946   -6708.2676   -6680.1043   -7551.0395    18455.831   0.10676573 
     110    248.46405   -6707.8212   -6680.1047   -7097.6705    18455.831   0.12025968 
     120    250.68872   -6708.0687    -6680.104   -6824.8497    18455.831   0.13340609 
     130      258.818   -6708.9777   -6680.1062   -6596.3887    18455.831   0.14573975 
     140    253.60976   -6708.3953   -6680.1047   -6185.2051    18455.831   0.15889724 
     150    247.40375   -6707.7026   -6680.1043   -5947.5032    18455.831   0.17318983 
     160    248.95468   -6707.8762   -6680.1049   -5851.7986    18455.831   0.18766652 
     170    251.06346   -6708.1121   -6680.1056   -5590.4969    18455.831   0.20144657 
     180    246.23782    -6707.572   -6680.1038   -5247.2261    18455.831   0.21382042 
     190    251.48989   -6708.1586   -6680.1045   -5416.1608    18455.831   0.22371169 
     200    260.44308   -6709.1586   -6680.1058   -5793.9896    18455.831   0.23141162 
     210    257.82494   -6708.8658    -6680.105   -6133.6533    18455.831   0.23844771 
     220    250.73963   -6708.0747   -6680.1043   -6257.2025    18455.831   0.24564622 
     230    248.07271   -6707.7773   -6680.1044   -6243.0592    18455.831   0.25309034 
     240    248.93862   -6707.8742   -6680.1047   -6226.9294    18455.831   0.26091643 
     250    248.99388   -6707.8804   -6680.1047   -6334.5414    18455.831   0.26913526 
     260    251.27669   -6708.1344   -6680.1041   -6551.8246    18455.831   0.27705303 
     270    260.34527   -6709.1477   -6680.1058        -6764    18455.831   0.28421607 
     280    260.83001   -6709.2011   -6680.1051   -6639.8092    18455.831   0.29163604 
     290    256.24266   -6708.6893    -6680.105   -6449.9322    18455.831   0.29974682 
     300    250.69638     -6708.07   -6680.1044   -6471.1016    18455.831   0.30849754 
     310    250.05901    -6707.999   -6680.1046   -6562.0942    18455.831   0.31777754 
     320    252.23509   -6708.2423   -6680.1051   -6693.6464    18455.831   0.32755563 
     330    250.81469   -6708.0833   -6680.1046   -6713.8004    18455.831   0.33779883 
     340    250.65515   -6708.0657   -6680.1047     -6614.52    18455.831   0.34801692 
     350    252.94275   -6708.3202   -6680.1041   -6588.7327    18455.831   0.35730468 
     360    261.50627   -6709.2774    -6680.106   -6797.9362    18455.831   0.36504658 
     370    261.10007   -6709.2316   -6680.1055   -6831.7443    18455.831   0.37190178 
     380    253.99916   -6708.4387   -6680.1047   -6726.1215    18455.831   0.37827271 
     390    253.05009   -6708.3325   -6680.1044    -6835.806    18455.831   0.38397661 
     400    258.03703   -6708.8906   -6680.1062   -6768.7818    18455.831   0.38955387 
     410      252.036   -6708.2195   -6680.1045   -6292.4532    18455.831   0.39652014 
     420    250.52201   -6708.0507   -6680.1046   -5826.2725    18455.831   0.40500255 
     430    256.29495   -6708.6954   -6680.1053    -5546.315    18455.831    0.4145153 
     440    262.43605   -6709.3808   -6680.1057   -5439.0868    18455.831   0.42473971 
     450    264.26046   -6709.5844   -6680.1058   -5272.9671    18455.831   0.43527985 
     460    262.52327   -6709.3894   -6680.1046   -5195.9426    18455.831   0.44476232 
     470    267.68384   -6709.9661   -6680.1056   -5304.7962    18455.831   0.45177569 
     480    270.55653   -6710.2863   -6680.1053   -5291.2639    18455.831   0.45687774 
     490    270.72724   -6710.3054   -6680.1053   -5218.7322    18455.831   0.46120142 
     500    269.05227   -6710.1187   -6680.1055   -5175.8745    18455.831   0.46642946 
     510    263.94553   -6709.5489   -6680.1053   -5239.9274    18455.831   0.47407361 
     520    257.63711   -6708.8446   -6680.1048   -5291.7388    18455.831   0.48412853 
     530    257.06548   -6708.7811   -6680.1051   -5321.5334    18455.831   0.49506416 
     540    260.38526   -6709.1518   -6680.1055   -5376.0867    18455.831   0.50501047 
     550    260.91759   -6709.2118    -6680.106    -5479.615    18455.831   0.51322197 
     560    255.01677   -6708.5518   -6680.1043   -5675.0057    18455.831   0.52041437 
     570     259.1908   -6709.0183   -6680.1051   -6233.3417    18455.831    0.5272333 
     580    265.73933   -6709.7494   -6680.1058   -6810.0612    18455.831   0.53425593 
     590    267.07214   -6709.8973    -6680.105   -7271.0617    18455.831   0.54173358 
     600    270.59769   -6710.2906    -6680.105   -7669.4363    18455.831   0.54966243 
     610    275.51295   -6710.8394   -6680.1055   -7859.4286    18455.831   0.55825095 
     620    275.26386   -6710.8118   -6680.1057   -7564.3126    18455.831   0.56786247 
     630    267.62803    -6709.959   -6680.1047   -6980.9593    18455.831   0.57832835 
     640    265.09163   -6709.6761   -6680.1047   -6568.2152    18455.831   0.58820723 
     650    267.67247   -6709.9653    -6680.106    -6347.284    18455.831   0.59641333 
     660    264.01415   -6709.5562    -6680.105   -5916.0469    18455.831   0.60309646 
     670    263.52965    -6709.502   -6680.1049   -5671.0684    18455.831   0.60844331 
     680    269.00124    -6710.113   -6680.1055   -5692.2827    18455.831    0.6132683 
     690    271.45591    -6710.387   -6680.1057   -5574.8525    18455.831   0.61933075 
     700     270.0884   -6710.2336   -6680.1048   -5412.3704    18455.831   0.62727776 
     710    274.16504    -6710.689   -6680.1055   -5445.9009    18455.831   0.63604213 
     720    276.77226   -6710.9801   -6680.1057   -5459.4182    18455.831   0.64454539 
     730    275.88502   -6710.8806   -6680.1052    -5417.932    18455.831   0.65171241 
     740    275.85971   -6710.8783   -6680.1057   -5536.9233    18455.831   0.65662341 
     750    272.97993   -6710.5569   -6680.1056   -5708.1328    18455.831    0.6598394 
     760    268.28422    -6710.033   -6680.1055   -5761.8441    18455.831   0.66298993 
     770    264.14144   -6709.5705   -6680.1051   -5775.8492    18455.831   0.66717813 
     780    263.51726    -6709.501   -6680.1053   -5700.2554    18455.831   0.67265545 
     790    266.55703   -6709.8409    -6680.106    -5605.591    18455.831   0.67864068 
     800    265.59911   -6709.7343   -6680.1063   -5512.5062    18455.831   0.68325498 
     810    257.26872   -6708.8037    -6680.105    -5609.846    18455.831   0.68551207 
     820    257.02246   -6708.7759   -6680.1047   -5957.2323    18455.831   0.68532325 
     830    268.49996   -6710.0576    -6680.106   -6395.3276    18455.831   0.68384718 
     840      275.603   -6710.8497   -6680.1057   -6790.5333    18455.831   0.68323699 
     850    277.81756   -6711.0961   -6680.1052   -7039.0507    18455.831   0.68429619 
     860    281.61629     -6711.52   -6680.1053    -7112.387    18455.831   0.68675849 
     870    285.63694   -6711.9688   -6680.1055   -6936.0551    18455.831    0.6904508 
     880    286.29079   -6712.0419   -6680.1057   -6480.6542    18455.831   0.69538495 
     890    281.96956   -6711.5596   -6680.1055   -6039.8274    18455.831   0.70113257 
     900    274.65893   -6710.7442   -6680.1055     -5564.23    18455.831   0.70667182 
     910    267.20366   -6709.9114   -6680.1045   -5257.3591    18455.831   0.71136984 
     920     269.3838   -6710.1555   -6680.1053    -5367.122    18455.831   0.71512054 
     930    273.08823   -6710.5689   -6680.1055   -5720.7294    18455.831   0.71853359 
     940    275.14424   -6710.7982   -6680.1055   -5917.6904    18455.831   0.72236347 
     950    276.67291   -6710.9689   -6680.1056   -5610.0935    18455.831   0.72713733 
     960    276.62748   -6710.9635   -6680.1053   -5046.3658    18455.831   0.73337224 
     970     278.3434   -6711.1556   -6680.1059   -4610.3497    18455.831   0.74121898 
     980    276.50421   -6710.9503   -6680.1058   -4305.2609    18455.831   0.75038076 
     990    274.46428   -6710.7216   -6680.1047   -4327.9119    18455.831   0.75935205 
    1000    282.87647   -6711.6614   -6680.1061   -4696.6429    18455.831   0.76641954 
    1010    286.63377   -6712.0812   -6680.1068   -4990.2699    18455.831   0.77271728 
    1020    279.06324   -6711.2352   -6680.1053   -4771.2676    18455.831   0.78024384 
    1030    275.82234   -6710.8738   -6680.1054    -4403.339    18455.831   0.78871428 
    1040    278.66942   -6711.1919   -6680.1059   -3941.2604    18455.831   0.79675694 
    1050    279.04998   -6711.2352   -6680.1068   -3356.1301    18455.831   0.80429238 
    1060    270.39607   -6710.2685   -6680.1054   -2836.7873    18455.831   0.81167046 
    1070    268.92869   -6710.1046   -6680.1052   -2775.6081    18455.831   0.81774479 
    1080    276.86697   -6710.9921   -6680.1072   -2982.0197    18455.831   0.82183502 
    1090    273.51021   -6710.6167   -6680.1062   -3002.8881    18455.831   0.82504043 
    1100    268.10286   -6710.0129   -6680.1056    -3041.916    18455.831   0.82859974 
    1110    268.86345   -6710.0983   -6680.1061   -3274.5241    18455.831   0.83307382 
    1120    271.12867   -6710.3511   -6680.1063   -3502.0504    18455.831   0.83788345 
    1130    271.41072   -6710.3825   -6680.1063   -3567.0764    18455.831   0.84210043 
    1140    271.86949   -6710.4327   -6680.1053   -3657.0206    18455.831   0.84510588 
    1150    281.86599   -6711.5491   -6680.1065   -4076.7437    18455.831    0.8468347 
    1160    288.73127   -6712.3154    -6680.107   -4317.2032    18455.831    0.8485126 
    1170    284.72713   -6711.8682   -6680.1065   -4221.6867    18455.831   0.85124425 
    1180    277.76624   -6711.0907   -6680.1055   -3786.2546    18455.831   0.85522238 
    1190    278.42764   -6711.1658   -6680.1068   -3453.5254    18455.831   0.86063272 
    1200    274.57485   -6710.7358   -6680.1066   -3135.4804    18455.831   0.86799772 
    1210    268.17301   -6710.0207   -6680.1056   -3061.7485    18455.831   0.87596914 
    1220    269.73514   -6710.1951   -6680.1058   -3498.6687    18455.831   0.88197829 
    1230    275.57277   -6710.8475    -6680.107   -3998.6686    18455.831   0.88464671 
    1240    273.28864   -6710.5919   -6680.1062   -4275.4959    18455.831   0.88485118 
    1250    269.21341   -6710.1371    -6680.106   -4301.1389    18455.831   0.88413656 
    1260    268.47841   -6710.0549   -6680.1057   -4311.1873    18455.831   0.88296339 
    1270    272.54156   -6710.5085   -6680.1061   -4356.8217    18455.831   0.88172746 
    1280    277.77621   -6711.0926   -6680.1063   -4588.2508    18455.831   0.88180594 
    1290    280.19269   -6711.3629    -6680.107   -4852.3632    18455.831   0.88389526 
    1300    274.38994   -6710.7142   -6680.1056   -4801.0391    18455.831   0.88737003 
    1310    272.68687   -6710.5248   -6680.1062   -4600.8128    18455.831   0.89133871 
    1320    273.33879   -6710.5972   -6680.1059   -4506.2257    18455.831   0.89528436 
    1330    275.86937     -6710.88   -6680.1064   -4590.7459    18455.831   0.89889495 
    1340    276.57557   -6710.9584    -6680.106   -4592.8619    18455.831   0.90245999 
    1350    276.61512   -6710.9634   -6680.1066   -4506.7758    18455.831   0.90646299 
    1360    272.26073   -6710.4771    -6680.106   -4467.2196    18455.831   0.91136845 
    1370    268.73878   -6710.0839   -6680.1057   -4589.1112    18455.831   0.91701889 
    1380    269.83102   -6710.2061    -6680.106   -4803.1401    18455.831   0.92344131 
    1390    271.01809   -6710.3391   -6680.1066   -4995.7936    18455.831   0.93117145 
    1400    266.53417   -6709.8383   -6680.1061   -4887.7324    18455.831   0.93925395 
    1410    264.34979   -6709.5941   -6680.1054   -4661.6641    18455.831   0.94440069 
    1420    271.24246   -6710.3639   -6680.1064   -4782.1646    18455.831   0.94464645 
    1430    278.14891   -6711.1341   -6680.1062   -5345.1098    18455.831   0.94130273 
    1440    284.26073    -6711.816   -6680.1063   -5956.3496    18455.831    0.9366539 
    1450    286.06102   -6712.0176    -6680.107   -6473.9841    18455.831   0.93338269 
    1460    278.13817   -6711.1322   -6680.1055    -6637.014    18455.831   0.93336514 
    1470    274.95588   -6710.7774   -6680.1057   -6848.7234    18455.831   0.93597431 
    1480    275.34081   -6710.8209   -6680.1062   -7017.9963    18455.831   0.93943367 
    1490    271.96867   -6710.4442   -6680.1057   -6827.7136    18455.831   0.94245071 
    1500    271.43894   -6710.3851   -6680.1057   -6399.8258    18455.831   0.94456699 
    1510    273.11981   -6710.5738   -6680.1069   -5919.9683    18455.831   0.94612167 
    1520    266.58025   -6709.8431   -6680.1057   -5429.0631    18455.831   0.94681802 
    1530    264.24493   -6709.5825   -6680.1056   -5386.7007    18455.831   0.94511663 
    1540    268.14703   -6710.0187   -6680.1065   -5636.8718    18455.831   0.94138542 
    1550    270.20911    -6710.248   -6680.1058   -5845.7424    18455.831   0.93815309 
    1560    276.27553   -6710.9252   -6680.1062   -5792.6983    18455.831   0.93754478 
    1570    281.48981   -6711.5074   -6680.1068   -5440.6487    18455.831   0.94039184 
    1580    279.21915   -6711.2534    -6680.106   -4999.2991    18455.831   0.94601391 
    1590     277.1071   -6711.0177    -6680.106   -4867.2447    18455.831   0.95254979 
    1600    278.30993   -6711.1519    -6680.106   -4854.7315    18455.831   0.95811089 
    1610    283.09805   -6711.6862   -6680.1062   -4922.4033    18455.831   0.96206314 
    1620    285.07138   -6711.9077   -6680.1076   -4696.0901    18455.831   0.96577017 
    1630    273.23535   -6710.5854   -6680.1056   -4246.7962    18455.831   0.97096923 
    1640     267.7179   -6709.9697   -6680.1053   -4035.6486    18455.831     0.977191 
    1650    272.52244   -6710.5064   -6680.1061   -4111.8074    18455.831   0.98346373 
    1660     277.8589   -6711.1018   -6680.1062   -4253.7363    18455.831   0.98934697 
    1670    281.07361    -6711.461   -6680.1068   -4561.0787    18455.831   0.99446833 
    1680    278.83973   -6711.2107   -6680.1057   -4801.2753    18455.831   0.99855733 
    1690    282.27607   -6711.5942   -6680.1059   -5070.8212    18455.831    1.0013333 
    1700    288.92729   -6712.3376   -6680.1074   -5075.7299    18455.831    1.0032748 
    1710    283.97303   -6711.7838   -6680.1062   -4524.3033    18455.831    1.0056492 
    1720    280.32496   -6711.3763   -6680.1056   -4088.2037    18455.831    1.0090707 
    1730    285.00962   -6711.9005   -6680.1072   -4166.6509    18455.831    1.0129097 
    1740    281.71349    -6711.532   -6680.1064   -4428.6075    18455.831    1.0162807 
    1750    277.27178   -6711.0355   -6680.1055   -4669.9286    18455.831    1.0185587 
    1760    282.23006   -6711.5895   -6680.1063   -4723.6015    18455.831    1.0199448 
    1770    285.90961   -6712.0006   -6680.1069   -4414.9618    18455.831      1.02094 
    1780    282.38129   -6711.6061    -6680.106   -3873.7091    18455.831    1.0213084 
    1790    282.44165    -6711.613   -6680.1062   -3619.8434    18455.831    1.0208436 
    1800    287.55602   -6712.1841   -6680.1067   -3726.4708    18455.831    1.0207901 
    1810    288.11308   -6712.2473   -6680.1079    -3934.633    18455.831    1.0230701 
    1820    276.98552   -6711.0034   -6680.1052    -4186.202    18455.831    1.0283135 
    1830    277.15263   -6711.0235   -6680.1067   -4345.9838    18455.831    1.0350393 
    1840    276.23823   -6710.9215   -6680.1067   -4368.7653    18455.831    1.0414724 
    1850    273.19513   -6710.5804   -6680.1051   -4416.5455    18455.831    1.0455768 
    1860    283.83055   -6711.7684   -6680.1067   -4696.8368    18455.831    1.0462471 
    1870    291.37755   -6712.6113   -6680.1077   -4729.2468    18455.831    1.0448258 
    1880    283.33807   -6711.7134   -6680.1066   -4658.1696    18455.831    1.0428769 
    1890    273.10669    -6710.571   -6680.1055   -4806.2478    18455.831     1.040683 
    1900    272.25017   -6710.4761   -6680.1062   -4992.1727    18455.831    1.0384095 
    1910    274.11365   -6710.6842   -6680.1065    -4851.611    18455.831    1.0367748 
    1920     274.3815    -6710.714   -6680.1064   -4374.9654    18455.831    1.0362621 
    1930    273.80361   -6710.6496   -6680.1064   -3953.3671    18455.831    1.0369737 
    1940    273.81216   -6710.6506   -6680.1064   -3660.7249    18455.831     1.038631 
    1950     274.0972   -6710.6826   -6680.1067   -3555.6748    18455.831    1.0408007 
    1960     275.1804   -6710.8028    -6680.106   -3995.0323    18455.831    1.0431217 
    1970    281.99645   -6711.5638   -6680.1067   -4818.7611    18455.831    1.0450424 
    1980     287.0536   -6712.1285   -6680.1072   -5430.2829    18455.831    1.0464652 
    1990    282.90097   -6711.6645   -6680.1064   -5324.8363    18455.831    1.0478613 
    2000    278.29624   -6711.1501   -6680.1058   -5003.2499    18455.831    1.0492005 
Loop time of 1499.07 on 16 procs for 2000 steps with 864 atoms

Performance: 0.115 ns/day, 208.204 hours/ns, 1.334 timesteps/s
97.2% CPU use with 16 MPI tasks x 1 OpenMP threads

MPI task timing breakdown:
Section |  min time  |  avg time  |  max time  |%varavg| %total
---------------------------------------------------------------
Pair    | 670.56     | 1118.5     | 1485       | 564.3 | 74.61
Bond    | 0.0001502  | 0.00063223 | 0.0010943  |   0.0 |  0.00
Neigh   | 0.019165   | 0.030584   | 0.049955   |   3.9 |  0.00
Comm    | 12.056     | 338.17     | 785.46     | 966.9 | 22.56
Output  | 1.033      | 23.928     | 55.231     | 425.5 |  1.60
Modify  | 0.009938   | 0.011647   | 0.015046   |   1.6 |  0.00
Other   |            | 18.43      |            |       |  1.23

Nlocal:        54.0000 ave          86 max          35 min
Histogram: 1 1 3 7 2 1 0 0 0 1
Nghost:        537.750 ave         662 max         448 min
Histogram: 3 1 1 5 0 0 3 1 1 1
Neighs:         0.00000 ave           0 max           0 min
Histogram: 16 0 0 0 0 0 0 0 0 0
FullNghs:      2646.75 ave        5387 max        1216 min
Histogram: 2 2 3 4 3 1 0 0 0 1

Total # of neighbors = 42348
Ave neighs/atom = 49.013889
Ave special neighs/atom = 0.0000000
Neighbor list builds = 199
Dangerous builds = 198
unfix   1

velocity    all create 675.0 1312343 dist gaussian
fix     2 all npt temp 675.0 675.0 $(100.0*dt) aniso 0.0 1.01325 $(1000.0*dt)
fix     2 all npt temp 675.0 675.0 0.10000000000000000555 aniso 0.0 1.01325 $(1000.0*dt)
fix     2 all npt temp 675.0 675.0 0.10000000000000000555 aniso 0.0 1.01325 1
run     3000
Per MPI rank memory allocation (min/avg/max) = 8.897 | 8.909 | 8.917 Mbytes
Step Temp PotEng TotEng Press Volume c_msd[4] 
    2000          675   -6711.1501   -6635.8529   -2442.1457    18455.831    1.0492005 
    2010    603.81783   -6703.1882   -6635.8314   -793.98946    18454.458    1.0530206 
    2020    500.60846   -6691.5231   -6635.6795    1553.8898     18452.14    1.0625431 
    2030    472.53919   -6688.0008   -6635.2884    1974.2259    18451.567    1.0710014 
    2040    461.78074   -6686.1183    -6634.606    1653.3263     18453.43    1.0793203 
    2050    445.89154   -6683.4668   -6633.7269     1550.051    18457.438     1.087786 
    2060    455.04823   -6683.5708   -6632.8095    1089.7111    18463.375    1.0950331 
    2070    472.81786   -6684.6978   -6631.9543    826.48254    18470.721    1.1018944 
    2080    480.97569   -6684.8241   -6631.1705    1228.1342    18479.233    1.1089127 
    2090    484.04711   -6684.3808   -6630.3846     1196.323    18489.287    1.1149868 
    2100    506.66527   -6686.0448   -6629.5256    289.92887    18500.802    1.1195718 
    2110    537.70753   -6688.5335   -6628.5514   -852.20091    18512.693    1.1246384 
    2120    523.47865   -6685.9185   -6627.5237   -724.88516    18523.667    1.1319235 
    2130     494.1636   -6681.6351   -6626.5104    352.12836    18533.863    1.1386431 
    2140    500.98334    -6681.352   -6625.4666    768.65823    18544.462    1.1428259 
    2150    502.04779   -6680.3689   -6624.3647    466.52702    18556.011    1.1464542 
    2160    509.26136   -6680.0501   -6623.2412   -382.21741    18568.154    1.1508318 
    2170    527.32289   -6680.9015   -6622.0778   -1149.6848    18579.876    1.1560193 
    2180    528.83536   -6679.8937   -6620.9013   -1162.0112    18590.257    1.1617562 
    2190    523.18701   -6678.1015   -6619.7392   -825.55396    18599.229    1.1671023 
    2200    533.48924   -6678.0778   -6618.5663   -822.01929     18607.14    1.1716015 
    2210    545.08087   -6678.1654   -6617.3608   -1151.0752    18613.993    1.1760134 
    2220    543.82459   -6676.8153   -6616.1509   -1400.4996    18619.414    1.1806482 
    2230    547.33636   -6676.0034   -6614.9472   -1695.8652    18623.061    1.1836325 
    2240    561.18587   -6676.3319   -6613.7308   -2046.7684    18624.536    1.1824599 
    2250    561.03794    -6675.098   -6612.5134   -2222.0556    18623.401    1.1781211 
    2260    564.78664   -6674.3107   -6611.3079    -2033.064    18619.438    1.1732622 
    2270    573.96433   -6674.1224   -6610.0958   -1331.6633    18612.888    1.1708807 
    2280    574.49695   -6672.9634   -6608.8774   -320.54716    18604.612    1.1720284 
    2290    581.02988   -6672.4756   -6607.6609    673.45817    18595.877    1.1742743 
    2300    595.73293   -6672.8848   -6606.4298    1486.2702    18587.953    1.1758265 
    2310    606.80674   -6672.8932    -6605.203      1837.22    18581.847    1.1775778 
    2320    607.62376   -6671.7857   -6604.0043    1671.9074    18578.026    1.1800974 
    2330    612.33355   -6671.1443   -6602.8376    761.73446    18576.245    1.1839332 
    2340    614.16233   -6670.1994   -6601.6887   -57.279361    18575.466    1.1906634 
    2350    609.86763   -6668.5849   -6600.5532   -676.05899     18574.62    1.1987084 
    2360    626.31264   -6669.2858   -6599.4197   -876.62061    18572.944    1.2045979 
    2370    641.94339   -6669.8929   -6598.2831   -731.18588    18570.179     1.209179 
    2380    635.59805   -6668.0903   -6597.1883   -815.99103    18566.432    1.2149955 
    2390    636.21015   -6667.1028   -6596.1326   -801.06586    18561.631    1.2220028 
    2400    626.37494   -6664.9561    -6595.083    252.14508    18555.908    1.2300227 
    2410    625.52845   -6663.8106    -6594.032    1129.6346    18550.464    1.2385523 
    2420    649.30752   -6665.3845   -6592.9532    803.69453    18546.303    1.2482848 
    2430    653.14304    -6664.738   -6591.8789    302.38225    18543.148    1.2606628 
    2440    656.88303   -6664.1274   -6590.8511   -169.44469    18540.361    1.2718279 
    2450    658.95893   -6663.3648    -6589.857   -86.338132    18537.418    1.2790723 
    2460    671.66023   -6663.8168    -6588.892    134.23676    18534.356    1.2846153 
    2470    693.73153   -6665.3446   -6587.9578    487.28209    18531.493     1.291887 
    2480    693.28866   -6664.4372   -6587.0998    639.41909    18529.222    1.3028956 
    2490     681.8478   -6662.3967   -6586.3356    742.36146    18527.768    1.3185499 
    2500    677.84715   -6661.2445   -6585.6296    746.17086    18527.258    1.3379629 
    2510    676.12496   -6660.3775   -6584.9547    700.22696    18527.708    1.3569421 
    2520    671.00495   -6659.1563   -6584.3046    584.50783    18529.075     1.371677 
    2530    667.18027   -6658.0916   -6583.6666    105.23861     18531.17    1.3820273 
    2540    687.58089   -6659.7266   -6583.0259     -416.173    18533.419      1.39203 
    2550     696.2336   -6660.0731   -6582.4072   -11.017951    18535.254     1.405997 
    2560    680.83061   -6657.7925   -6581.8449    1319.1893    18537.197    1.4241313 
    2570    680.04724   -6657.1901   -6581.3298    2541.1451    18540.844    1.4438402 
    2580    683.10165   -6657.0424   -6580.8414    3139.8908    18547.721    1.4632124 
    2590      681.757   -6656.4381   -6580.3871    3078.3105    18558.621    1.4801074 
    2600    680.15066   -6655.8278   -6579.9559    2265.2334    18573.479    1.4948676 
    2610    682.84758   -6655.7076   -6579.5349      1108.15    18591.347    1.5092604 
    2620    707.90534   -6658.0933   -6579.1254   -174.27474    18610.772    1.5249528 
    2630    700.69276   -6656.9257   -6578.7624   -661.22481    18630.215    1.5437006 
    2640    669.86515    -6653.186   -6578.4615   -109.08664    18649.089    1.5644593 
    2650    662.87888   -6652.1257   -6578.1805    545.40306    18667.978    1.5835815 
    2660    669.87038   -6652.6015   -6577.8764    420.02301    18687.642    1.5974844 
    2670    684.04892   -6653.8573   -6577.5506   -614.22808    18707.895    1.6039269 
    2680    690.92405   -6654.3007    -6577.227   -1423.9366    18727.544    1.6040398 
    2690    702.53844   -6655.3022    -6576.933   -2000.7429    18745.494    1.6017323 
    2700    701.58268   -6654.9592   -6576.6966   -2120.1069    18761.004    1.6008705 
    2710    682.49533   -6652.6461   -6576.5128   -2329.7956    18773.833    1.6016071 
    2720    697.92185   -6654.2208   -6576.3666    -3307.429    18783.597    1.6024558 
    2730     697.4729   -6654.0691   -6576.2649   -3584.9148    18789.186    1.6060298 
    2740    678.66674   -6651.9238   -6576.2175   -3201.7755     18790.16    1.6144743 
    2750    680.89831   -6652.1507   -6576.1955   -3478.8366    18786.824    1.6280095 
    2760    697.25205   -6653.9833   -6576.2038    -3843.622    18778.873    1.6458462 
    2770    698.02259   -6654.1319   -6576.2664   -3195.2484    18765.942    1.6647826 
    2780    694.65636   -6653.8728   -6576.3828   -2337.2774    18748.759    1.6804695 
    2790    695.59984   -6654.1446   -6576.5494   -2173.7321    18728.306    1.6923749 
    2800    696.11643   -6654.4197   -6576.7669   -2117.9385    18704.861    1.7033259 
    2810    694.70097   -6654.5328   -6577.0379   -1594.1234    18678.543    1.7171486 
    2820     682.0744   -6653.4161   -6577.3297   -403.07552    18650.087    1.7349643 
    2830    686.56773     -6654.22   -6577.6323   -90.822812    18620.809    1.7534959 
    2840    683.06267   -6654.1473   -6577.9506    269.31435    18591.265    1.7709739 
    2850    672.47405   -6653.2863   -6578.2708     650.7517    18561.901    1.7870571 
    2860    676.19862   -6654.0128   -6578.5818    923.21904    18533.225    1.8031832 
    2870    687.41202   -6655.5831   -6578.9012    1246.3619    18505.613    1.8237865 
    2880    673.50801   -6654.3599   -6579.2291    2145.7297    18479.562     1.850931 
    2890    662.87092   -6653.4814   -6579.5372    2879.1729    18456.121    1.8799858 
    2900    670.29551   -6654.5979   -6579.8254    3127.2041    18436.193    1.9069291 
    2910    679.50292   -6655.9057   -6580.1061    2844.0052    18420.096    1.9296213 
    2920    695.24178    -6657.977   -6580.4218    2038.4285    18407.451    1.9466014 
    2930    683.05186   -6656.9699   -6580.7745    1846.5157     18397.41    1.9597017 
    2940    677.47332   -6656.7262    -6581.153    1870.6876    18389.673    1.9709512 
    2950    668.26971   -6656.0696   -6581.5231    2051.4567    18384.293    1.9812919 
    2960    681.65534    -6657.935   -6581.8953    1778.1321    18381.428    1.9900935 
    2970    681.32264   -6658.2809   -6582.2783    1273.0189    18380.755    2.0002111 
    2980    673.25227   -6657.7713    -6582.669    1236.1563    18381.733    2.0124747 
    2990    668.91789   -6657.6724   -6583.0536    1709.8892    18384.342    2.0256336 
    3000    667.58689    -6657.897   -6583.4267    2417.3096    18389.178    2.0390849 
    3010    668.78668   -6658.3928   -6583.7886    2515.2283    18397.036    2.0497263 
    3020    683.57404    -6660.404   -6584.1502    2105.4669      18408.1    2.0553465 
    3030     685.0583   -6660.9449   -6584.5256    1719.9998     18421.94    2.0601187 
    3040    672.10631   -6659.8881   -6584.9136    1636.3567    18438.154    2.0680183 
    3050    661.94438   -6659.1309   -6585.2901    1481.3645    18456.611    2.0784431 
    3060    664.24194   -6659.7364   -6585.6392    1065.7561    18477.109    2.0891114 
    3070    657.43016   -6659.2903    -6585.953    669.54316    18499.192     2.097777 
    3080    654.29611   -6659.2133   -6586.2256    105.95543    18522.334    2.1019785 
    3090     646.7654   -6658.5932   -6586.4455   -200.12353    18545.876    2.1019347 
    3100    636.94422   -6657.6493   -6586.5972    -401.1036    18569.409    2.0984389 
    3110    645.30828   -6658.6595   -6586.6744   -886.72161    18592.612    2.0913884 
    3120    641.77504   -6658.2688   -6586.6778   -1100.4347    18614.924    2.0834887 
    3130    637.85142   -6657.7641   -6586.6109   -1167.3488     18636.03    2.0777663 
    3140    640.18615    -6657.879   -6586.4652   -1275.6667    18655.796    2.0761075 
    3150    639.80722   -6657.6191   -6586.2477   -366.45197    18674.212    2.0784539 
    3160    641.42019    -6657.518   -6585.9666    508.34911    18692.294    2.0830218 
    3170    658.40774   -6659.0664     -6585.62    176.15023    18711.036     2.087015 
    3180      665.863   -6659.4904   -6585.2124   -350.05022    18730.151    2.0895721 
    3190     659.6642   -6658.3662   -6584.7797   -421.57618    18749.016    2.0888682 
    3200    652.03355   -6657.0596   -6584.3242   -362.44457    18767.485    2.0829598 
    3210    653.09454   -6656.6888   -6583.8351   -615.57584    18785.566    2.0726519 
    3220    664.19409   -6657.4007   -6583.3089   -894.58189    18802.962    2.0619649 
    3230    667.13426   -6657.1847   -6582.7649   -955.73163    18819.311      2.05492 
    3240    669.98925   -6656.9633    -6582.225   -816.24589    18834.522    2.0505337 
    3250    672.08093   -6656.6626    -6581.691    -878.8471    18848.709    2.0443986 
    3260    666.65169     -6655.53    -6581.164    -898.2754    18861.831     2.034098 
    3270    650.38558   -6653.1829   -6580.6314   -704.05977    18873.863    2.0219244 
    3280    644.72307   -6651.9939   -6580.0741   -1223.0092      18884.9    2.0108866 
    3290    652.32016   -6652.2311   -6579.4638   -2240.6453    18894.284    2.0046699 
    3300    658.64702   -6652.2888   -6578.8157   -2943.8356    18900.757    2.0044723 
    3310    664.35892   -6652.2722    -6578.162   -3266.4346    18903.369    2.0065965 
    3320    679.70594   -6653.3459   -6577.5236   -2932.3253    18901.728    2.0090109 
    3330    694.65857   -6654.4214   -6576.9312   -2039.9797    18896.248    2.0122144 
    3340     685.6408   -6652.8921   -6576.4079   -607.47195    18888.131    2.0150013 
    3350    680.59591   -6651.8693   -6575.9478    365.63212    18879.157    2.0154577 
    3360    680.76281   -6651.4554   -6575.5153    617.33506    18870.614    2.0148656 
    3370    691.57308   -6652.2508   -6575.1048   -63.159061    18862.779    2.0146084 
    3380     690.6466   -6651.7641   -6574.7214   -735.78919    18854.909    2.0148643 
    3390    695.27346   -6651.9423   -6574.3835   -1403.5234    18846.089    2.0148547 
    3400    686.89076   -6650.7129   -6574.0892   -1378.4559     18835.52    2.0153014 
    3410    684.35718   -6650.1592   -6573.8181   -485.91152    18823.265    2.0157117 
    3420    705.62022   -6652.2812   -6573.5682    490.91869    18810.444    2.0149995 
    3430    718.58586   -6653.5383    -6573.379    1061.9048    18798.276    2.0144952 
    3440    704.88363    -6651.915   -6573.2842    1528.4009    18787.533     2.014482 
    3450    700.31388   -6651.3808   -6573.2597    1966.9071    18778.831    2.0136488 
    3460    712.34292   -6652.7666   -6573.3037     2060.516    18772.703    2.0143674 
    3470    704.83851   -6652.0538    -6573.428    2115.2124    18769.318    2.0190369 
    3480    700.03541   -6651.7211   -6573.6311    1463.6834    18768.623    2.0250443 
    3490     713.2925   -6653.4651   -6573.8962    612.19103    18769.846     2.029234 
    3500    719.85796   -6654.5551   -6574.2539    26.714922    18771.891    2.0316201 
    3510    710.85607   -6654.0184   -6574.7213   -45.066007    18774.014    2.0325646 
    3520    695.94695   -6652.8925   -6575.2586     259.9916    18776.139    2.0331241 
    3530    699.16507    -6653.838   -6575.8451    439.06108    18778.563    2.0343527 
    3540    682.13202   -6652.5444   -6576.4515    1562.5049    18781.687    2.0383572 
    3550    667.67358   -6651.5139   -6577.0339    2462.8702    18786.813    2.0441578 
    3560     687.0984    -6654.238   -6577.5911    1969.5274    18794.983    2.0485302 
    3570    698.46114   -6656.0695   -6578.1551    1037.6615    18805.664    2.0520362 
    3580    678.90794   -6654.4543   -6578.7211    793.13412    18817.737    2.0575063 
    3590    674.09747    -6654.455   -6579.2584    980.28129    18830.878    2.0656385 
    3600    677.89985   -6655.3893   -6579.7686    333.21674    18845.147    2.0752866 
    3610    670.21681   -6655.0067    -6580.243   -872.80866    18859.732    2.0856151 
    3620    671.77337   -6655.6172   -6580.6798   -1808.3073    18873.141    2.0953543 
    3630    664.94834   -6655.2614   -6581.0854   -2186.1082    18884.142    2.1034636 
    3640    648.94743   -6653.8354   -6581.4443   -1954.8969    18892.278    2.1101286 
    3650     639.0926   -6653.0306   -6581.7389   -1974.3163    18897.748    2.1148692 
    3660    640.82595   -6653.4411    -6581.956   -2403.0825    18900.524    2.1183064 
    3670    649.64891   -6654.5706   -6582.1013   -3089.6344    18900.072     2.122011 
    3680    666.71944   -6656.5813   -6582.2078   -3927.9185    18895.501    2.1267202 
    3690    675.18284   -6657.6317    -6582.314   -4024.3378    18885.871    2.1329967 
    3700    671.86877    -6657.386   -6582.4381   -3676.8219    18871.035    2.1392522 
    3710    662.64643   -6656.4885   -6582.5693   -3161.1173    18851.483    2.1436948 
    3720    652.18879   -6655.4333   -6582.6806   -2870.4866    18827.884    2.1460574 
    3730    647.06028   -6654.9201   -6582.7396   -2113.0309    18800.783    2.1469546 
    3740    656.41618   -6655.9461   -6582.7219   -917.52267    18771.239     2.147674 
    3750    658.43917    -6656.084   -6582.6341    351.93041    18740.819    2.1484475 
    3760    633.61934   -6653.1509   -6582.4697     1897.786    18711.265    2.1493892 
    3770    654.06395   -6655.1872   -6582.2254    2492.2987    18684.431    2.1504764 
    3780    683.87265    -6658.206   -6581.9189    2772.9532    18661.174    2.1541798 
    3790     680.7118   -6657.5365    -6581.602    3402.0771    18641.881    2.1625864 
    3800    653.51821   -6654.1829   -6581.2819    4027.9641     18627.27    2.1743101 
    3810    638.01496   -6652.1099   -6580.9384    3674.9487     18617.96    2.1866225 
    3820    646.63499   -6652.6745   -6580.5414    2676.3095    18613.431    2.1988633 
    3830    652.92143   -6652.9139   -6580.0795    2223.6837    18612.482    2.2110672 
    3840    678.03493   -6655.2206   -6579.5848    1603.8706    18614.363    2.2205227 
    3850    700.32575   -6657.2072   -6579.0848     1062.915    18618.261    2.2273753 
    3860    703.21179   -6657.0818   -6578.6375    1113.2309    18623.516    2.2348878 
    3870    706.50038   -6657.0933   -6578.2821    1206.6207    18630.087    2.2448278 
    3880    679.61257   -6653.8271   -6578.0153    1560.8197    18638.075    2.2579607 
    3890    672.35402   -6652.7975   -6577.7954    1524.9598    18647.842    2.2733015 
    3900    699.83969   -6655.6472   -6577.5791    91.797218    18659.157    2.2913242 
    3910    700.38039   -6655.5205    -6577.392   -964.86532    18670.351    2.3125758 
    3920     667.1933   -6651.6787   -6577.2523   -753.15403    18680.189    2.3338236 
    3930    672.74189   -6652.1691   -6577.1237   -748.75572    18688.769    2.3493806 
    3940    677.21635   -6652.5273   -6576.9828    -863.4325    18696.138    2.3610531 
    3950    659.37256   -6650.3897   -6576.8357   -879.09903    18702.209    2.3735049 
    3960    661.81908   -6650.4879    -6576.661    -1055.175    18706.961    2.3875148 
    3970     689.6795   -6653.3949   -6576.4601   -1426.9057      18710.2    2.4016934 
    3980    699.05979   -6654.2529   -6576.2717   -1439.9974    18711.553    2.4152141 
    3990    695.91178   -6653.7559   -6576.1259   -864.31474    18711.082     2.428011 
    4000    702.59895   -6654.4074   -6576.0314   -194.66956    18709.529    2.4388367 
    4010    689.49971   -6652.9006   -6575.9858     327.6098    18707.779    2.4480845 
    4020    691.77357    -6653.156   -6575.9876    113.13141    18706.442    2.4593297 
    4030    691.65583   -6653.1884   -6576.0332   -215.68365    18705.299    2.4782365 
    4040    662.67861   -6650.0342   -6576.1114    267.76905    18704.034    2.5056045 
    4050    637.27222   -6647.2546   -6576.1659    720.97645    18703.158    2.5379546 
    4060    639.04002   -6647.4286   -6576.1428    644.38127    18703.182    2.5720099 
    4070    659.62588   -6649.6217   -6576.0394    296.89006    18704.006    2.6027989 
    4080     666.4205   -6650.2143   -6575.8741    91.136023    18705.211    2.6276004 
    4090    687.53941     -6652.37   -6575.6739   -76.343184     18706.48    2.6454404 
    4100    692.95783   -6652.7704   -6575.4699    298.24903    18707.675    2.6604758 
    4110    660.85926   -6648.9885   -6575.2687    884.13423     18709.25    2.6758145 
    4120    671.66173   -6649.9609   -6575.0361   -22.188157    18711.734     2.691301 
    4130    704.74881   -6653.3743   -6574.7585   -1411.9879    18714.067    2.7091187 
    4140    701.45278   -6652.7428   -6574.4947   -1633.3129    18714.674    2.7282702 
    4150    694.17124   -6651.7103   -6574.2745   -1300.8342    18713.234    2.7451701 
    4160    677.19202   -6649.6077   -6574.0659   -637.50129     18710.22    2.7584398 
    4170    666.66208   -6648.2091   -6573.8419    105.91311    18706.488    2.7683986 
    4180    657.52159   -6646.9121   -6573.5646    458.59812     18702.96    2.7767803 
    4190    678.33053   -6648.8945   -6573.2257    -241.4762    18699.988    2.7836389 
    4200    705.66436   -6651.5642   -6572.8463   -1299.1813     18696.75    2.7915963 
    4210     704.7704   -6651.1074   -6572.4892   -1592.4375     18692.01    2.8034008 
    4220    690.38281   -6649.1947   -6572.1815   -719.35523    18685.488    2.8139663 
    4230    692.20008   -6649.1075   -6571.8915    404.52305    18678.251    2.8159518 
    4240    710.72874   -6650.9031   -6571.6203    1201.3177     18671.69    2.8108103 
    4250    716.33399   -6651.3067   -6571.3985    1792.4172    18666.812    2.8075337 
    4260    710.15123   -6650.4735    -6571.255    2471.1395    18664.371    2.8111336 
    4270    709.70093   -6650.3609   -6571.1927    2732.3383    18665.102    2.8193032 
    4280     716.5026   -6651.1374   -6571.2105    2256.8202    18669.246    2.8281312 
    4290    719.57394   -6651.5977   -6571.3281    1278.0427    18676.136    2.8358972 
    4300     714.8032   -6651.2995   -6571.5621    451.58486    18684.549     2.844342 
    4310    709.26766   -6651.0426   -6571.9228    -232.2154    18693.367    2.8542516 
    4320    671.86736   -6647.3192   -6572.3714   -241.61309    18701.772    2.8642658 
    4330    659.49283   -6646.4119   -6572.8445   -312.54773     18709.66    2.8723943 
    4340    676.10849   -6648.7454   -6573.3245    -803.7905    18716.925    2.8780568 
    4350    689.42336   -6650.7319   -6573.8257    -1359.953    18723.006    2.8840832 
    4360    683.80542   -6650.6381   -6574.3586   -1820.3123    18727.224    2.8930081 
    4370    674.08687   -6650.0957   -6574.9003   -2214.9797        18729     2.903003 
    4380    662.10321   -6649.2829   -6575.4243   -1951.7587    18727.975    2.9117486 
    4390    661.44817   -6649.6848   -6575.8993   -1344.8759    18724.505    2.9165511 
    4400    681.68208   -6652.3791   -6576.3365   -1226.1667    18719.312    2.9188785 
    4410    680.60634   -6652.6822   -6576.7595   -1039.8666    18712.656    2.9266532 
    4420    661.27583   -6650.9047   -6577.1384   -102.98864    18704.887    2.9413162 
    4430     667.0894   -6651.8671   -6577.4523    806.49477    18697.136    2.9575076 
    4440    660.94168   -6651.4313   -6577.7023    1182.3804    18690.521    2.9707746 
    4450    656.16108   -6651.0894   -6577.8936    1049.0613     18685.51    2.9777135 
    4460    669.69011   -6652.7423   -6578.0374    730.37597    18681.918    2.9795809 
    4470    665.37786   -6652.3719    -6578.148    761.75421    18679.378    2.9790692 
    4480     652.1982   -6650.9808   -6578.2271    825.13766    18677.865    2.9781815 
    4490    652.23512   -6651.0183   -6578.2605    871.50457    18677.451    2.9804514 
    4500    659.36959   -6651.7993   -6578.2457    803.66727    18678.157    2.9877863 
    4510    671.80901   -6653.1446   -6578.2033    924.81574    18679.917    3.0004203 
    4520    680.35668   -6654.0495   -6578.1547    1057.5787    18682.861    3.0206319 
    4530    688.59737   -6654.9389   -6578.1248    834.31738    18687.071     3.046715 
    4540    671.96097   -6653.0771   -6578.1189    1186.9972    18692.378    3.0734154 
    4550    662.13063   -6651.9698   -6578.1081    1263.9138    18699.141    3.0938268 
    4560    689.54922   -6655.0123    -6578.092     545.5675    18707.355    3.1055057 
    4570    676.27919   -6653.5218   -6578.0818    465.54955     18716.28    3.1133416 
    4580    674.05727   -6653.2791    -6578.087    262.04775    18725.701    3.1177615 
    4590     671.7827   -6653.0238   -6578.0855    5.4025186     18735.37    3.1191935 
    4600    670.97435   -6652.9237   -6578.0755   -146.42065     18744.98    3.1212555 
    4610    683.43351   -6654.3004   -6578.0624   -483.19273    18754.283    3.1270819 
    4620    667.53664   -6652.5222   -6578.0575   -22.942363    18762.976    3.1371508 
    4630    650.53231   -6650.6063   -6578.0385    380.95854    18771.563    3.1471186 
    4640    675.93563   -6653.3879   -6577.9862   -541.19378    18780.403    3.1546068 
    4650    678.13914   -6653.5553   -6577.9079   -1524.0438    18788.459    3.1634817 
    4660    667.85295   -6652.3323   -6577.8323   -1872.7743    18794.532    3.1766098 
    4670    655.76977    -6650.888   -6577.7359   -1645.6359     18798.17    3.1914646 
    4680    660.94177   -6651.3248   -6577.5957   -1044.1853    18799.679    3.2024832 
    4690    675.39214   -6652.7491    -6577.408   -712.74597    18799.779    3.2070829 
    4700    678.61598   -6652.8814   -6577.1808   -595.97419    18798.908    3.2078783 
    4710     681.8517   -6652.9706    -6576.909   -407.29657    18797.315    3.2085406 
    4720    698.38086   -6654.4966   -6576.5912   -616.63866    18795.153    3.2143737 
    4730    701.58386   -6654.5037   -6576.2409   -232.74168     18792.27    3.2298883 
    4740    687.07662   -6652.5088   -6575.8644    771.33642    18789.177    3.2525671 
    4750    677.30884   -6650.9927   -6575.4379    1379.5526    18787.057    3.2743775 
    4760    670.88647   -6649.7604    -6574.922    1520.6566    18786.733    3.2898516 
    4770    681.67566   -6650.3509    -6574.309    1151.3302    18788.331    3.2987218 
    4780    684.34631   -6649.9523   -6573.6124    823.01479    18791.443    3.3046222 
    4790    686.23482   -6649.4326   -6572.8821    95.458384    18795.566    3.3107885 
    4800    689.02281    -6649.017   -6572.1555   -535.86256    18799.812    3.3179542 
    4810    702.37394   -6649.8194   -6571.4686    -839.0809    18803.375    3.3246543 
    4820    708.89636   -6649.9429   -6570.8644   -873.47475    18805.872    3.3320828 
    4830    712.41147    -6649.851   -6570.3804    -833.7178    18807.228    3.3405958 
    4840    703.30607   -6648.4722   -6570.0173   -207.87977    18807.549    3.3490081 
    4850    683.17196   -6645.9599   -6569.7511    1070.5391    18807.698    3.3597296 
    4860    678.10707   -6645.1769   -6569.5331    1506.4649    18809.162    3.3768795 
    4870    706.31867   -6648.1378   -6569.3469     440.6967    18812.416    3.4012841 
    4880    722.43723    -6649.824    -6569.235   -544.80503     18816.26     3.432204 
    4890     689.0861    -6646.087   -6569.2184   -407.39505    18819.522    3.4649208 
    4900    679.64906   -6645.0661   -6569.2502   -25.041898    18822.273    3.4888917 
    4910    696.19177    -6646.962   -6569.3008      157.295    18824.957    3.5025812 
    4920    696.63402   -6647.1032   -6569.3926   -11.208414    18827.792    3.5114137 
    4930    691.35255   -6646.6519   -6569.5305   -441.10524    18830.591    3.5185261 
    4940    697.98167   -6647.5748   -6569.7139   -747.16582    18832.826    3.5252144 
    4950    697.47083    -6647.753   -6569.9491   -956.32821    18834.087    3.5335062 
    4960    690.60154   -6647.2741   -6570.2365   -835.20404    18834.136    3.5444165 
    4970    685.94882   -6647.0797   -6570.5611   -592.70902    18833.105    3.5556317 
    4980    681.46822   -6646.9266   -6570.9078   -492.06918    18831.275    3.5651836 
    4990    685.92164   -6647.7924   -6571.2768   -736.38253    18828.761    3.5745322 
    5000    683.65474   -6647.9324   -6571.6697   -965.40374    18825.292    3.5854553 
Loop time of 2441.91 on 16 procs for 3000 steps with 864 atoms

Performance: 0.106 ns/day, 226.102 hours/ns, 1.229 timesteps/s
97.1% CPU use with 16 MPI tasks x 1 OpenMP threads

MPI task timing breakdown:
Section |  min time  |  avg time  |  max time  |%varavg| %total
---------------------------------------------------------------
Pair    | 1482.3     | 2049.3     | 2346.6     | 540.9 | 83.92
Bond    | 0.00031662 | 0.0010932  | 0.0024879  |   1.7 |  0.00
Neigh   | 0.032844   | 0.044298   | 0.058585   |   3.5 |  0.00
Comm    | 58.226     | 286.65     | 901.99     |1471.9 | 11.74
Output  | 0.24732    | 0.26069    | 0.45997    |  10.1 |  0.01
Modify  | 26.923     | 105.62     | 172.27     | 578.5 |  4.33
Other   |            | 0.01744    |            |       |  0.00

Nlocal:        54.0000 ave          72 max          43 min
Histogram: 1 3 4 2 1 0 4 0 0 1
Nghost:        540.688 ave         674 max         481 min
Histogram: 2 6 3 1 0 2 0 0 0 2
Neighs:         0.00000 ave           0 max           0 min
Histogram: 16 0 0 0 0 0 0 0 0 0
FullNghs:      2527.38 ave        3734 max        1725 min
Histogram: 2 5 0 3 0 2 1 1 0 2

Total # of neighbors = 40438
Ave neighs/atom = 46.803241
Ave special neighs/atom = 0.0000000
Neighbor list builds = 300
Dangerous builds = 300
unfix   2

fix     3 all npt temp 675.0 675.0 $(100.0*dt) aniso 1.01325 1.01325 $(1000.0*dt)
fix     3 all npt temp 675.0 675.0 0.10000000000000000555 aniso 1.01325 1.01325 $(1000.0*dt)
fix     3 all npt temp 675.0 675.0 0.10000000000000000555 aniso 1.01325 1.01325 1
run     20000
Per MPI rank memory allocation (min/avg/max) = 8.904 | 8.910 | 8.917 Mbytes
Step Temp PotEng TotEng Press Volume c_msd[4] 
    5000    683.65474   -6647.9324   -6571.6697   -965.40374    18825.292    3.5854553 
    5010    693.70277   -6649.0681   -6571.6845   -1023.7064    18824.637    3.5979326 
    5020    691.42008   -6648.8689   -6571.7399   -846.94363    18822.657    3.6093515 
    5030    674.52033   -6647.0708    -6571.827    -527.1424    18819.596    3.6172785 
    5040    682.19138   -6648.0323   -6571.9328   -784.31615    18815.757    3.6192222 
    5050    679.32102   -6647.8349   -6572.0556   -709.47963    18810.933    3.6171559 
    5060    666.90609   -6646.5802   -6572.1858   -618.98623    18805.191    3.6140216 
    5070    675.75263   -6647.6956   -6572.3144   -1454.2865    18798.518    3.6117237 
    5080    691.29062   -6649.5813   -6572.4668   -2521.5502    18789.889    3.6105992 
    5090    691.79296   -6649.8494   -6572.6788   -2981.7379    18778.007     3.609364 
    5100     680.6908    -6648.886    -6572.954   -2623.7289    18762.298    3.6053471 
    5110    669.74925   -6647.9779   -6573.2663   -2306.7794    18743.126    3.5962634 
    5120    667.99044   -6648.1153      -6573.6   -2359.1216    18720.894    3.5833022 
    5130    671.71519   -6648.8969   -6573.9661   -1969.1666    18695.656    3.5701491 
    5140    669.32562   -6649.0214   -6574.3571   -1096.4856    18667.937    3.5584276 
    5150    682.50619   -6650.9192   -6574.7846   -627.10982    18638.786    3.5500746 
    5160     677.5819   -6650.8491   -6575.2638    140.93433    18608.951    3.5491656 
    5170    666.82885    -6650.157   -6575.7713    1129.4402    18579.438    3.5545393 
    5180    685.29207   -6652.7632   -6576.3178    1157.5029    18551.378     3.561982 
    5190    692.14137   -6654.1544    -6576.945    1141.2093    18524.944    3.5741599 
    5200    665.36262    -6651.831   -6577.6088    1898.1809    18500.217    3.5947293 
    5210    641.29169    -6649.757   -6578.2199    2670.0056    18478.058    3.6210175 
    5220    645.13594   -6650.6956   -6578.7297    2842.4244    18459.368    3.6478449 
    5230    664.74417   -6653.3178   -6579.1646    2644.1159    18444.382    3.6706143 
    5240    674.68801   -6654.8187   -6579.5562    2256.2058    18432.829    3.6866731 
    5250    673.17632   -6655.0126   -6579.9187    2018.7062    18424.226    3.6979936 
    5260    659.91489   -6653.8472   -6580.2327    1988.2106    18418.256    3.7104429 
    5270    650.41444   -6653.0252   -6580.4704    1996.6603    18414.842    3.7257578 
    5280    654.08037   -6653.6003   -6580.6366    2138.9295    18413.994    3.7414538 
    5290    655.39658   -6653.8548   -6580.7443     2298.685    18415.854    3.7555642 
    5300    653.38778   -6653.6969   -6580.8105    2340.1883    18420.592    3.7676315 
    5310    666.53549   -6655.2003   -6580.8473    1704.0834    18428.163    3.7791495 
    5320    677.40118   -6656.4242   -6580.8591    793.53594    18437.775    3.7932035 
    5330    663.58887   -6654.8709   -6580.8465    771.77744    18448.407    3.8089956 
    5340    648.32181   -6653.1246   -6580.8033    1183.2492    18459.955    3.8207881 
    5350    645.25537   -6652.6985   -6580.7193    1382.5713    18472.863    3.8268324 
    5360    654.74202   -6653.6212   -6580.5837    1246.9062    18487.352    3.8302199 
    5370    663.29321   -6654.3926   -6580.4013    896.64866    18503.252    3.8357064 
    5380      676.476   -6655.6556   -6580.1937    59.800496    18520.061    3.8433548 
    5390      684.813   -6656.3783   -6579.9864   -788.92018    18536.747    3.8497879 
    5400    680.50841   -6655.7203   -6579.8086     -948.348    18552.311    3.8543506 
    5410     679.6072   -6655.4801   -6579.6689   -797.49794    18566.512    3.8582456 
    5420    669.84355   -6654.2731    -6579.551    -503.4668    18579.526    3.8632178 
    5430    655.43891   -6652.5475   -6579.4323   -198.42344    18591.733    3.8674317 
    5440    658.31813   -6652.7229   -6579.2865   -199.51471    18603.498    3.8685135 
    5450    667.83188    -6653.609   -6579.1114   -288.48262     18614.86    3.8682226 
    5460    659.62693   -6652.4971   -6578.9148   -611.64615    18625.688    3.8708211 
    5470    661.34506   -6652.4703   -6578.6963   -1119.9937    18635.567    3.8778454 
    5480    655.46034    -6651.566   -6578.4485   -993.23706    18643.961    3.8891769 
    5490    646.74832   -6650.3165   -6578.1707   -854.15102    18650.961     3.902701 
    5500    662.69029   -6651.7768   -6577.8527   -890.28495    18656.759    3.9132837 
    5510    682.64821   -6653.6637   -6577.5133   -763.31328    18661.358    3.9177528 
    5520    690.78481   -6654.2559   -6577.1978   -378.90555    18664.945    3.9147966 
    5530    695.21646   -6654.4886   -6576.9361    167.32025    18668.021    3.9051095 
    5540    681.96835   -6652.8103   -6576.7357    815.85762    18671.291    3.8939031 
    5550    654.54905   -6649.5815   -6576.5656    1173.6034    18675.545    3.8870478 
    5560    655.37367   -6649.4949    -6576.387     746.9813    18681.177    3.8831928 
    5570    656.41538   -6649.3982   -6576.1741   -37.289179    18687.674    3.8772182 
    5580    663.00738   -6649.8978   -6575.9384   -925.44331    18694.046    3.8682767 
    5590    685.17696   -6652.1322   -6575.6997   -1942.8215    18699.138    3.8621941 
    5600    692.47271   -6652.7456   -6575.4993   -2251.4467    18701.758    3.8635073 
    5610    686.89004    -6651.984   -6575.3604    -1988.635    18701.501    3.8685523 
    5620     693.7398   -6652.6621   -6575.2744    -1664.516    18698.683    3.8713564 
    5630    702.10388   -6653.5662   -6575.2454   -1217.3072    18693.753    3.8735643 
    5640    681.61441   -6651.2978   -6575.2627    192.56654    18687.444    3.8827205 
    5650    667.67926   -6649.7682   -6575.2875    1898.5547    18681.511    3.8995301 
    5660    672.13639   -6650.2718    -6575.294     2506.595    18677.969    3.9172219 
    5670    692.78513   -6652.5851   -6575.3039    2113.2683     18677.59    3.9304401 
    5680    695.90657   -6652.9778   -6575.3483    2005.6793    18679.999    3.9396591 
    5690    682.69553   -6651.5836   -6575.4279    1990.7121    18684.997    3.9443037 
    5700    696.45816   -6653.2187   -6575.5278    1237.6329    18692.437    3.9415513 
    5710    706.64325    -6654.485   -6575.6578    133.66464    18701.371    3.9337657 
    5720    701.33294    -6654.069   -6575.8343   -649.73642    18710.452    3.9272714 
    5730    690.35331   -6653.0494   -6576.0394   -1159.2227    18718.641    3.9251244 
    5740    683.98145   -6652.5554   -6576.2562   -1025.0362     18725.34    3.9254704 
    5750    677.57721   -6652.0594   -6576.4746   -468.07355    18730.717     3.926815 
    5760    667.21112    -6651.107   -6576.6786   -352.34606    18735.394    3.9294067 
    5770     662.6937   -6650.7752   -6576.8508    -780.2938    18739.517     3.930262 
    5780    659.17625   -6650.5063   -6576.9742   -1264.2262    18742.601    3.9277243 
    5790    669.35978   -6651.7331    -6577.065   -1359.6795    18744.074    3.9247851 
    5800    670.87848   -6651.9669   -6577.1294   -1319.9968    18743.794    3.9258052 
    5810    682.76307   -6653.3581   -6577.1949    -1666.032    18741.745    3.9308984 
    5820    674.15431   -6652.4656   -6577.2627   -1713.8084    18737.582     3.939193 
    5830    678.44721   -6653.0209   -6577.3391   -1608.2726    18731.242    3.9487272 
    5840    677.99712   -6653.0558   -6577.4242   -1731.7974    18722.826    3.9580118 
    5850    664.04182   -6651.5916   -6577.5167   -1541.9288    18712.268    3.9659343 
    5860    665.10594   -6651.7891   -6577.5955   -1089.9324    18699.822    3.9702204 
    5870    673.24253   -6652.7566   -6577.6554   -828.03165    18686.034    3.9727988 
    5880    668.55015   -6652.2815   -6577.7037   -686.67472    18671.273    3.9761009 
    5890    664.04089   -6651.8055   -6577.7307   -375.07456    18655.779    3.9806842 
    5900     669.9095   -6652.4578   -6577.7284   -188.51297    18639.897    3.9867429 
    5910      687.632   -6654.4246   -6577.7182   -5.6692531    18623.891    3.9961931 
    5920    694.25112   -6655.1791   -6577.7343    125.67251    18608.004    4.0093718 
    5930    689.63026   -6654.7257   -6577.7964    355.75737    18592.422     4.018725 
    5940     689.8513   -6654.8606   -6577.9066    492.61851    18577.407    4.0172759 
    5950    682.07611   -6654.1523   -6578.0657    857.45892    18563.164    4.0091477 
    5960     669.1472   -6652.9053   -6578.2609    1304.3136    18550.134    4.0033604 
    5970    673.66098   -6653.6318   -6578.4839    1113.6121    18538.782    4.0015194 
    5980    686.37128   -6655.3213   -6578.7555    917.71739     18528.93    3.9991901 
    5990    687.14775   -6655.7674    -6579.115    1014.1727    18520.359    3.9951991 
    6000    682.48703   -6655.6965   -6579.5641    1088.6069    18513.138    3.9895635 
    6010    690.77014   -6657.1745   -6580.1181    957.94474    18507.321    3.9831122 
    6020    682.00254   -6656.8456   -6580.7671    779.88875    18502.755    3.9766194 
    6030    673.78106   -6656.6373    -6581.476    516.55304    18499.202    3.9708502 
    6040    674.21325   -6657.4156   -6582.2061    138.92411    18496.327    3.9700429 
    6050    665.70094   -6657.1798   -6582.9198    2.3437787    18493.681    3.9773653 
    6060    657.26036   -6656.8793   -6583.5609    76.846823    18491.089    3.9938673 
    6070    658.48135   -6657.5641   -6584.1095    88.473444    18488.608    4.0172692 
    6080    647.84378   -6656.8184   -6584.5504     376.6451    18486.297    4.0423436 
    6090    641.34638   -6656.4192    -6584.876    410.84609    18484.433    4.0637316 
    6100    647.31377   -6657.3071   -6585.0982    147.94484    18483.067    4.0792058 
    6110     646.2084   -6657.3251   -6585.2396    12.404267    18481.914    4.0899668 
    6120    639.02311    -6656.591   -6585.3071     360.0258    18480.842     4.097459 
    6130     642.8664    -6657.014   -6585.3012    667.10859     18480.23     4.103703 
    6140     642.9768   -6656.9411   -6585.2161    571.05279    18480.427    4.1114865 
    6150    655.75671   -6658.2201   -6585.0694    369.52141    18481.354    4.1223317 
    6160    673.92151   -6660.0642   -6584.8873    -9.179464    18482.729    4.1372318 
    6170    680.57145   -6660.6251   -6584.7064   -216.01135    18484.114    4.1558986 
    6180    672.21041   -6659.5341    -6584.548   -138.03931    18485.248    4.1749335 
    6190    649.69072   -6656.8637   -6584.3897    218.21002    18486.233    4.1891388 
    6200    641.45295   -6655.7419   -6584.1868    408.00323    18487.476    4.1944174 
    6210    654.57189   -6656.9403   -6583.9218    398.76208    18489.229    4.1904692 
    6220    651.46847   -6656.2815   -6583.6092    760.38624     18491.56    4.1826421 
    6230    653.84416   -6656.1981   -6583.2608    1128.3688    18494.867    4.1760315 
    6240    659.48362   -6656.4413   -6582.8749    1400.5784    18499.602    4.1750157 
    6250    663.34126   -6656.4651   -6582.4684    1467.1909    18506.099    4.1799261 
    6260    677.89862   -6657.6783   -6582.0577     1141.462    18514.399    4.1875827 
    6270     682.6197   -6657.8132   -6581.6659    998.37643    18524.156    4.1979738 
    6280    678.71479    -6657.027   -6581.3154    1138.5583    18535.202    4.2103163 
    6290    678.52962   -6656.6989   -6581.0079    1084.6322    18547.664    4.2212468 
    6300    683.19111   -6656.9485   -6580.7375    832.06854     18561.46    4.2279543 
    6310    671.68165   -6655.4327   -6580.5056    1055.8239    18576.363    4.2297735 
    6320    661.02844    -6654.034   -6580.2953    1237.3157    18592.623    4.2280758 
    6330    675.93789   -6655.4875   -6580.0856    791.87093    18610.365    4.2248832 
    6340    678.52472   -6655.5784   -6579.8879    618.18472    18629.131    4.2204401 
    6350    669.45083   -6654.3906   -6579.7124    357.85805    18648.647    4.2149988 
    6360    673.55596   -6654.6821   -6579.5459   -382.60506    18668.518    4.2093287 
    6370     681.9915    -6655.463   -6579.3858    -996.0442    18687.883    4.2065905 
    6380    679.41614   -6655.0368   -6579.2469   -1193.6326    18705.972    4.2110984 
    6390    688.73057   -6655.9646   -6579.1357   -1336.9952    18722.473    4.2229015 
    6400    691.74463   -6656.2292   -6579.0641   -1159.2337    18737.248    4.2406256 
    6410    666.79502   -6653.4097   -6579.0277   -945.80317    18750.503    4.2634693 
    6420    660.89164   -6652.7114    -6578.988   -1618.7653    18762.396    4.2859136 
    6430    665.75178    -6653.185   -6578.9194   -2089.8182    18772.208    4.3018828 
    6440    659.98765   -6652.4604   -6578.8378   -1822.2503    18779.343    4.3112276 
    6450      642.986   -6650.4614   -6578.7353   -1244.4577    18784.103    4.3169072 
    6460    633.25852   -6649.2255   -6578.5846   -977.55244      18787.2    4.3153803 
    6470    642.09508   -6649.9931   -6578.3665   -1352.4911    18788.938    4.3031485 
    6480    669.85383   -6652.8271   -6578.1039   -2129.3525    18788.851    4.2832274 
    6490    668.09978   -6652.3655    -6577.838   -2261.3387    18786.074    4.2605569 
    6500    679.02057   -6653.3441   -6577.5984   -2686.0038    18780.275    4.2379016 
    6510    685.44637   -6653.8549   -6577.3924   -2964.3619    18770.987    4.2172277 
    6520    683.81544   -6653.5192   -6577.2385   -2539.0486    18757.936    4.2022284 
    6530    681.46649   -6653.1337   -6577.1151   -1419.5765    18741.694    4.1962895 
    6540    682.64859   -6653.1523   -6577.0018   -208.47033    18723.665    4.1954603 
    6550    691.16883   -6654.0003   -6576.8994    431.15754     18705.36    4.1938537 
    6560    691.15145   -6653.9338   -6576.8348    903.20209    18687.684    4.1928611 
    6570    681.53074   -6652.8368    -6576.811    1274.7302     18671.27    4.1949099 
    6580    675.45827   -6652.1536   -6576.8052    984.60685    18656.509     4.196156 
    6590    688.39202    -6653.609   -6576.8178    599.00923    18643.076    4.1920581 
    6600    694.65203   -6654.3465    -6576.857    753.59884    18630.548    4.1882905 
    6610    694.88882   -6654.4509    -6576.935    904.90872    18619.059    4.1892812 
    6620    682.73449   -6653.2013   -6577.0412    1007.8887    18608.795    4.1915139 
    6630    671.18868   -6652.0201    -6577.148    1155.2573    18599.884    4.1881955 
    6640    685.99655   -6653.7748   -6577.2508    998.34854    18592.474    4.1796243 
    6650    684.02799    -6653.665   -6577.3607     755.1854    18586.393    4.1716814 
    6660    669.51245   -6652.1585   -6577.4734    829.93642    18581.366    4.1668093 
    6670     676.6268   -6653.0568    -6577.578    1078.7471    18577.438    4.1653382 
    6680    663.79408   -6651.7089   -6577.6617    1815.1183    18574.979    4.1673543 
    6690    652.19884   -6650.4654   -6577.7116    2042.8821    18574.792     4.167961 
    6700    672.69058   -6652.7679   -6577.7283    1403.4004     18577.12    4.1657912 
    6710    684.23977   -6654.0666   -6577.7386    963.94378    18581.274    4.1648001 
    6720    671.17064   -6652.6321    -6577.762    1074.8584    18586.721    4.1653892 
    6730    663.14231   -6651.7572   -6577.7827    1231.0981    18593.532    4.1605973 
    6740    673.08148   -6652.8685   -6577.7852    1200.6121    18601.881    4.1467064 
    6750    690.12521   -6654.7707   -6577.7862    951.42416    18611.711    4.1313043 
    6760    699.79035   -6655.8851   -6577.8224    711.28361     18622.72     4.122917 
    6770    687.65313   -6654.6193   -6577.9106    1111.8029    18634.674    4.1206768 
    6780    665.24192   -6652.2275   -6578.0187    1817.7739    18648.048    4.1176945 
    6790    672.62411   -6653.1464   -6578.1142     1536.992    18663.584    4.1106244 
    6800    674.23968   -6653.3993   -6578.1869    871.79798    18680.993    4.1046811 
    6810    664.90553   -6652.4164   -6578.2452     276.9471    18699.454    4.1055624 
    6820    660.16839   -6651.9221   -6578.2793    -251.3087    18718.178    4.1113824 
    6830    657.72468   -6651.6459   -6578.2758   -712.49783     18736.49    4.1205085 
    6840    666.57193   -6652.5983   -6578.2412   -1451.3715    18753.735    4.1328572 
    6850    663.27743   -6652.1646    -6578.175   -1963.3475    18769.002    4.1473089 
    6860    682.49197   -6654.2285   -6578.0955   -2636.5098     18781.55    4.1626387 
    6870    680.06478   -6653.8844   -6578.0222   -2291.3961    18790.697    4.1770175 
    6880    662.76694   -6651.8957   -6577.9631   -1381.9319    18796.858    4.1842133 
    6890    655.37383   -6650.9916   -6577.8837    -1188.112    18801.084    4.1833877 
    6900    659.19401   -6651.2895   -6577.7554   -1818.1817     18803.63    4.1786435 
    6910    681.47478   -6653.6163   -6577.5968   -2742.7865    18803.735    4.1713016 
    6920    683.17046   -6653.6503   -6577.4416   -2993.1426    18800.326    4.1631862 
    6930    674.55315   -6652.5505   -6577.3031   -2653.9157    18793.106    4.1587563 
    6940    671.00803   -6652.0162   -6577.1642   -2136.4373    18782.504    4.1605183 
    6950    666.50346    -6651.348   -6576.9985   -1412.5938    18769.241    4.1629204 
    6960     673.8621    -6651.962   -6576.7917   -1190.7608    18754.191    4.1589521 
    6970    664.88358   -6650.6894   -6576.5207   -794.25517    18737.775     4.151513 
    6980    658.71426   -6649.6278   -6576.1473   -419.49204    18720.498     4.146433 
    6990    677.03663   -6651.1293   -6575.6049   -499.85146    18702.806    4.1459288 
    7000    683.79174   -6651.1344   -6574.8564   -165.73591    18684.712    4.1492059 
    7010    670.85751   -6648.7403   -6573.9051    766.46193    18666.692    4.1521037 
    7020    670.60787   -6647.6086   -6572.8013    1244.9208    18649.833    4.1520225 
    7030    696.08495   -6649.3037   -6571.6544    1164.0928    18634.734    4.1514045 
    7040    721.87238     -6651.16   -6570.6341    923.75312    18621.302    4.1550593 
    7050    734.71754   -6651.8378    -6569.879    848.00838    18609.248    4.1632194 
    7060    733.36912    -6651.208   -6569.3996     963.4397    18598.471    4.1741652 
    7070    725.94703   -6650.1188   -6569.1384    1158.2332    18589.084    4.1884563 
    7080    722.88562    -6649.675    -6569.036    1216.1196    18581.294    4.2086957 
    7090    724.94304   -6649.9254   -6569.0569    1150.2749     18575.15    4.2354851 
    7100    720.47098   -6649.5619   -6569.1923     1129.635    18570.572    4.2655943 
    7110    704.57329   -6648.0144   -6569.4182    1612.0327    18567.576    4.2932741 
    7120    708.12107   -6648.7008   -6569.7088    1585.3606     18566.62    4.3136389 
    7130    712.99595   -6649.6058     -6570.07    926.72562    18567.625    4.3285881 
    7140    700.31986   -6648.6176   -6570.4959    727.24146    18569.869    4.3458487 
    7150    693.65963   -6648.3336   -6570.9549    629.31399    18573.025    4.3723046 
    7160    692.30203   -6648.6552   -6571.4278    601.90721    18576.954    4.4059582 
    7170     700.9211   -6650.1052   -6571.9164   -7.1997819     18581.51    4.4382183 
    7180     717.0185   -6652.4402   -6572.4557   -663.20697    18585.964    4.4633597 
    7190    710.45025   -6652.2976   -6573.0458   -637.01093    18589.565    4.4822285 
    7200    697.27063   -6651.4299   -6573.6483   -643.93123    18592.281     4.498186 
    7210    686.27479   -6650.7951   -6574.2401   -698.56423    18594.104    4.5137483 
    7220     661.1219   -6648.5228   -6574.7737   -171.99599    18595.078     4.530794 
    7230    660.81065   -6648.9266   -6575.2122    43.071105    18595.792    4.5444904 
    7240     691.0021   -6652.6745   -6575.5921   -189.33328    18596.488    4.5520047 
    7250    704.56974   -6654.5633   -6575.9675   -11.720784    18596.975    4.5612504 
    7260    698.25844   -6654.2508    -6576.359    334.83825    18597.471    4.5775089 
    7270    696.83924   -6654.4978   -6576.7644    281.33789    18598.336    4.5960698 
    7280    701.41047   -6655.4305   -6577.1871   -77.404505    18599.506    4.6133363 
    7290    696.51087   -6655.3434   -6577.6466    30.588831    18600.607    4.6316426 
    7300    658.86787   -6651.5845   -6578.0868    642.97246     18601.81    4.6522289 
    7310     670.3587   -6653.2569   -6578.4773    141.97348     18603.67    4.6713787 
    7320    676.09319   -6654.2436   -6578.8244   -407.48293     18605.69    4.6855632 
    7330    664.07978    -6653.222   -6579.1429   -369.62705    18607.204    4.6947498 
    7340    659.60013   -6652.9997   -6579.4203   -189.50242    18608.214    4.7008001 
    7350    659.06434   -6653.1706    -6579.651   -380.03548    18608.914    4.7034901 
    7360    660.29077   -6653.4911   -6579.8346   -337.87544    18609.151    4.7046882 
    7370    663.20703   -6653.9659   -6579.9842    31.702705    18608.999    4.7081557 
    7380    646.39327   -6652.1987   -6580.0925    481.74401    18608.907    4.7150325 
    7390    643.55249   -6651.9392   -6580.1499    406.49699    18609.361    4.7236347 
    7400    638.19176    -6651.325   -6580.1338    698.65542    18610.368    4.7333855 
    7410    640.78093    -6651.518   -6580.0379    1254.2541    18612.267    4.7425631 
    7420    667.23749   -6654.3088   -6579.8775    1205.0472     18615.65    4.7501852 
    7430    683.40914   -6655.9175   -6579.6822    756.87248    18620.445    4.7589931 
    7440      684.082   -6655.8016   -6579.4912    512.05444    18626.119    4.7705283 
    7450    674.80125   -6654.5887   -6579.3136    419.64336    18632.319    4.7848178 
    7460    669.63949   -6653.8306   -6579.1313    230.90423    18638.884    4.8034559 
    7470    657.26169   -6652.2481   -6578.9296    103.03028      18645.6    4.8231895 
    7480    647.05093    -6650.869   -6578.6895   -97.694177    18652.274     4.836045 
    7490    651.52242   -6651.0597   -6578.3814   -469.33976    18658.654    4.8375966 
    7500    667.51044    -6652.469   -6578.0072   -1310.3731     18664.21    4.8289066 
    7510    668.50569   -6652.1572   -6577.5844   -1503.6657    18668.043    4.8163309 
    7520    670.22675   -6651.9017   -6577.1369   -1186.4449    18669.908    4.8066491 
    7530    667.88485   -6651.1704   -6576.6668     -717.281     18670.22    4.8060504 
    7540    675.89596   -6651.5847   -6576.1875   -258.48065    18669.603    4.8133167 
    7550    677.11444   -6651.2404   -6575.7073    390.80737    18668.721    4.8217315 
    7560    678.68264   -6650.9566   -6575.2485    911.20013    18668.356    4.8242093 
    7570    679.02713   -6650.5634   -6574.8169    894.01399    18669.103    4.8180023 
    7580    695.71347   -6652.0307   -6574.4228    224.74615    18670.902    4.8051049 
    7590    708.40007   -6653.1141    -6574.091   -127.10834    18673.007    4.7905061 
    7600    717.33425   -6653.8838   -6573.8641   -200.95349     18674.93    4.7802582 
    7610    708.02459   -6652.7337   -6573.7525   -79.210516     18676.58    4.7803693 
    7620    693.08001   -6651.0401    -6573.726    17.157352    18678.085    4.7923161 
    7630    689.54614   -6650.6627   -6573.7427     304.6562    18679.598    4.8089522 
    7640    683.08841   -6649.9797   -6573.7801    532.48365    18681.471    4.8194428 
    7650    682.01154   -6649.9097   -6573.8303   -96.401286    18683.887    4.8186561 
    7660    678.17999   -6649.5424   -6573.8904   -947.51357    18686.096    4.8108102 
    7670    667.63334   -6648.4271   -6573.9516   -1329.1842    18687.101    4.8042787 
    7680    675.85264   -6649.3982   -6574.0058   -1644.4805    18686.389    4.8028703 
    7690    687.85995   -6650.7994   -6574.0676   -1721.2503    18683.609    4.8086831 
    7700     676.7495   -6649.6405   -6574.1481   -1109.1289    18678.774    4.8250206 
    7710    664.13355    -6648.293   -6574.2079   -465.82412    18672.629     4.853543 
    7720    685.37498   -6650.7129   -6574.2583   -606.69562    18665.916    4.8874213 
    7730    698.41627   -6652.2329   -6574.3235    -899.6145    18658.562    4.9169559 
    7740     677.8892   -6650.0391   -6574.4195   -660.67775    18650.272    4.9374032 
    7750    662.12286   -6648.3736   -6574.5128   -23.987927    18641.359    4.9466678 
    7760    665.40583   -6648.8062   -6574.5792   -4.2478639    18632.523    4.9433735 
    7770    667.86906   -6649.1262   -6574.6244   -1028.8379    18623.731    4.9314423 
    7780    682.98249   -6650.8533   -6574.6655   -2429.5626    18613.752    4.9190926 
    7790    690.36619   -6651.7328   -6574.7214   -2745.4603    18600.989    4.9131166 
    7800    692.33676   -6652.0328   -6574.8015   -1798.5607    18585.111    4.9149402 
    7810    698.99265   -6652.8815   -6574.9078   -814.38513    18567.246    4.9223569 
    7820    696.00557   -6652.6826   -6575.0421    80.085857     18548.71    4.9305813 
    7830    706.20062   -6653.9951   -6575.2174    421.97331    18530.542    4.9366419 
    7840     699.0255   -6653.4116   -6575.4343     1313.912    18513.345    4.9392721 
    7850    682.26441    -6651.769   -6575.6613     2222.203    18498.136    4.9329678 
    7860     680.1316    -6651.746   -6575.8763    2866.5789    18485.982    4.9184847 
    7870    675.38289   -6651.3982   -6576.0582    3339.4255    18477.663     4.901419 
    7880    685.96213   -6652.7487   -6576.2286     3082.945    18473.623    4.8860343 
    7890    690.03208   -6653.3776   -6576.4035    2874.2362    18473.559    4.8784909 
    7900    691.03962   -6653.6778   -6576.5913    2440.7202    18477.095    4.8793522 
    7910    693.52539   -6654.1528    -6576.789    1742.7817    18483.623    4.8856661 
    7920    703.04853    -6655.425   -6576.9989    1055.3771     18492.24    4.8938496 
    7930    702.39828   -6655.5906   -6577.2371    907.95407    18502.125    4.9001165 
    7940    690.16759   -6654.4807   -6577.4915    557.81146    18512.977    4.9041282 
    7950    695.10674   -6655.2876   -6577.7474   -165.74331    18524.327    4.9099416 
    7960    686.84441   -6654.6147   -6577.9962   -431.60166    18535.365    4.9211641 
    7970    678.93387   -6653.9733   -6578.2372   -474.56494    18545.734    4.9349926 
    7980    677.85617   -6654.0755   -6578.4596   -678.03579    18555.348    4.9463823 
    7990    681.16305   -6654.6499   -6578.6651   -1386.8545      18563.9    4.9517764 
    8000    685.10291   -6655.2901   -6578.8658   -2132.5538     18570.57    4.9504456 
    8010    686.81015   -6655.6888   -6579.0741    -2534.255    18574.464    4.9454671 
    8020    693.16169   -6656.6282    -6579.305   -2593.3156    18575.094    4.9415877 
    8030    676.71644   -6655.0456   -6579.5569   -1658.4751    18572.538    4.9410516 
    8040    654.09948   -6652.7539   -6579.7881   -679.35275    18567.909    4.9411984 
    8050    642.41664   -6651.6194   -6579.9568   -592.39638    18562.389    4.9396991 
    8060    653.28085   -6652.9327   -6580.0582   -1258.1685    18556.095    4.9430041 
    8070    664.15475   -6654.2004    -6580.113   -1347.2202    18548.351    4.9577157 
    8080    660.23942   -6653.7848   -6580.1341   -732.33981    18539.071    4.9830055 
    8090    664.57671   -6654.2634   -6580.1288    111.34263    18528.996     5.010439 
    8100    657.53585   -6653.4334   -6580.0842    1320.0938    18519.227    5.0298879 
    8110    669.03686    -6654.642   -6580.0099    1867.8871    18511.146    5.0338499 
    8120    669.72231   -6654.6224   -6579.9139     2193.701    18505.501    5.0254241 
    8130    671.98331   -6654.7724   -6579.8117    2009.9869    18502.617    5.0152215 
    8140    680.43167   -6655.6057   -6579.7025    1345.3214    18502.248    5.0116064 
    8150    680.43756   -6655.5034   -6579.5996    910.17477     18503.63     5.013357 
    8160    684.28725   -6655.8353    -6579.502    416.20679    18506.153    5.0181217 
    8170     699.4121   -6657.4426   -6579.4221    300.14863    18509.243     5.025254 
    8180    699.89438   -6657.4668   -6579.3926    764.41135    18512.757    5.0350889 
    8190     677.6599   -6655.0029   -6579.4089    1563.5127    18517.254    5.0482325 
    8200    680.29161   -6655.3421   -6579.4545    2243.2903    18523.708    5.0629199 
    8210    680.49451    -6655.432   -6579.5218    2626.2682    18532.965    5.0785773 
    8220    675.14485   -6654.9275   -6579.6141    2499.1764     18545.46    5.0953332 
    8230     685.1974     -6656.16   -6579.7252    1775.1394     18561.01      5.11146 
    8240    694.03059   -6657.3012   -6579.8811     1089.052    18578.762    5.1285729 
    8250    669.85229   -6654.8163   -6580.0932     843.7831    18597.889    5.1477647 
    8260    653.68906   -6653.2496   -6580.3296    214.62256    18617.968    5.1635555 
    8270     656.4722   -6653.7903   -6580.5599   -577.95347    18638.205    5.1717879 
    8280    651.04822   -6653.4049   -6580.7795   -720.84052    18657.703    5.1752751 
    8290    656.10431    -6654.178   -6580.9885   -857.51497    18676.179    5.1787798 
    8300    661.79755   -6655.0197   -6581.1952   -845.55378    18693.467    5.1862803 
    8310    652.74245   -6654.2039   -6581.3895   -888.50573    18709.595    5.2006216 
    8320    669.89378   -6656.3024   -6581.5747   -1579.5805    18724.416    5.2203624 
    8330    673.54839   -6656.9001   -6581.7648   -1850.9455    18737.175        5.243 
    8340    661.86049   -6655.8037   -6581.9721   -1777.6969    18747.498    5.2638769 
    8350    650.75966   -6654.7644   -6582.1712   -1446.2415    18755.482    5.2764036 
    8360    646.89939   -6654.5008   -6582.3382   -1163.1695    18761.544    5.2767759 
    8370      652.384   -6655.2347   -6582.4603   -1485.5945    18765.998    5.2711641 
    8380    661.18659   -6656.3031   -6582.5468   -1964.2971    18768.473     5.268818 
    8390    661.41524   -6656.3927   -6582.6108   -2073.1605    18768.412    5.2700333 
    8400    652.66249   -6655.4539   -6582.6485   -2015.3823    18765.656    5.2722629 
    8410    646.01999   -6654.7052   -6582.6407   -2069.4149    18760.278    5.2738726 
    8420    658.36257   -6656.0207   -6582.5794   -2491.9311    18752.159    5.2739481 
    8430    663.90979   -6656.5322    -6582.472   -2305.3483    18740.889    5.2758735 
    8440    666.39167   -6656.6676   -6582.3306   -1583.0475     18726.72    5.2811193 
    8450    660.50997   -6655.8289    -6582.148   -1120.5181    18710.518    5.2871186 
    8460    659.25755   -6655.4638   -6581.9227   -1074.9017    18692.855    5.2917286 
    8470    656.80134   -6654.9086   -6581.6414    -443.2814    18673.947    5.2932672 
[...]
   22890    674.31074   -6656.6953    -6581.475   -981.12377    18624.529    11.987831 
   22900    672.47986   -6656.6646   -6581.6484   -318.14678    18613.736    11.993724 
   22910    677.37695    -6657.395   -6581.8326    509.51141    18602.582    11.993717 
   22920      669.767   -6656.7367   -6582.0231    1421.7954    18592.107    11.988796 
   22930    657.43196   -6655.5528   -6582.2153      2071.28    18583.449    11.983486 
   22940    646.26123   -6654.4831   -6582.3917    2397.8725     18577.44    11.980509 
   22950    645.14507   -6654.5059    -6582.539    2142.5581     18574.45    11.981262 
   22960    652.97284   -6655.4945   -6582.6544     1466.014    18574.177    11.979664 
   22970     662.2716   -6656.6284    -6582.751    502.80307    18575.748    11.967757 
   22980    660.05617   -6656.4657   -6582.8354     214.5972    18578.057    11.945224 
   22990    660.53832   -6656.5896   -6582.9056    384.66167    18580.696    11.915531 
   23000     675.8153   -6658.3471   -6582.9588    613.13171    18583.839    11.889008 
   23010     695.6301   -6660.6188   -6583.0202    768.17968    18587.761    11.878557 
   23020    706.08798   -6661.9105   -6583.1453    974.32796    18592.676    11.882801 
   23030    694.02999   -6660.7853   -6583.3652    1416.0643     18598.89    11.891969 
   23040    669.97911   -6658.3938   -6583.6566    1877.0282    18606.953    11.898709 
   23050    654.58123   -6656.9917   -6583.9721    1890.2198    18617.401     11.90083 
   23060    649.43769   -6656.7214   -6584.2756    1569.3073    18630.268    11.904577 
   23070    652.58124   -6657.3413   -6584.5449    844.92732    18645.121    11.920648 
   23080    650.51739   -6657.3483   -6584.7821    529.98866    18661.119    11.951781 
   23090    623.06573   -6654.4699    -6584.966    802.51503    18677.877    11.987385 
   23100    619.88946   -6654.2157   -6585.0661    817.83035     18695.66    12.011097 
   23110    633.97485   -6655.7784   -6585.0576    384.12211    18714.453    12.022507 
   23120     645.7244   -6656.9842   -6584.9526    10.368036     18733.77    12.031815 
   23130    650.27161   -6657.3083   -6584.7695   -356.23735    18753.121    12.046234 
   23140    661.28999   -6658.2837   -6584.5158    -959.6939    18771.985    12.064469 
   23150    668.10895   -6658.7319   -6584.2033   -1538.6437    18789.593    12.082363 
   23160    671.38954   -6658.7532   -6583.8587   -1765.4079    18805.211    12.097135 
   23170    678.52521   -6659.1845    -6583.494   -2008.8358    18818.494    12.104269 
   23180      675.354   -6658.4492   -6583.1124    -2304.655    18829.122    12.103332 
   23190    667.03663   -6657.1267   -6582.7178   -2509.1323    18836.705    12.103883 
   23200    658.71279   -6655.7831   -6582.3027   -2682.6187    18840.976     12.11522 
   23210    651.52244   -6654.5355   -6581.8572    -2865.855    18841.701    12.135156 
   23220    661.58411   -6655.1827    -6581.382   -2941.8419    18838.648    12.160109 
   23230    657.54987   -6654.2367    -6580.886   -2018.8352    18831.851    12.185224 
   23240      623.387   -6649.9114   -6580.3716   -451.56962    18822.502    12.201207 
   23250    639.19814   -6651.1119   -6579.8084    112.74368    18812.484    12.204153 
   23260    685.18404   -6655.6353    -6579.202    -26.52659    18802.558     12.19457 
   23270    682.18932   -6654.7468   -6578.6475    1026.2534    18792.805    12.175456 
   23280    666.46972   -6652.5279   -6578.1822    2104.7051    18784.438    12.149247 
   23290    689.57514   -6654.6964   -6577.7733    1880.8206    18778.706     12.12585 
   23300    724.39649   -6658.2453   -6577.4378    721.09671    18775.351    12.116739 
   23310    736.39887   -6659.3907   -6577.2443    -29.16089    18773.012    12.123391 
   23320    718.94493   -6657.4075   -6577.2082    157.48699    18770.751      12.1449 
   23330    687.15993   -6653.9227    -6577.269    920.79441    18768.786    12.177208 
   23340    683.75281   -6653.6361   -6577.3625    1138.9502    18767.955    12.219079 
   23350    677.55236   -6653.0442   -6577.4622    907.27077    18768.564    12.266886 
   23360    665.51983   -6651.7974   -6577.5577    422.35607    18770.352    12.305179 
   23370    674.39309   -6652.8693   -6577.6397    48.603862    18772.718    12.320713 
   23380    674.92459   -6652.9998   -6577.7109    307.06903    18775.233    12.317741 
   23390    675.67258    -6653.155   -6577.7827    189.02908    18778.083    12.311663 
   23400    676.62597   -6653.3369   -6577.8583    211.56762    18781.211    12.313492 
   23410    657.41532   -6651.2615   -6577.9258    533.59987    18784.645    12.324583 
   23420    655.70177   -6651.1077   -6577.9632    347.70387    18788.731    12.341299 
   23430    667.46648    -6652.418   -6577.9611   -595.78504    18793.188    12.360728 
   23440    669.71819   -6652.6434   -6577.9353   -1283.6033    18796.904    12.372746 
   23450    679.65727    -6653.719   -6577.9022   -1771.1509    18798.951    12.370035 
   23460    682.88535   -6654.0546   -6577.8777   -1832.2734    18798.716     12.36037 
   23470    680.42916   -6653.7753   -6577.8724   -1418.7176    18796.135     12.35862 
   23480    688.75411   -6654.7192   -6577.8876   -1391.5374    18791.622    12.373406 
   23490     685.2375   -6654.3681   -6577.9288   -1053.0072     18785.32    12.401511 
   23500    669.23724   -6652.6418   -6577.9874   -465.14935    18777.673    12.434445 
   23510     663.0094    -6652.004   -6578.0443   -283.33718    18769.355    12.465993 
   23520    658.23888    -6651.501   -6578.0735   -488.16697    18760.605    12.492089 
   23530      677.847   -6653.6972   -6578.0824   -447.67667    18751.231    12.512599 
   23540    687.34657   -6654.7637   -6578.0892    147.71068    18741.307    12.533961 
   23550    683.60724   -6654.3768   -6578.1194    1171.6268    18731.601    12.555372 
   23560    669.72672   -6652.8761   -6578.1671    2179.4196    18723.409    12.575711 
   23570    667.68869   -6652.7005   -6578.2188    2535.5663    18717.981    12.597919 
   23580    673.70142    -6653.426   -6578.2736    2382.8062    18715.811    12.619566 
   23590     678.2538   -6654.0039   -6578.3436    1895.7674    18716.722    12.634011 
   23600    681.28165   -6654.4342   -6578.4362    1162.2114    18720.091    12.633263 
   23610    680.59694    -6654.485   -6578.5634    573.27681    18725.001    12.618622 
   23620    660.21491   -6652.3567   -6578.7087    692.54907    18730.766    12.603211 
   23630    660.67555   -6652.5501   -6578.8508    823.26922    18737.465    12.604656 
   23640     673.2196   -6654.0856   -6578.9869    631.24794    18745.238    12.627653 
   23650    657.07868   -6652.4168   -6579.1187    714.56101    18753.918    12.660175 
   23660     654.6138    -6652.255   -6579.2319    138.17282    18763.477    12.689204 
   23670    669.00047   -6653.9371   -6579.3091   -974.40964    18773.203    12.710648 
   23680    685.01445   -6655.7812   -6579.3668   -2113.7658    18781.697    12.722697 
   23690    699.63065   -6657.5007   -6579.4558   -2938.8466    18787.474    12.725463 
   23700    688.78024   -6656.4433   -6579.6089   -2934.0031    18789.506    12.725059 
   23710    671.99966   -6654.7764   -6579.8139   -2206.1354    18787.768    12.729852 
   23720    653.90353   -6652.9672   -6580.0233   -1262.5782     18783.14    12.744306 
   23730    653.33154   -6653.0793   -6580.1992    -901.0662    18776.758    12.766013 
   23740    656.68324   -6653.5905   -6580.3365   -884.60164    18769.124    12.792944 
   23750    652.67287   -6653.2406    -6580.434   -702.64213    18760.343    12.821025 
   23760    655.76997   -6653.6479   -6580.4958   -542.59037    18750.599    12.848217 
   23770    657.37337   -6653.8478   -6580.5168   -219.39047    18740.145    12.875262 
   23780     650.2432   -6653.0322   -6580.4966    138.18433    18729.367    12.898403 
   23790    641.06914   -6651.9288   -6580.4166    957.69112    18718.794    12.915974 
   23800    640.61709   -6651.7164   -6580.2546    1368.2975     18709.38    12.929355 
   23810    648.15029     -6652.31   -6580.0079    1325.9602    18701.656    12.935566 
   23820    659.03477   -6653.2011   -6579.6847    1203.6062    18695.631    12.934694 
   23830    669.92803   -6654.0376   -6579.3062    739.36212    18691.105    12.931947 
   23840    675.17862   -6654.2077   -6578.8905    357.07562    18687.528    12.932422 
   23850    673.40889   -6653.5774   -6578.4576    440.67636    18684.472    12.937422 
   23860    674.93013   -6653.3048   -6578.0154    455.28556    18681.954    12.945268 
   23870     669.7627   -6652.2794   -6577.5663    489.81415    18680.007    12.951554 
   23880    672.15259   -6652.0903   -6577.1107    548.39689    18678.698    12.951554 
   23890    695.17251   -6654.2067   -6576.6592     617.5937    18678.098    12.947135 
   23900    698.44786   -6654.1565   -6576.2436    1293.7806    18678.403    12.936594 
   23910    698.77288   -6653.8488   -6575.8997    1780.6413    18680.372    12.913239 
   23920    695.90923   -6653.2517    -6575.622    1851.8517    18684.631      12.8777 
   23930    699.86334   -6653.4803   -6575.4095    1393.0879    18691.279    12.834991 
   23940    707.78752   -6654.2132   -6575.2585    746.14375    18699.794    12.797068 
   23950    704.47855   -6653.7682   -6575.1825    157.54163    18709.354    12.778905 
   23960    683.68624   -6651.4351   -6575.1689    120.56397    18719.275    12.789267 
   23970    669.76655   -6649.8876   -6575.1742    25.133245    18729.413    12.818121 
   23980     672.3685   -6650.1758    -6575.172   -359.81072    18739.642    12.846561 
   23990    684.89384   -6651.5657   -6575.1648   -735.17639     18749.51    12.866794 
   24000    685.84019   -6651.6805    -6575.174   -1037.3192    18758.506    12.877537 
   24010     685.6234   -6651.6906   -6575.2083   -1146.8493    18766.255    12.875295 
   24020    698.51842    -6653.203   -6575.2822   -1637.4948    18772.501    12.857822 
   24030     690.1771   -6652.3935   -6575.4032   -1911.2959    18776.661    12.835354 
   24040    682.80334   -6651.7424   -6575.5746    -1487.252    18778.408    12.819824 
   24050     678.0705   -6651.4215   -6575.7817   -421.92209    18778.302    12.814841 
   24060    685.96434   -6652.5445   -6576.0241    101.32516    18777.571    12.818054 
   24070    695.60361   -6653.9224   -6576.3267    84.568989     18776.92    12.819995 
   24080    695.22553   -6654.2726   -6576.7191    -41.67318    18776.372    12.815084 
   24090    695.13541   -6654.7651   -6577.2217   -128.48305    18775.786    12.806763 
   24100    685.60396   -6654.3222    -6577.842   -469.81999    18774.991    12.799278 
   24110    680.06312   -6654.4111    -6578.549   -654.78903    18773.602    12.791779 
   24120    679.76367   -6655.1514   -6579.3228   -578.91454    18771.378    12.782295 
   24130     653.1534   -6652.9529   -6580.0926   -201.52052    18768.412    12.774351 
   24140    622.59566   -6650.1939   -6580.7424    277.69182    18765.189        12.77 
   24150    629.17971   -6651.4215   -6581.2355   -111.62832    18762.183    12.768746 
   24160    638.39993   -6652.8033   -6581.5889   -676.32152    18758.978    12.772233 
   24170    630.68001   -6652.1696   -6581.8163    -858.2834    18754.899    12.783102 
   24180    639.52319   -6653.2725   -6581.9327   -1070.2394    18749.649    12.795835 
   24190    646.12389   -6654.0421    -6581.966   -1056.3054    18742.958    12.799779 
   24200    630.43628   -6652.2525   -6581.9264   -494.46267    18734.891     12.78736 
   24210    646.89796    -6653.984   -6581.8216   -300.44239     18726.04    12.760655 
   24220    660.29862   -6655.3231   -6581.6658    7.8113085     18716.72    12.731441 
   24230      660.408   -6655.1639   -6581.4944    389.06265     18707.33    12.707359 
   24240    665.42149   -6655.5445   -6581.3158    465.95313    18698.327    12.694998 
   24250    665.26508   -6655.3454   -6581.1341    674.77859    18689.868    12.691989 
   24260    665.06696   -6655.1375   -6580.9482    865.12518     18682.21    12.686684 
   24270    677.04411   -6656.2852   -6580.7599    666.33345    18675.558    12.677753 
   24280     688.8929   -6657.4425   -6580.5955    422.02673    18669.705    12.668585 
   24290    680.14564   -6656.3416   -6580.4703    709.32123    18664.411    12.663836 
   24300    673.43676   -6655.4896   -6580.3667    1097.1048    18659.988    12.676388 
   24310    661.17429   -6654.0142   -6580.2592    1443.7804    18656.951    12.714948 
   24320    642.86855   -6651.8399    -6580.127     1471.248    18655.731    12.765181 
   24330    656.67143   -6653.2062   -6579.9535    812.97744    18656.331     12.80885 
   24340    665.69832   -6654.0014   -6579.7418    308.52945     18658.02    12.839902 
   24350    661.29987   -6653.2857   -6579.5167    635.84604    18660.242    12.856714 
   24360    660.56042   -6652.9642   -6579.2777    1472.8392    18663.395    12.865485 
   24370    666.66069   -6653.3944   -6579.0274    2229.6127    18668.498    12.877855 
   24380    664.89351    -6652.937   -6578.7671    2601.6832    18676.523    12.893544 
   24390    667.94572   -6653.0117   -6578.5014    2558.4686    18688.005    12.904848 
   24400    679.62099   -6654.0431   -6578.2304    2008.1901     18702.95    12.916585 
   24410    698.62487   -6655.9076    -6577.975    1173.4947    18720.696    12.937679 
   24420    683.75493   -6654.0399    -6577.766    797.65822    18740.259     12.96772 
   24430    658.19051   -6651.0143   -6577.5922    1025.1892    18761.212    12.997463 
   24440     652.3528   -6650.1736   -6577.4026    825.18069    18783.757    13.020214 
   24450    664.16143   -6651.2554   -6577.1672   -289.18721    18807.593    13.038971 
   24460    670.99781   -6651.7463   -6576.8955   -1251.9413    18831.384    13.059665 
   24470    672.01144   -6651.5785   -6576.6146   -1877.4427    18853.837    13.080442 
   24480    676.19469   -6651.7657   -6576.3352   -2159.8398    18874.095    13.096132 
   24490     681.6943   -6652.1192   -6576.0752   -2017.0998    18891.759    13.107444 
   24500    675.96518   -6651.2471   -6575.8422   -1775.8726    18906.952     13.11486 
   24510    675.07302   -6650.9389   -6575.6335   -1660.5516     18919.93    13.120346 
   24520    674.31126   -6650.6585   -6575.4381   -1287.0819    18930.895    13.127401 
   24530    676.10511   -6650.6789   -6575.2584   -1238.9445    18940.223    13.134872 
   24540    669.88227   -6649.8165   -6575.0902   -1303.1623    18947.997    13.140167 
   24550    672.49766   -6649.9439   -6574.9257   -1482.6695    18954.111    13.141913 
   24560    691.88304   -6651.9551   -6574.7745    -1748.199    18958.292    13.139981 
   24570    691.42009   -6651.7917   -6574.6628   -1349.8239    18960.255    13.139784 
   24580    691.29598   -6651.7138   -6574.5987   -1091.7383      18960.4    13.143141 
   24590     693.3142   -6651.9208   -6574.5805   -1397.5183    18959.003    13.149248 
   24600    678.82797   -6650.3204   -6574.5961   -1573.4681    18955.742    13.159377 
   24610    676.20623   -6650.0652   -6574.6334   -1919.9317    18950.291    13.172536 
   24620    656.05171   -6647.8421   -6574.6586   -1602.8068    18942.292     13.18237 
   24630    669.47427   -6649.3402   -6574.6594   -1158.8672    18932.063    13.181835 
   24640    690.24143   -6651.6466   -6574.6492   -972.06363    18920.137    13.177237 
   24650    697.63008   -6652.4963   -6574.6746   -790.28285    18906.793    13.175626 
   24660    687.35387   -6651.4229   -6574.7476   -582.25268    18892.229    13.180459 
   24670    660.38019   -6648.4908   -6574.8244   -82.529529    18876.759    13.194577 
   24680    673.43102   -6649.9988   -6574.8765    11.442693    18860.961    13.212426 
   24690    700.12441   -6653.0303   -6574.9303    109.95677    18845.009    13.232534 
   24700    693.31176   -6652.3597   -6575.0197    830.39845    18829.099     13.25407 
   24710    685.26472   -6651.5654   -6575.1231    1200.6052    18814.069    13.270327 
   24720     700.3704   -6653.3676   -6575.2402    1028.2261    18800.413    13.279436 
   24730    686.52027   -6651.9562   -6575.3738    997.03287    18788.014    13.290801 
   24740    668.80458   -6650.1103   -6575.5042    785.99176      18776.8    13.304113 
   24750    676.51625   -6651.0869   -6575.6205    427.46769    18766.515    13.318277 
   24760     675.4271   -6651.0762   -6575.7313    510.32144    18756.774      13.3354 
   24770    655.04395   -6648.9057   -6575.8346    1142.5415    18747.682    13.348098 
   24780    647.71108    -6648.144   -6575.8909    1589.7335    18739.986    13.344874 
   24790    658.34411   -6649.3206   -6575.8813    1302.4051     18734.22    13.330989 
   24800    663.28205   -6649.8188   -6575.8287    972.63965    18730.124    13.324137 
   24810    671.14287   -6650.6224   -6575.7554    597.93194    18727.255    13.333822 
   24820    685.40114   -6652.1375   -6575.6799    360.65565    18725.176    13.355598 
   24830    702.20718   -6653.9638   -6575.6315     65.78542    18723.545    13.373944 
   24840    708.83938   -6654.7199   -6575.6478    489.27698     18722.08    13.376321 
   24850    694.89789   -6653.2597   -6575.7428    1161.6265    18721.269    13.361445 
   24860    678.29307   -6651.5538   -6575.8891    1501.0307    18721.945    13.336005 
   24870    672.32609   -6651.0405   -6576.0415    1273.9526    18724.527    13.314626 
   24880    685.50168   -6652.6631   -6576.1943    497.82478    18728.724    13.308589 
   24890    694.72118   -6653.8696   -6576.3724   -17.532549     18733.63    13.319599 
   24900    682.12551   -6652.6868   -6576.5947    435.65386     18738.66    13.347308 
   24910    663.59464   -6650.8595   -6576.8345    899.34292     18744.27    13.385396 
   24920    670.64126   -6651.8846   -6577.0736    759.05211    18751.015    13.423536 
   24930    672.98033    -6652.394    -6577.322    397.17357    18758.745     13.45124 
   24940    670.59609   -6652.4023   -6577.5963    414.55969    18767.065     13.46514 
   24950     665.6862   -6652.1478   -6577.8895    473.19563    18775.957    13.466676 
   24960    669.21869   -6652.8378   -6578.1855   -95.436774      18785.4    13.454227 
   24970    670.84633   -6653.3196   -6578.4856    -859.5373    18794.712    13.439713 
   24980    668.23651   -6653.3506   -6578.8078   -1224.4904    18802.937    13.440049 
   24990    663.42814   -6653.1591   -6579.1527   -1398.4581    18809.567    13.458434 
   25000     663.1573   -6653.5041   -6579.5279   -1724.0891    18814.338    13.487665 
Loop time of 16297.1 on 16 procs for 20000 steps with 864 atoms

Performance: 0.106 ns/day, 226.348 hours/ns, 1.227 timesteps/s
97.1% CPU use with 16 MPI tasks x 1 OpenMP threads

MPI task timing breakdown:
Section |  min time  |  avg time  |  max time  |%varavg| %total
---------------------------------------------------------------
Pair    | 10748      | 14080      | 15813      |1158.6 | 86.39
Bond    | 0.0020046  | 0.0072963  | 0.014881   |   3.9 |  0.00
Neigh   | 0.23696    | 0.29712    | 0.39062    |   7.9 |  0.00
Comm    | 337.38     | 1670.6     | 5369.9     |3462.5 | 10.25
Output  | 1.6208     | 1.7943     | 3.1687     |  26.6 |  0.01
Modify  | 102.92     | 544.38     | 974.14     |1544.7 |  3.34
Other   |            | 0.1138     |            |       |  0.00

Nlocal:        54.0000 ave          72 max          43 min
Histogram: 3 1 4 0 2 4 0 1 0 1
Nghost:        542.625 ave         668 max         488 min
Histogram: 3 5 4 0 1 1 0 0 0 2
Neighs:         0.00000 ave           0 max           0 min
Histogram: 16 0 0 0 0 0 0 0 0 0
FullNghs:      2530.25 ave        3866 max        1747 min
Histogram: 4 2 1 1 4 1 0 2 0 1

Total # of neighbors = 40484
Ave neighs/atom = 46.856481
Ave special neighs/atom = 0.0000000
Neighbor list builds = 2000
Dangerous builds = 2000
unfix   3
                
Total wall time: 5:37:24
