LAMMPS (29 Sep 2021 - Update 3)
OMP_NUM_THREADS environment is not set. Defaulting to 1 thread. (src/comm.cpp:98)
  using 1 OpenMP thread(s) per MPI task
Reading data file ...
  orthogonal box = (0.0000000 0.0000000 0.0000000) to (16.534670 17.767358 74.594796)
  1 by 2 by 8 MPI processor grid
  reading atoms ...
  864 atoms
Finding 1-2 1-3 1-4 neighbors ...
  special bond factors lj:    0        0        0       
  special bond factors coul:  0        0        0       
     0 = max # of 1-2 neighbors
     0 = max # of 1-3 neighbors
     0 = max # of 1-4 neighbors
     1 = max # of special neighbors
  special bonds CPU = 0.001 seconds
  read_data CPU = 0.034 seconds
Neighbor list info ...
  update every 1 steps, delay 10 steps, check yes
  max neighbors/atom: 2000, page size: 100000
  master list distance cutoff = 6.22
  ghost atom cutoff = 6.22
  binsize = 3.11, bins = 6 6 24
  1 neighbor lists, perpetual/occasional/extra = 1 0 0
  (1) pair quip, perpetual
      attributes: full, newton on
      pair build: full/bin
      stencil: full/bin/3d
      bin: standard
Setting up Verlet run ...
  Unit style    : metal
  Current step  : 0
  Time step     : 0.001
Per MPI rank memory allocation (min/avg/max) = 8.894 | 8.906 | 8.915 Mbytes
Step Temp PotEng TotEng Press Volume c_msd[4] 
       0            0   -8413.4292   -8413.4292   -12531.916    21914.265            0 
      10    63.367096   -8420.5059   -8413.4372   -13062.757    21914.265 0.00028900792 
      20    162.23389   -8431.5423   -8413.4448   -13580.932    21914.265 0.0035442006 
      30    203.76318   -8436.1707   -8413.4406   -13263.999    21914.265  0.011998633 
      40     225.5427      -8438.6   -8413.4404   -13091.981    21914.265  0.023619499 
      50    238.39464   -8440.0352   -8413.4419   -13192.953    21914.265  0.036411648 
      60    237.91747   -8439.9798   -8413.4397    -13151.82    21914.265  0.049420327 
      70    242.25882   -8440.4649   -8413.4405   -12986.142    21914.265  0.062561747 
      80    243.33226   -8440.5825   -8413.4384   -12841.846    21914.265  0.075987004 
      90     256.1439    -8442.014   -8413.4408   -12985.089    21914.265  0.088683986 
     100    260.92723   -8442.5467   -8413.4399   -13129.532    21914.265   0.10092572 
     110    263.36735   -8442.8185   -8413.4395   -13314.209    21914.265   0.11296329 
     120    267.45703   -8443.2754   -8413.4402   -13403.997    21914.265   0.12509928 
     130    267.20277   -8443.2463   -8413.4395   -13198.457    21914.265   0.13819283 
     140    269.21359   -8443.4705   -8413.4393   -12839.711    21914.265   0.15259322 
     150     276.3754   -8444.2699   -8413.4398   -12564.061    21914.265   0.16775295 
     160    282.09052   -8444.9077   -8413.4401   -12400.914    21914.265   0.18315323 
     170    283.74907   -8445.0928   -8413.4402     -12430.3    21914.265    0.1989762 
     180    279.57367   -8444.6271   -8413.4402   -12727.353    21914.265   0.21536827 
     190    272.01519   -8443.7829   -8413.4391   -12943.608    21914.265   0.23180139 
     200    272.98877   -8443.8921   -8413.4397   -13066.814    21914.265    0.2476891 
     210    278.28656   -8444.4833     -8413.44   -13119.162    21914.265   0.26290373 
     220    281.61115   -8444.8543   -8413.4402    -13052.65    21914.265   0.27743582 
     230    283.45537   -8445.0589    -8413.439   -12948.839    21914.265   0.29133107 
     240    292.81696   -8446.1046   -8413.4404   -13016.029    21914.265    0.3048675 
     250    295.20203   -8446.3705   -8413.4402   -13077.887    21914.265   0.31931215 
     260    290.46684   -8445.8415   -8413.4394   -13040.528    21914.265   0.33532684 
     270    290.61991    -8445.858   -8413.4389   -13235.455    21914.265   0.35239777 
     280    301.25443   -8447.0456   -8413.4402   -13515.282    21914.265   0.36952956 
     290    308.28623   -8447.8304   -8413.4406   -13611.572    21914.265   0.38667041 
     300    309.20907   -8447.9319   -8413.4392   -13455.868    21914.265    0.4041006 
     310     314.5316   -8448.5273   -8413.4408   -13198.597    21914.265   0.42152557 
     320    312.09261   -8448.2546   -8413.4402   -12968.083    21914.265   0.43866959 
     330    305.84421   -8447.5573   -8413.4399   -12657.381    21914.265   0.45536472 
     340    303.20988   -8447.2632   -8413.4397   -12498.026    21914.265   0.47172581 
     350    307.13857   -8447.7018     -8413.44   -12492.368    21914.265   0.48754232 
     360    312.15901   -8448.2619   -8413.4401   -12369.505    21914.265   0.50223919 
     370     318.6847   -8448.9898     -8413.44   -12195.898    21914.265   0.51545083 
     380    326.66636   -8449.8808   -8413.4407   -12030.164    21914.265   0.52751087 
     390    328.67292   -8450.1043   -8413.4403   -11786.931    21914.265   0.53983918 
     400    329.42172   -8450.1875     -8413.44   -11529.418    21914.265   0.55338123 
     410    329.12824   -8450.1558   -8413.4411   -11363.621    21914.265   0.56856317 
     420    321.17839   -8449.2675   -8413.4396   -11329.503    21914.265   0.58578319 
     430    319.73313   -8449.1067     -8413.44   -11645.546    21914.265   0.60460993 
     440    321.87014   -8449.3455   -8413.4404   -12168.872    21914.265   0.62482739 
     450    321.69175   -8449.3257   -8413.4405   -12517.526    21914.265   0.64605131 
     460    321.58625   -8449.3131   -8413.4397   -12738.117    21914.265   0.66602281 
     470    327.73765   -8450.0009   -8413.4413    -13118.13    21914.265   0.68222539 
     480    325.78012   -8449.7811   -8413.4399   -13518.975    21914.265   0.69547134 
     490    325.26696   -8449.7242   -8413.4402   -13912.333    21914.265   0.70709849 
     500    326.02809   -8449.8096   -8413.4407    -14245.82    21914.265    0.7181905 
     510     321.8067   -8449.3384   -8413.4404   -14358.421    21914.265   0.73031831 
     520    314.82643   -8448.5595   -8413.4401   -14393.561    21914.265   0.74493886 
     530    311.55922   -8448.1945   -8413.4396    -14504.26    21914.265   0.76206346 
     540    316.52181   -8448.7487   -8413.4402   -14692.451    21914.265   0.78048733 
     550    323.45997   -8449.5224     -8413.44   -14675.954    21914.265   0.79880458 
     560    332.20295   -8450.4987   -8413.4409    -14432.97    21914.265   0.81596428 
     570    332.37528   -8450.5179   -8413.4409   -14008.452    21914.265   0.83234674 
     580    324.44532    -8449.632   -8413.4397   -13682.622    21914.265   0.84880328 
     590    322.54654   -8449.4211   -8413.4405   -13611.186    21914.265   0.86493346 
     600    320.03229     -8449.14   -8413.4399   -13618.158    21914.265   0.88136827 
     610     322.0694   -8449.3667   -8413.4393   -13770.866    21914.265   0.89972436 
     620    332.97088   -8450.5844    -8413.441   -14040.679    21914.265   0.91979176 
     630    336.52886   -8450.9806   -8413.4403   -14106.634    21914.265    0.9400978 
     640    340.63169   -8451.4378   -8413.4399   -14084.373    21914.265   0.95883362 
     650     349.6267   -8452.4431   -8413.4417   -14126.089    21914.265   0.97518253 
     660     345.3101   -8451.9607   -8413.4408    -13925.09    21914.265   0.98949595 
     670    335.30236   -8450.8431   -8413.4396   -13541.064    21914.265    1.0025057 
     680    335.35657   -8450.8495     -8413.44   -13120.509    21914.265    1.0157598 
     690    342.86707   -8451.6878   -8413.4405   -12807.122    21914.265    1.0306556 
     700    350.61517   -8452.5527    -8413.441   -12613.893    21914.265    1.0481195 
     710    351.61871   -8452.6647   -8413.4411    -12558.63    21914.265     1.067876 
     720    346.37378   -8452.0785     -8413.44   -12478.274    21914.265    1.0873947 
     730    347.79156   -8452.2373   -8413.4406   -12593.955    21914.265    1.1041491 
     740    351.02442    -8452.599   -8413.4417   -12781.856    21914.265    1.1188548 
     750    344.89782   -8451.9145   -8413.4406   -12888.282    21914.265     1.133643 
     760      340.342   -8451.4064   -8413.4407   -13050.736    21914.265    1.1491825 
     770    340.04955   -8451.3737   -8413.4407   -13326.749    21914.265    1.1643304 
     780      345.357   -8451.9656   -8413.4405   -13558.373    21914.265    1.1777023 
     790    357.12317   -8453.2788   -8413.4411   -13831.043    21914.265    1.1886997 
     800    366.64045   -8454.3407   -8413.4414   -14129.874    21914.265    1.1976392 
     810    368.68447   -8454.5688   -8413.4415   -14063.484    21914.265    1.2056605 
     820    366.60174   -8454.3361   -8413.4411   -13908.726    21914.265    1.2141717 
     830    365.85586   -8454.2531   -8413.4413   -13853.131    21914.265    1.2243585 
     840     368.4524   -8454.5423   -8413.4409   -13972.673    21914.265    1.2365636 
     850    371.87492   -8454.9262    -8413.443    -14131.16    21914.265    1.2503596 
     860     358.1746   -8453.3954   -8413.4405     -13818.7    21914.265    1.2649975 
     870    354.45705   -8452.9806   -8413.4404   -13465.958    21914.265     1.278191 
     880    366.65296   -8454.3425   -8413.4418   -13399.092    21914.265    1.2880847 
     890    376.93995   -8455.4909   -8413.4426    -13274.53    21914.265    1.2959326 
     900    375.96913   -8455.3817   -8413.4418   -13062.805    21914.265    1.3041818 
     910    374.01489   -8455.1632   -8413.4413   -12824.206    21914.265    1.3130528 
     920    378.94842   -8455.7136   -8413.4414   -12747.174    21914.265    1.3222121 
     930    388.54983   -8456.7859   -8413.4426   -12880.601    21914.265    1.3329508 
     940    389.80019   -8456.9258    -8413.443   -12981.003    21914.265    1.3457299 
     950    382.52604   -8456.1127   -8413.4413   -12918.004    21914.265    1.3587946 
     960    381.75271   -8456.0275   -8413.4424   -13120.356    21914.265    1.3710856 
     970    380.20365    -8455.854   -8413.4417   -13297.868    21914.265    1.3835601 
     980    384.06597   -8456.2848   -8413.4416    -13360.21    21914.265    1.3967998 
     990    391.39252    -8457.104   -8413.4436    -13319.56    21914.265    1.4114384 
    1000    385.55287   -8456.4508   -8413.4418   -13032.957    21914.265    1.4285977 
    1010    381.98963   -8456.0536   -8413.4421   -12900.345    21914.265    1.4480597 
    1020    382.08452   -8456.0644   -8413.4423   -12891.786    21914.265    1.4678099 
    1030    380.66666   -8455.9065   -8413.4425   -12820.478    21914.265    1.4859085 
    1040    378.02017   -8455.6107    -8413.442   -12814.774    21914.265    1.5012686 
    1050    381.70997   -8456.0224   -8413.4421   -12925.622    21914.265    1.5119118 
    1060    391.42566   -8457.1073   -8413.4432    -13146.33    21914.265    1.5173209 
    1070    396.24192   -8457.6441   -8413.4428   -13102.084    21914.265    1.5196151 
    1080    397.63032   -8457.7993    -8413.443   -12889.784    21914.265    1.5211703 
    1090    396.12759   -8457.6308   -8413.4422   -12537.537    21914.265    1.5231683 
    1100    400.33119   -8458.1002   -8413.4426   -12299.668    21914.265    1.5256834 
    1110    407.17314   -8458.8635   -8413.4428   -12099.612    21914.265    1.5296348 
    1120    413.19804   -8459.5369    -8413.444   -11926.861    21914.265    1.5369315 
    1130    409.94165   -8459.1721   -8413.4425   -11927.354    21914.265    1.5487344 
    1140    411.69689   -8459.3679   -8413.4425   -12274.932    21914.265    1.5644715 
    1150    417.92932   -8460.0654   -8413.4448   -12599.199    21914.265    1.5822789 
    1160    409.45399   -8459.1175   -8413.4423   -12608.558    21914.265    1.6004412 
    1170    405.75202   -8458.7057   -8413.4435   -12496.116    21914.265    1.6169469 
    1180    399.97271   -8458.0606    -8413.443   -12466.412    21914.265    1.6317671 
    1190    393.04741   -8457.2883   -8413.4433   -12618.331    21914.265    1.6460138 
    1200    381.93867   -8456.0489   -8413.4431   -12576.103    21914.265    1.6602667 
    1210    376.72969   -8455.4667   -8413.4419   -12745.258    21914.265    1.6726433 
    1220     387.4652   -8456.6661   -8413.4437   -13270.317    21914.265    1.6819979 
    1230    392.11995   -8457.1848   -8413.4433   -13698.725    21914.265    1.6894908 
    1240    392.35374   -8457.2109   -8413.4432   -14054.078    21914.265    1.6958816 
    1250    387.63167   -8456.6848   -8413.4439   -14383.659    21914.265    1.7022745 
    1260    377.01437   -8455.4984   -8413.4419   -14780.957    21914.265    1.7098627 
    1270    380.16106   -8455.8505   -8413.4429    -15291.91    21914.265    1.7186286 
    1280    386.65141    -8456.575   -8413.4435   -15684.863    21914.265    1.7280931 
    1290    386.45138   -8456.5524   -8413.4431   -15669.118    21914.265    1.7377267 
    1300    384.49318   -8456.3333   -8413.4425   -15192.167    21914.265    1.7465203 
    1310    389.16883   -8456.8559   -8413.4435   -14748.802    21914.265    1.7543822 
    1320    395.91985   -8457.6092   -8413.4437   -14540.669    21914.265    1.7626209 
    1330    402.24128   -8458.3144   -8413.4438   -14482.176    21914.265    1.7719127 
    1340    406.72312   -8458.8138   -8413.4433   -14593.779    21914.265    1.7822942 
    1350    413.88937   -8459.6138   -8413.4438   -14633.206    21914.265    1.7929881 
    1360    418.26368   -8460.1021   -8413.4441   -14272.723    21914.265    1.8043383 
    1370    412.53709   -8459.4628   -8413.4437   -13640.472    21914.265    1.8173742 
    1380    404.03017    -8458.513   -8413.4428   -13053.663    21914.265    1.8314414 
    1390    402.11865   -8458.3013   -8413.4444   -12796.252    21914.265    1.8446224 
    1400    396.75786   -8457.7017   -8413.4428   -12890.081    21914.265    1.8555613 
    1410     401.1626   -8458.1945   -8413.4442   -13251.623    21914.265    1.8625402 
    1420    405.53922    -8458.683   -8413.4445   -13540.901    21914.265    1.8651673 
    1430    404.12534   -8458.5245   -8413.4437   -13662.885    21914.265    1.8648977 
    1440    405.72045   -8458.7027    -8413.444   -13771.634    21914.265    1.8643414 
    1450    406.67484   -8458.8092    -8413.444   -13873.149    21914.265    1.8661066 
    1460    406.94702   -8458.8395   -8413.4439   -13898.845    21914.265    1.8707341 
    1470    405.99802   -8458.7335   -8413.4438    -13583.81    21914.265    1.8783175 
    1480    405.25435   -8458.6503   -8413.4436   -13097.342    21914.265    1.8881067 
    1490    408.19865    -8458.979   -8413.4439   -12662.726    21914.265    1.8977467 
    1500    414.56579   -8459.6887   -8413.4433   -12296.863    21914.265    1.9065246 
    1510    429.03716   -8461.3044   -8413.4447   -11735.577    21914.265    1.9156573 
    1520    435.43303   -8462.0188   -8413.4456   -11140.275    21914.265    1.9269758 
    1530    420.46896   -8460.3486   -8413.4446     -10759.3    21914.265    1.9420002 
    1540    404.55727   -8458.5707   -8413.4417   -10562.297    21914.265    1.9594173 
    1550     414.5371   -8459.6878   -8413.4456   -10873.945    21914.265    1.9756145 
    1560    415.64167   -8459.8093   -8413.4438    -11180.84    21914.265    1.9896674 
    1570    417.51903   -8460.0192   -8413.4444   -11574.862    21914.265      2.00287 
    1580    420.71133   -8460.3754   -8413.4444   -12084.028    21914.265    2.0173903 
    1590    422.23753   -8460.5459   -8413.4446   -12650.323    21914.265    2.0354221 
    1600    420.26548   -8460.3254   -8413.4441   -13157.964    21914.265    2.0567995 
    1610    418.97614   -8460.1816   -8413.4442   -13379.664    21914.265    2.0784503 
    1620    422.99101    -8460.629   -8413.4437   -13476.483    21914.265    2.0978277 
    1630    431.41255   -8461.5707    -8413.446   -13473.665    21914.265     2.115193 
    1640    426.28653   -8460.9963   -8413.4434   -13430.412    21914.265    2.1338075 
    1650    431.13487   -8461.5387    -8413.445   -13658.596    21914.265       2.1559 
    1660    436.17822   -8462.1019   -8413.4456   -13638.641    21914.265    2.1797337 
    1670    428.12023   -8461.2022   -8413.4447   -13252.346    21914.265    2.2035441 
    1680    422.66155   -8460.5919   -8413.4434   -13022.696    21914.265    2.2262152 
    1690    430.34848   -8461.4521    -8413.446   -12966.155    21914.265    2.2464937 
    1700    426.21611   -8460.9896   -8413.4446   -12849.343    21914.265    2.2649593 
    1710    421.63281   -8460.4781   -8413.4443    -12902.06    21914.265    2.2822078 
    1720    425.52952   -8460.9136   -8413.4451   -13254.993    21914.265    2.2992296 
    1730    433.21398   -8461.7705   -8413.4448   -13760.925    21914.265    2.3170264 
    1740    441.86781   -8462.7372   -8413.4461   -14050.542    21914.265    2.3352522 
    1750    438.27813    -8462.336   -8413.4454   -13921.401    21914.265    2.3528289 
    1760    429.17186   -8461.3192   -8413.4444   -13408.002    21914.265    2.3694072 
    1770    428.81898   -8461.2807   -8413.4453    -12917.73    21914.265    2.3858611 
    1780    433.34916   -8461.7857    -8413.445   -12638.931    21914.265    2.4026666 
    1790     441.0669   -8462.6474   -8413.4457   -12705.172    21914.265     2.419074 
    1800    447.24535   -8463.3359    -8413.445   -12842.309    21914.265    2.4345236 
    1810    451.04914   -8463.7611   -8413.4459   -13058.485    21914.265    2.4502124 
    1820    445.08252   -8463.0941   -8413.4445   -13035.825    21914.265    2.4671851 
    1830    441.70858   -8462.7187   -8413.4454   -12922.342    21914.265    2.4853863 
    1840    432.65555   -8461.7082   -8413.4449   -13058.866    21914.265    2.5046773 
    1850    428.24526   -8461.2146   -8413.4432   -13494.155    21914.265    2.5239509 
    1860    442.70809   -8462.8312   -8413.4464     -14052.9    21914.265    2.5417036 
    1870    445.34398   -8463.1238   -8413.4451   -14177.248    21914.265    2.5577578 
    1880    449.56383   -8463.5931   -8413.4436   -14088.107    21914.265    2.5732932 
    1890    469.70151   -8465.8424   -8413.4465   -13965.821    21914.265    2.5900107 
    1900    475.61979   -8466.5029   -8413.4468   -13338.709    21914.265    2.6092547 
    1910    460.77113   -8464.8444   -8413.4447   -12266.897    21914.265    2.6300063 
    1920    453.29076   -8464.0097   -8413.4444   -11600.031    21914.265    2.6488623 
    1930    455.01355   -8464.2038   -8413.4464   -11532.276    21914.265     2.664581 
    1940    446.57627   -8463.2611   -8413.4448   -11610.068    21914.265    2.6787843 
    1950    442.24787   -8462.7779   -8413.4445    -12067.88    21914.265     2.691974 
    1960    445.34565   -8463.1243   -8413.4453   -12574.104    21914.265    2.7033659 
    1970     445.3849   -8463.1293   -8413.4459   -12683.518    21914.265    2.7130116 
    1980    438.45896   -8462.3558    -8413.445   -12521.804    21914.265    2.7223802 
    1990    435.82997    -8462.062   -8413.4445   -12590.151    21914.265    2.7312795 
    2000    445.20858   -8463.1089   -8413.4452   -13039.215    21914.265    2.7384799 
Loop time of 1207.76 on 16 procs for 2000 steps with 864 atoms

Performance: 0.143 ns/day, 167.744 hours/ns, 1.656 timesteps/s
96.8% CPU use with 16 MPI tasks x 1 OpenMP threads

MPI task timing breakdown:
Section |  min time  |  avg time  |  max time  |%varavg| %total
---------------------------------------------------------------
Pair    | 413.19     | 694.44     | 1188.3     | 850.4 | 57.50
Bond    | 0.00015616 | 0.00034671 | 0.00069809 |   0.0 |  0.00
Neigh   | 0.017659   | 0.029805   | 0.054709   |   6.5 |  0.00
Comm    | 19.281     | 452.2      | 688.46     | 967.3 | 37.44
Output  | 0.13506    | 41.78      | 94.123     | 548.5 |  3.46
Modify  | 0.0093658  | 0.010196   | 0.011437   |   0.5 |  0.00
Other   |            | 19.3       |            |       |  1.60

Nlocal:        54.0000 ave          84 max          36 min
Histogram: 3 3 4 0 0 2 1 0 1 2
Nghost:        477.750 ave         592 max         348 min
Histogram: 2 0 2 1 3 3 1 0 0 4
Neighs:         0.00000 ave           0 max           0 min
Histogram: 16 0 0 0 0 0 0 0 0 0
FullNghs:      2234.12 ave        4892 max        1038 min
Histogram: 5 5 0 0 2 0 2 0 0 2

Total # of neighbors = 35746
Ave neighs/atom = 41.372685
Ave special neighs/atom = 0.0000000
Neighbor list builds = 199
Dangerous builds = 198
Setting up Verlet run ...
  Unit style    : metal
  Current step  : 2000
  Time step     : 0.001
Per MPI rank memory allocation (min/avg/max) = 8.894 | 8.907 | 8.916 Mbytes
Step Temp PotEng TotEng Press Volume c_msd[4] 
    2000          975   -8463.1089   -8354.3462   -10158.684    21914.265    2.7384799 
    2010    874.09658   -8451.8983   -8354.3915   -8921.8095    21908.066    2.7411938 
    2020    743.93723   -8437.3634   -8354.3761   -7046.3882    21890.899     2.746066 
    2030    728.40422   -8435.3608   -8354.1062   -6777.8155    21864.868    2.7474037 
    2040    722.58582    -8434.096   -8353.4905   -6203.9996    21830.619    2.7452384 
    2050     722.6767   -8433.2278   -8352.6121     -5492.54    21788.917    2.7421063 
    2060    739.92784    -8434.177    -8351.637   -4999.0291    21740.755    2.7408809 
    2070    735.45675   -8432.7769   -8350.7356   -3718.3388    21687.116    2.7433601 
    2080    736.77149   -8432.0992   -8349.9113    -2236.597    21629.781    2.7488229 
    2090    749.10156   -8432.6227   -8349.0592   -1417.5461    21570.779    2.7559927 
    2100     755.1839   -8432.3681   -8348.1262   -1275.3758    21511.434    2.7617351 
    2110    773.80071   -8433.4306    -8347.112   -1620.4416    21452.261     2.763522 
    2120    790.08897   -8434.1553   -8346.0197   -1993.8323    21393.242    2.7644415 
    2130    794.91892   -8433.5643   -8344.8899   -2329.8903     21334.26    2.7697865 
    2140    795.29178   -8432.4387   -8343.7227   -2763.1149    21275.258    2.7819804 
    2150    800.40474    -8431.808   -8342.5216   -2994.4151    21216.133    2.7992676 
    2160    808.66748   -8431.4905   -8341.2824   -2656.5778    21157.019     2.816893 
    2170    816.87574   -8431.1008   -8339.9771   -1676.6045    21098.615    2.8313665 
    2180    834.07085   -8431.6249   -8338.5831   -415.45975    21042.212    2.8425491 
    2190    865.56247    -8433.657   -8337.1022    551.13407     20989.25    2.8532294 
    2200    892.96826   -8435.2199    -8335.608    1041.2791    20940.663    2.8675105 
    2210    879.54843   -8432.2852   -8334.1702    1947.6756    20896.878    2.8890962 
    2220    862.38595   -8429.0051   -8332.8046    2601.1715    20858.495    2.9156832 
    2230     889.4068   -8430.6522   -8331.4375    1922.1413    20825.671    2.9394373 
    2240    904.76413   -8430.9742   -8330.0464     1159.829    20797.365    2.9580536 
    2250    906.00011   -8429.7191   -8328.6534    902.86727    20772.441    2.9748898 
    2260    906.53899   -8428.3749   -8327.2491    1358.3945    20750.364    2.9943589 
    2270    916.13293   -8428.0321   -8325.8361    1765.7387    20731.287    3.0183188 
    2280    946.54418    -8430.024   -8324.4355    1244.2563    20715.285    3.0465549 
    2290    966.09056   -8430.8744   -8323.1055    543.68934    20701.628    3.0771772 
    2300    963.06429   -8429.3127   -8321.8814    580.73513     20689.45    3.1079424 
    2310    963.36089   -8428.2084    -8320.744    1555.0404    20678.704    3.1361453 
    2320    977.42548    -8428.681   -8319.6477    2347.9074    20670.205    3.1630692 
    2330    989.46991   -8428.9752   -8318.5983    2598.6178    20664.619    3.1933807 
    2340     978.4694   -8426.7768   -8317.6271    2913.3374    20662.114    3.2302321 
    2350    974.59433   -8425.4512   -8316.7337    2513.6326    20662.787    3.2735388 
    2360    995.34783   -8426.9174   -8315.8848    1053.2032    20666.029    3.3224313 
    2370    998.90025   -8426.5232   -8315.0943    101.31998    20670.332    3.3756302 
    2380    981.27053   -8423.8352    -8314.373    218.39699    20674.703    3.4303235 
    2390    988.51945   -8423.9573   -8313.6864    83.135426    20679.119    3.4833899 
    2400    1033.0155   -8428.2721   -8313.0377    -373.5148    20683.433    3.5332521 
    2410    1042.6378   -8428.8192   -8312.5114   -7.8713396     20687.29    3.5840497 
    2420    1018.4232   -8425.7674   -8312.1608    728.20341    20691.046     3.641483 
    2430    1013.6506   -8425.0138   -8311.9395    944.32283    20695.402    3.7068122 
    2440    1038.9063    -8427.728   -8311.8364    1240.7796    20700.649    3.7804528 
    2450     1046.854   -8428.6671    -8311.889    2190.3331    20707.166    3.8625647 
    2460    1068.7884   -8431.3629    -8312.138    2648.0073    20715.815    3.9484595 
    2470    1074.2523   -8432.4642   -8312.6298    2930.3581    20727.062    4.0318779 
    2480    1043.7392   -8429.7939   -8313.3632    3350.6231    20741.177    4.1089716 
    2490    1032.8338   -8429.4841     -8314.27    3159.6985    20758.442    4.1814227 
    2500    1035.0366   -8430.7599      -8315.3    2843.2216    20778.606    4.2556014 
    2510    1032.4297   -8431.6114   -8316.4423    2639.7977    20801.253    4.3380884 
    2520    1021.1216   -8431.5853   -8317.6777    2904.7744    20826.119     4.429732 
    2530    1007.5748   -8431.3517   -8318.9552    3094.1387    20853.316    4.5254059 
    2540     985.1421   -8430.0944   -8320.2003    3149.9989    20882.958    4.6217696 
    2550    980.82703   -8430.7781   -8321.3653     2270.915    20914.892    4.7190227 
    2560    1031.5715   -8437.5792   -8322.5058    146.36451    20947.971    4.8198784 
    2570    1041.2482   -8439.8313   -8323.6784   -1183.4723    20979.963    4.9279997 
    2580    1002.4347   -8436.6946   -8324.8716   -1083.7896    21009.433    5.0370586 
    2590     991.5625    -8436.649   -8326.0387   -1078.3829    21036.402    5.1418416 
    2600    1006.7745   -8439.5006   -8327.1934   -1237.3471    21060.952    5.2426401 
    2610    993.66421   -8439.1868   -8328.3421    -1369.856    21083.018     5.338257 
    2620    970.00319   -8437.6458   -8329.4404    -1946.495    21102.484    5.4261506 
    2630    967.21073   -8438.3581   -8330.4642   -2390.6428    21118.866    5.5082365 
    2640    977.62038   -8440.4938   -8331.4388   -2226.2797    21131.845    5.5913846 
    2650    970.64243   -8440.6473   -8332.3706   -1725.0082    21141.729    5.6775494 
    2660    949.68476   -8439.1787   -8333.2399   -1170.6769    21149.212    5.7601558 
    2670    930.43048   -8437.7893   -8333.9984   -1239.0655    21154.966    5.8380008 
    2680    949.01202   -8440.5436   -8334.6799   -2269.6357    21158.951    5.9163874 
    2690    946.49103   -8440.8925     -8335.31   -3097.7756    21160.219    6.0009055 
    2700    952.06379   -8442.0935   -8335.8894   -3764.9498    21157.948    6.0915329 
    2710    953.60596   -8442.7858   -8336.4096   -4286.0961    21151.587     6.182124 
    2720    960.26462    -8444.003   -8336.8841   -4252.4409    21140.825    6.2675672 
    2730    965.33602    -8444.965   -8337.2804   -4015.6499    21125.909     6.346708 
    2740     962.0016   -8444.9245   -8337.6117   -3386.9708    21107.374    6.4200015 
    2750    946.34921   -8443.4578   -8337.8911    -2007.281    21086.182    6.4886814 
    2760    946.76013   -8443.7468   -8338.1343    -1026.785     21063.86    6.5564088 
    2770    930.01853   -8442.0595   -8338.3145   -101.59443    21041.641    6.6257267 
    2780    946.86848    -8444.051   -8338.4264    195.60209    21020.467    6.6939171 
    2790     975.3612   -8447.3005   -8338.4975    642.53573    21000.709    6.7593095 
    2800    975.13652   -8447.3288   -8338.5509    1679.0386     20982.82    6.8246751 
    2810      977.903   -8447.6874   -8338.6008    2858.0776    20967.793    6.8942124 
    2820    980.22737   -8447.9901   -8338.6442     3139.786     20956.66    6.9733303 
    2830    1008.2098   -8451.1785   -8338.7112    2231.7184    20949.477    7.0664876 
    2840    1011.5886   -8451.6738   -8338.8295    1064.3709    20945.102     7.173723 
    2850    1000.4176   -8450.6115   -8339.0135    179.29135    20942.155    7.2851719 
    2860     997.8787   -8450.5635   -8339.2486   -711.66825    20939.548    7.3894878 
    2870    1007.4079   -8451.9268   -8339.5489   -1562.0979    20936.293    7.4832958 
    2880    1017.1773   -8453.4151   -8339.9474   -2353.7609     20931.48    7.5712419 
    2890    1009.1271   -8453.0047    -8340.435   -2482.8939    20924.384    7.6551332 
    2900    990.80315   -8451.4988   -8340.9732   -2179.2381    20914.963    7.7287788 
    2910    990.66021   -8452.0589   -8341.5492   -2046.4411    20903.594    7.7889966 
    2920    989.84556   -8452.5933   -8342.1745   -1743.0902    20890.562    7.8395796 
    2930    981.04922   -8452.2527   -8342.8152    -1446.108    20876.253    7.8887724 
    2940    1002.7789   -8455.3469   -8343.4854   -1857.9475    20860.956    7.9406639 
    2950    1009.6438   -8456.8625   -8344.2352   -2212.6053    20844.341    7.9935206 
    2960     984.4442   -8454.8561   -8345.0399   -1784.7244    20826.169     8.044531 
    2970    969.01098   -8453.9412   -8345.8466   -970.89347    20806.907    8.0957896 
    2980    957.77134   -8453.4318    -8346.591    193.72273    20787.529    8.1562625 
    2990    964.79451   -8454.8953    -8347.271    639.54649    20769.165    8.2312591 
    3000    959.63876   -8454.9259   -8347.8767      975.507    20752.352    8.3158838 
    3010    981.81447   -8457.9558    -8348.433    757.93365    20737.305    8.3997755 
    3020    983.64561   -8458.7157   -8348.9885    1016.2843    20723.788    8.4799927 
    3030    955.78622   -8456.1301   -8349.5107      2247.35    20712.077    8.5588219 
    3040     991.4124      -8460.6   -8350.0064    2852.5519    20703.254    8.6389793 
    3050    1007.4155   -8462.9173   -8350.5386    3173.5732    20697.872    8.7195361 
    3060    1002.7048    -8462.991   -8351.1378    3222.7192    20696.117     8.797104 
    3070    1011.4015   -8464.6482   -8351.8248    2399.4799    20697.836    8.8737445 
    3080    996.73052   -8463.7626   -8352.5758    1592.0827    20702.095    8.9516092 
    3090    1015.0693   -8466.6214   -8353.3889     1175.955    20707.941     9.029849 
    3100    993.52277   -8465.0749   -8354.2459    1534.4423    20714.899    9.1165685 
    3110    977.44606   -8464.1237   -8355.0881    1768.4894    20723.224    9.2226028 
    3120    977.10198   -8464.8887   -8355.8915    1618.9228    20733.126    9.3438558 
    3130    960.94633    -8463.818    -8356.623    992.41257    20744.367    9.4721467 
    3140    975.06928   -8466.0421   -8357.2716   -581.57599    20756.161    9.6005277 
    3150    1003.9105   -8469.9024   -8357.9147   -2382.3897     20766.81     9.721875 
    3160    981.08999   -8468.0176   -8358.5755   -2588.3335    20774.611    9.8393576 
    3170     982.6129   -8468.8539    -8359.242   -2311.6841    20779.319    9.9598756 
    3180    959.27223   -8466.8717   -8359.8634   -1804.0962    20781.362    10.084772 
    3190    945.78641    -8465.914   -8360.4101   -1705.3412    20781.316    10.210404 
    3200    947.55944    -8466.579   -8360.8773   -1507.9857    20779.442    10.329997 
    3210    990.79787   -8471.8438   -8361.3188    -1498.761    20775.994    10.438609 
    3220    1015.5207   -8475.1031   -8361.8202   -1649.5815    20771.026    10.542083 
    3230    984.70919   -8472.2243   -8362.3785   -794.32926    20764.589    10.653542 
    3240     967.2884   -8470.8299   -8362.9274   -644.90151    20757.476     10.77879 
    3250    966.35041   -8471.2379     -8363.44   -1004.6489    20749.899    10.910134 
    3260    967.93513    -8471.898   -8363.9234   -851.60467    20741.593    11.037994 
    3270    980.56733   -8473.7697    -8364.386   -423.77945    20732.715    11.162497 
    3280    997.32596   -8476.1178   -8364.8646   -4.1574367    20723.741    11.279347 
    3290    1001.0368   -8477.0638   -8365.3966    212.42516     20715.09    11.382745 
    3300    1004.6163   -8478.0466   -8365.9802    271.98006    20707.002    11.476988 
    3310    991.32993   -8477.1791   -8366.5947     145.9915     20699.53     11.57075 
    3320    971.89529   -8475.6322   -8367.2158   -483.30474    20692.473    11.667557 
    3330    960.46151   -8474.9681   -8367.8271   -1210.2393    20685.172    11.768948 
    3340    938.16491   -8473.0398   -8368.3861   -880.19241    20676.965    11.874521 
    3350    951.93676   -8475.0688   -8368.8789   -267.78657    20668.159    11.982812 
    3360    972.39025   -8477.8018   -8369.3302    361.87164    20659.442     12.09308 
    3370    951.35415    -8475.853    -8369.728    777.56856    20651.446    12.204727 
    3380    951.86774   -8476.2598   -8370.0776    727.76129    20644.558    12.316914 
    3390    934.24925   -8474.5622   -8370.3453    1053.3996    20638.792    12.435782 
    3400    938.95229   -8475.2669   -8370.5254    1212.9008    20634.382    12.563429 
    3410    968.70744   -8478.6972   -8370.6364    539.46453    20631.366    12.697363 
    3420    974.84288   -8479.4619   -8370.7167    100.58291    20629.089    12.828995 
    3430    955.54174   -8477.3781    -8370.786    421.28125    20627.101    12.953883 
    3440    950.35093   -8476.8221    -8370.809    341.46701    20625.604    13.077093 
    3450    966.43973   -8478.5892   -8370.7814   -310.01877    20624.475    13.202851 
    3460    955.26305   -8477.2563   -8370.6953   -869.06749    20623.088    13.326514 
    3470    983.83565   -8480.3248   -8370.5764   -1692.6697    20620.794    13.439886 
    3480    980.95285   -8479.8714   -8370.4447   -1663.9863    20616.867    13.538969 
    3490    975.83905   -8479.1667   -8370.3104   -1389.2325    20611.353    13.624057 
    3500    1029.2215   -8485.0151   -8370.2039   -2074.0773    20604.486    13.700444 
    3510    1031.7863   -8485.2973      -8370.2   -2285.3809    20595.746    13.773887 
    3520    1014.2048   -8483.4772   -8370.3412    -1470.985    20585.049    13.844668 
    3530    1016.1716   -8483.9795    -8370.624   -899.00445    20573.159    13.910163 
    3540    997.84552    -8482.338   -8371.0268   -43.619821    20560.829    13.965809 
    3550    1011.1015   -8484.3494   -8371.5595    245.23161     20548.87    14.012679 
    3560    993.17383   -8483.0197   -8372.2296    1254.2973     20537.74    14.059587 
    3570    967.78842   -8480.9439   -8372.9857     1925.879    20528.353     14.11594 
    3580    990.80509   -8484.3556   -8373.8298    1728.7921    20521.289     14.18488 
    3590    1000.9139   -8486.4285    -8374.775    1495.7701    20516.328    14.263961 
    3600    1007.0306   -8488.1541   -8375.8183    815.53369    20513.095    14.351273 
    3610    1013.0015   -8489.9238    -8376.922   -135.82754    20510.805    14.448283 
    3620    997.71792   -8489.3088   -8378.0118   -389.35315    20508.517    14.547757 
    3630    997.40864   -8490.2702   -8379.0078   -281.69232    20505.929    14.639501 
    3640    1008.1037   -8492.3715   -8379.9161    -65.62287    20503.139    14.723793 
    3650    986.69368    -8490.783   -8380.7158    305.18208    20500.392    14.804732 
    3660    987.73536   -8491.5897   -8381.4063   -140.47311    20497.985    14.887944 
    3670    985.44634   -8491.9219   -8381.9939   -1018.9132    20495.481    14.978012 
    3680    989.07445     -8492.86   -8382.5272   -1805.2009    20491.983    15.075885 
    3690    972.16515   -8491.4388   -8382.9923   -2013.5653     20486.75    15.182388 
    3700    989.42716   -8493.7631    -8383.391   -2305.6701     20479.53     15.29055 
    3710    1000.1301   -8495.3212   -8383.7551   -2314.2361    20470.135    15.388952 
    3720    1017.1455   -8497.6268   -8384.1627   -2325.5787    20458.578    15.472164 
    3730    1009.9013    -8497.295    -8384.639   -1912.1859    20444.983    15.544336 
    3740    993.01556   -8495.9238   -8385.1514    -1632.954    20429.782    15.611959 
    3750    1004.8195   -8497.7644   -8385.6753   -1955.5917    20413.278    15.683191 
    3760    1007.9598   -8498.6734   -8386.2339   -1928.6809    20395.292    15.759168 
    3770    985.58393   -8496.7579   -8386.8145   -917.51892    20375.979    15.831531 
    3780    973.56261   -8495.9806   -8387.3782    119.17408    20356.338    15.891862 
    3790    966.49117   -8495.7058   -8387.8923    1448.4647    20337.517    15.945167 
    3800    990.69532   -8498.8844   -8388.3709    2634.6928    20320.834    15.999399 
    3810     1020.762   -8502.7409   -8388.8733    2972.4691    20307.383    16.059883 
    3820    1023.4371   -8503.6161   -8389.4502    2996.4651    20297.465    16.126619 
    3830     1012.421   -8503.0453   -8390.1082    2989.0675    20290.991    16.196862 
    3840    999.65145   -8502.3318   -8390.8191    2932.0374    20287.846    16.276355 
    3850    983.07603   -8501.1908   -8391.5271    2500.2781    20287.826    16.365302 
    3860    992.50454   -8502.9309   -8392.2155    1538.2243    20290.367    16.458792 
    3870    992.85113   -8503.6257   -8392.8717    312.22391    20294.426    16.557539 
    3880    1007.3468   -8505.8864   -8393.5154   -888.15689     20298.71    16.661017 
    3890    1031.6383   -8509.2799   -8394.1991    -1742.613    20301.964    16.763724 
    3900    1003.2411   -8506.8447   -8394.9316   -1344.7407     20303.42    16.858688 
    3910    964.52838   -8503.2163   -8395.6217   -1111.4186    20303.405    16.947614 
    3920    985.08778   -8506.1425   -8396.2544   -1548.7196    20302.156    17.037103 
    3930    969.93117   -8505.0292   -8396.8319   -1348.6668    20299.399    17.134509 
    3940    962.08333    -8504.657   -8397.3352    -756.3425     20295.34    17.239406 
    3950    997.72963   -8509.0923   -8397.7941   -301.46879    20290.576    17.349349 
    3960    1012.5778   -8511.2164   -8398.2618    823.27295    20285.719    17.464102 
    3970    1029.9104    -8513.682    -8398.794    1896.8546    20281.829    17.581924 
    3980    1011.6942   -8512.2439   -8399.3878    3432.0998    20280.089     17.70536 
    3990    990.89013   -8510.5442   -8400.0089    4578.7764    20281.959    17.838127 
    4000    1003.0699   -8512.5389    -8400.645    4242.5489    20288.437    17.981378 
    4010    1014.8555    -8514.521   -8401.3123    2914.1049    20299.093    18.138937 
    4020    990.84023   -8512.5105   -8401.9808    1863.0176    20312.541    18.312929 
    4030    986.36332   -8512.6285   -8402.5982    1079.5167    20327.589    18.498604 
    4040     993.3549   -8514.0004   -8403.1902    639.02056    20343.369    18.686001 
    4050     957.2612   -8510.5258   -8403.7418    584.20575    20359.401    18.869837 
    4060    954.70156   -8510.7155   -8404.2171    149.32308    20375.545    19.050094 
    4070    969.14211    -8512.712   -8404.6027   -33.591317    20391.418    19.219617 
    4080    981.18988   -8514.3873   -8404.9341    53.942844     20406.82    19.371764 
    4090    997.41831   -8516.5278   -8405.2643    384.75142    20421.841    19.510619 
    4100    974.51515   -8514.3058   -8405.5972    1197.9009    20436.884    19.646581 
    4110    996.99262   -8517.1462   -8405.9302    1267.4027    20452.688    19.786061 
    4120    1039.3689   -8522.2586   -8406.3155    654.14763     20469.31    19.923186 
    4130    1018.0334    -8520.374   -8406.8108    253.61632    20486.187    20.053295 
    4140    984.19933   -8517.1593   -8407.3704   -390.02582    20502.828    20.172614 
    4150    961.23745   -8515.1435   -8407.9161   -797.09255    20518.598    20.279893 
    4160    939.06201   -8513.1461   -8408.3923   -584.76065    20533.127    20.384872 
    4170    949.64198   -8514.7108   -8408.7768   -966.13127    20546.566    20.496505 
    4180    994.52931   -8520.0514   -8409.1102      -1768.7    20558.561    20.618925 
    4190    998.91822   -8520.8992   -8409.4684   -1908.6761    20568.388    20.752204 
    4200    976.58794   -8518.7938    -8409.854    -1885.781    20575.903    20.891577 
    4210    983.87684   -8519.9881   -8410.2352   -2549.1838    20581.125    21.031147 
    4220    993.04288    -8521.396   -8410.6205   -3566.2737    20583.438    21.166364 
    4230    1002.8628   -8522.9176   -8411.0467   -4144.8126    20581.893     21.29472 
    4240    996.05274   -8522.6398   -8411.5286   -3507.0986    20576.071    21.417825 
    4250       961.77   -8519.3015   -8412.0146   -1967.6827    20566.751    21.532794 
    4260    966.46146   -8520.2684   -8412.4582   -814.89816    20555.554    21.633759 
    4270    989.50454   -8523.2589   -8412.8782   -417.62817    20543.748    21.727564 
    4280    959.54073   -8520.3033   -8413.2651    309.16521    20531.918    21.825218 
    4290    945.70016   -8519.0551   -8413.5609    429.59704    20520.714    21.931485 
    4300    988.80262   -8524.0899   -8413.7875   -216.78374    20510.222    22.046033 
    4310    1016.0682   -8527.3787   -8414.0347   -156.87364    20499.903    22.167771 
    4320    1007.0287   -8526.6911   -8414.3555    571.94202     20489.82    22.298118 
    4330     985.3594   -8524.6428   -8414.7244    1203.8824    20480.668    22.432383 
    4340    981.37431   -8524.5706   -8415.0969    1140.5542    20473.038    22.558144 
    4350    1002.0228    -8527.261   -8415.4839    549.77179    20466.818    22.669779 
    4360    1000.3344    -8527.488   -8415.8992    410.68932    20461.444    22.769999 
    4370    989.44521   -8526.7119   -8416.3378    684.27367    20456.733     22.86485 
    4380    980.48829   -8526.1439   -8416.7689    1101.4345    20452.917    22.965668 
    4390    967.32166   -8525.0765   -8417.1703     1184.198    20450.357     23.07902 
    4400    965.37692   -8525.2057   -8417.5165    955.23941    20449.126     23.20191 
    4410    998.53629   -8529.2261   -8417.8379     -151.428    20448.857     23.33246 
    4420    1005.7284   -8530.3693   -8418.1788   -934.83061    20448.486    23.464422 
    4430    982.44594   -8528.1269   -8418.5336    -1352.723    20447.172    23.589519 
    4440    975.70608   -8527.6893   -8418.8478   -1821.0096    20444.463    23.710272 
    4450    998.33883   -8530.4938   -8419.1276   -2332.1785    20439.906    23.833359 
    4460    1003.3067   -8531.3229   -8419.4025   -2276.8975    20433.082    23.958065 
    4470     1014.293   -8532.8493   -8419.7033    -1523.728     20424.11    24.078194 
    4480    997.27882   -8531.2723   -8420.0243    247.67343     20413.91     24.18846 
    4490    957.48647   -8527.1351    -8420.326    1462.8453    20404.236    24.286372 
    4500    955.82415   -8527.1881   -8420.5645    1377.2764    20396.285    24.374548 
    4510    991.46882   -8531.3527   -8420.7528    428.63725    20389.949    24.457583 
    4520    1008.2552   -8533.4244    -8420.952    180.82194    20384.342     24.53957 
    4530    1015.0526   -8534.4293   -8421.1986    573.37218    20379.144    24.626128 
    4540    1029.5754    -8536.378   -8421.5273    986.64771    20374.704    24.722224 
    4550    1000.0461   -8533.4694   -8421.9128    1622.8945    20371.484    24.827688 
    4560    976.37186   -8531.2063   -8422.2906    1657.8053    20370.007    24.938522 
    4570    978.22869   -8531.7449    -8422.622    1176.3589    20370.267    25.053802 
    4580    983.09759   -8532.6044   -8422.9384    1124.1403    20371.816    25.175803 
    4590    997.44495   -8534.5411   -8423.2746    1386.8418    20374.545    25.305269 
    4600    1004.9107   -8535.7614   -8423.6621    1333.7755    20378.646    25.446758 
    4610    985.17079   -8533.9759   -8424.0786    1081.8607    20384.049    25.601744 
    4620    999.56888    -8536.024   -8424.5206    182.60849    20390.354    25.769556 
    4630    1004.5641   -8537.0623   -8425.0017   -493.67334    20396.691    25.952136 
    4640    996.10628   -8536.6397   -8425.5226   -1007.5013    20402.344    26.148675 
    4650    1019.7145   -8539.8492   -8426.0985   -1671.2152    20406.739    26.355262 
    4660    998.19771   -8538.0721   -8426.7217   -1639.3211    20409.321    26.563008 
    4670    974.03259   -8535.9844   -8427.3296     -1766.05    20410.092    26.759703 
    4680    1005.2415   -8540.0597   -8427.9235   -2492.1873    20408.915    26.938892 
    4690    993.78613   -8539.3674   -8428.5091   -2150.5635    20405.279    27.101364 
    4700    983.12954   -8538.7454   -8429.0759    -1944.598    20399.473    27.252315 
    4710    981.89552   -8539.1453   -8429.6134   -1831.7362    20391.807    27.397401 
    4720    978.83469   -8539.3053   -8430.1148   -1686.6271    20382.452    27.539271 
    4730    984.19008   -8540.3668   -8430.5789    -1394.206    20371.632    27.674157 
    4740    995.89687   -8542.1118    -8431.018   -904.84686    20359.737    27.800369 
    4750    998.12364   -8542.8065   -8431.4643   -672.27548    20347.247    27.923751 
    4760    977.45459   -8540.9208   -8431.8842   -291.57358    20334.479    28.049036 
    4770     1015.238   -8545.5409   -8432.2896   -972.40849    20321.682    28.177395 
    4780    1048.0051   -8549.6666     -8432.76   -664.02397    20308.371    28.302812 
    4790    1027.8738   -8547.9804   -8433.3196    1091.4423    20294.929    28.421157 
    4800    1008.5582   -8546.4163   -8433.9101    2320.4826    20282.984    28.531777 
    4810    987.32803   -8544.6078   -8434.4699    2814.8213    20273.792    28.633213 
    4820    984.57604   -8544.8045   -8434.9736    2449.8756    20267.758    28.726529 
    4830    1011.0173   -8548.2399   -8435.4594    777.91825    20264.322    28.815071 
    4840    1027.1714   -8550.5591   -8435.9766   -288.22708    20261.869    28.897081 
    4850    1027.0205   -8551.1167    -8436.551   -259.85327    20259.287    28.966916 
    4860    1028.1613   -8551.8628   -8437.1699    46.121152    20256.556      29.0243 
    4870    1038.5461    -8553.693   -8437.8416    26.916113    20253.927    29.074472 
    4880    1023.4175   -8552.7212   -8438.5575    372.60452    20251.444    29.127266 
    4890    1009.3684   -8551.8649   -8439.2683    396.05071    20249.402    29.197887 
    4900    1030.2518   -8554.9071    -8439.981   -369.48442    20247.756    29.296279 
    4910    1012.3976   -8553.6346   -8440.7001   -504.27192    20245.845    29.419694 
    4920    999.54549   -8552.8899   -8441.3891   -575.30955    20243.463     29.55052 
    4930    1026.9958   -8556.6338   -8442.0709   -963.18605    20240.517    29.669784 
    4940    1049.0469   -8559.8162   -8442.7934    -1036.942    20236.703    29.773313 
    4950    1080.3074   -8564.1581   -8443.6482   -807.22958    20231.902    29.872861 
    4960    1040.7704   -8560.7099   -8444.6104    1054.5171    20226.558     29.98468 
    4970    1001.9582   -8557.3348   -8445.5649    2195.4167    20222.383    30.125266 
    4980    1001.1955    -8558.149   -8446.4641    1655.5525    20220.446    30.300426 
    4990    988.33367   -8557.5356   -8447.2855     1101.957    20220.299    30.494259 
    5000    979.04391   -8557.2346   -8448.0208     1144.863    20221.368    30.687501 
Loop time of 2039.12 on 16 procs for 3000 steps with 864 atoms

Performance: 0.127 ns/day, 188.808 hours/ns, 1.471 timesteps/s
95.9% CPU use with 16 MPI tasks x 1 OpenMP threads

MPI task timing breakdown:
Section |  min time  |  avg time  |  max time  |%varavg| %total
---------------------------------------------------------------
Pair    | 856.59     | 1311.4     | 2012       | 995.2 | 64.31
Bond    | 0.00023198 | 0.00057922 | 0.0011547  |   0.0 |  0.00
Neigh   | 0.02884    | 0.047372   | 0.089624   |   9.2 |  0.00
Comm    | 2.543      | 460.1      | 1130.5     |1435.6 | 22.56
Output  | 0.2003     | 0.20332    | 0.24571    |   2.4 |  0.01
Modify  | 0.19934    | 267.33     | 775.07     |1521.5 | 13.11
Other   |            | 0.01456    |            |       |  0.00

Nlocal:        54.0000 ave          88 max          35 min
Histogram: 4 4 1 1 0 1 2 1 0 2
Nghost:        491.250 ave         672 max         345 min
Histogram: 2 2 4 0 1 3 0 0 2 2
Neighs:         0.00000 ave           0 max           0 min
Histogram: 16 0 0 0 0 0 0 0 0 0
FullNghs:      2530.00 ave        5685 max        1024 min
Histogram: 8 0 2 0 0 2 2 0 0 2

Total # of neighbors = 40480
Ave neighs/atom = 46.851852
Ave special neighs/atom = 0.0000000
Neighbor list builds = 300
Dangerous builds = 300
Setting up Verlet run ...
  Unit style    : metal
  Current step  : 5000
  Time step     : 0.001
Per MPI rank memory allocation (min/avg/max) = 8.899 | 8.909 | 8.922 Mbytes
Step Temp PotEng TotEng Press Volume c_msd[4] 
    5000    979.04391   -8557.2346   -8448.0208     1144.863    20221.368    30.687501 
    5010    982.45133   -8557.6204   -8448.0265    1545.3248    20222.031    30.715126 
    5020    995.34044   -8559.0991   -8448.0674    2149.7128    20224.337    30.766773 
    5030    979.88151   -8557.4708   -8448.1635    3540.1539    20229.014    30.851237 
    5040     966.2987   -8556.0539   -8448.2618    3748.0177    20237.325    30.966846 
    5050    1012.8919   -8561.3641   -8448.3744    2029.0029    20249.417    31.108449 
    5060    1030.5515   -8563.5105    -8448.551    481.66551    20263.715     31.27221 
    5070    1020.5313   -8562.7141   -8448.8723   -273.74186    20278.629    31.446481 
    5080    969.38927   -8557.4288    -8449.292   -219.84152     20293.38    31.621369 
    5090    952.10686    -8555.937   -8449.7281   -905.16782    20307.869    31.791847 
    5100    977.19883    -8559.157    -8450.149    -2812.521    20321.302    31.952817 
    5110    995.59957   -8561.6804   -8450.6198   -3683.1795    20331.895    32.100737 
    5120    990.51388   -8561.6925   -8451.1992   -3107.2002    20338.753    32.241147 
    5130    982.75863   -8561.4915   -8451.8633   -2438.1744    20342.323    32.377801 
    5140    1004.1852   -8564.6449   -8452.6265   -2497.2727    20343.236    32.509574 
    5150    1005.9508   -8565.7399   -8453.5245   -2514.8188    20341.504    32.637749 
    5160    991.60652   -8565.1606   -8454.5454   -2068.7657    20337.138    32.766095 
    5170    959.84639     -8562.66   -8455.5877   -1107.0507    20330.638    32.899227 
    5180    957.81509   -8563.3996   -8456.5539   -966.74681    20322.868    33.039491 
    5190     995.2691   -8568.4591   -8457.4353   -1447.8082    20314.017    33.184491 
    5200    1014.3336   -8571.4286   -8458.2782   -809.18118    20303.749    33.330987 
    5210    985.27536   -8568.9423   -8459.0334    817.15119    20292.732    33.477132 
    5220     973.8935   -8568.2925   -8459.6532    1758.9517     20282.55    33.618964 
    5230    979.97852   -8569.4745   -8460.1564    1471.8909    20274.157    33.760214 
    5240    1010.3128   -8573.3193   -8460.6174    468.20533     20267.27    33.915492 
    5250    1000.1084   -8572.6159   -8461.0523    696.41395    20261.038    34.090639 
    5260    982.98047    -8571.077    -8461.424    1837.7852    20255.679    34.279523 
    5270    988.58914    -8572.009   -8461.7304    1940.1107    20252.192    34.473515 
    5280    1001.0778   -8573.6923   -8462.0206    1238.1837    20250.692    34.668905 
    5290    1014.4061   -8575.5035    -8462.345    897.76655     20250.55     34.86408 
    5300    1004.4581   -8574.7674   -8462.7186     1313.935    20251.431    35.058121 
    5310    969.31229   -8571.2376   -8463.1093    2375.3346    20253.749    35.252998 
    5320    949.28348   -8569.3513   -8463.4573    2843.4534    20258.509    35.451292 
    5330    990.64329   -8574.2847    -8463.777    2555.5026    20266.163    35.662561 
    5340    992.94879    -8574.861   -8464.0961    2805.0665    20276.528    35.897527 
    5350    970.21837   -8572.6542   -8464.4248    2696.6336     20289.73    36.153414 
    5360    962.52008   -8572.0869   -8464.7163    1954.7042     20305.61     36.41527 
    5370    952.15291   -8571.1626   -8464.9485    1399.1304    20323.447    36.674765 
    5380    968.45855    -8573.181    -8465.148    612.94571    20342.579    36.930743 
    5390    976.79195   -8574.3105   -8465.3479   -61.119768    20362.185    37.186961 
    5400    954.53996   -8572.0246   -8465.5442     28.62405    20381.624    37.445663 
    5410    967.24125   -8573.5992    -8465.702   -455.96897    20400.837    37.702318 
    5420    980.71289   -8575.2233   -8465.8233    -1604.297    20419.286    37.949258 
    5430    986.50336   -8575.9867   -8465.9408   -2749.8293    20435.833    38.178848 
    5440    995.70585   -8577.1664   -8466.0939   -3342.0561    20449.297    38.385483 
    5450     968.4269   -8574.3173   -8466.2878   -2847.6852    20459.139    38.571348 
    5460    977.55703   -8575.5481   -8466.5002   -2087.0419    20465.835    38.738588 
    5470    1016.4222   -8580.1448   -8466.7614    -1230.466    20470.208    38.885773 
    5480    1008.4096   -8579.6075   -8467.1179    274.52992    20473.307     39.02004 
    5490    1012.1807   -8580.5086   -8467.5983     1255.484    20476.629    39.156247 
    5500    1008.3022   -8580.6796    -8468.202    1138.1294    20481.153    39.307507 
    5510    975.39588   -8577.6919    -8468.885    1050.0582    20486.875    39.474887 
    5520    960.95139   -8576.7694   -8469.5739    291.02506     20493.59    39.649573 
    5530    997.41873   -8581.5348   -8470.2713     -1614.79    20500.404    39.820336 
    5540    1010.7903   -8583.7939   -8471.0387   -2263.3906    20505.544    39.982572 
    5550    969.71579   -8580.0193    -8471.846   -1328.1801    20508.346    40.144587 
    5560    947.90982    -8578.329   -8472.5882   -940.08864    20509.629    40.317398 
    5570    951.12385   -8579.3291   -8473.2298   -1365.0065    20509.819    40.501503 
    5580    961.74811   -8581.0509   -8473.7664    -1990.072    20508.537    40.688404 
    5590    988.63181   -8584.5303    -8474.247   -2299.2992    20505.151    40.864322 
    5600    983.23318   -8584.3704   -8474.6892   -928.62522    20499.516    41.013956 
    5610    982.04811   -8584.6465   -8475.0976    174.88543    20492.919     41.13709 
    5620    987.56309   -8585.6546   -8475.4904     559.0342    20486.518    41.254073 
    5630     978.1861   -8584.9785   -8475.8603    329.13135    20480.755    41.382237 
    5640    970.13692   -8584.4123   -8476.1921   -872.02617    20475.332    41.517455 
    5650      972.884   -8585.0056   -8476.4789   -1752.6864     20469.09     41.64431 
    5660    978.61795   -8585.9023    -8476.736   -1927.2483    20461.109    41.753417 
    5670    961.59195   -8584.2182   -8476.9511   -1436.1631    20451.234     41.84098 
    5680     966.8073   -8584.9839    -8477.135   -922.38563    20439.954     41.91874 
    5690     960.0386   -8584.3733   -8477.2795    -389.1776    20427.849     42.00909 
    5700    976.70561   -8586.3497   -8477.3967   -414.74523    20415.436    42.123931 
    5710    977.50701   -8586.5367   -8477.4943   -228.86083     20402.76    42.257336 
    5720    936.43379   -8582.0064   -8477.5458    612.80327    20390.068    42.399345 
    5730    938.27897   -8582.1798   -8477.5134    597.26626    20378.117    42.531965 
    5740    971.95694   -8585.8369   -8477.4137   -114.22515     20366.92    42.635641 
    5750    983.98182   -8587.0733   -8477.3087   -400.25547    20355.823    42.714497 
    5760    975.50518   -8586.0503   -8477.2312   -162.11588    20344.502     42.77733 
    5770    945.90639   -8582.6637   -8477.1464    331.41656    20333.203    42.828257 
    5780    959.91238   -8584.1065   -8477.0268    411.40923    20322.364    42.871911 
    5790    990.87242   -8587.4157   -8476.8824    656.18389    20312.113    42.918292 
    5800    978.52591   -8585.9094   -8476.7533    1609.0495    20302.763    42.984631 
    5810    971.02519   -8584.9528   -8476.6335    2533.9855    20295.239    43.073043 
    5820    991.98707   -8587.1697    -8476.512    2483.9843    20290.401    43.168451 
    5830    988.50064    -8586.681   -8476.4123    2046.2304    20288.235    43.243922 
    5840    976.26491   -8585.2597   -8476.3559     1198.267    20288.237    43.288735 
    5850    963.81713   -8583.8226   -8476.3073   -85.526158    20289.481    43.309021 
    5860    998.31891   -8587.6207   -8476.2567   -1340.1821    20290.629    43.312174 
    5870     1025.648   -8590.6715   -8476.2589   -1797.9929     20290.43    43.309685 
    5880    982.23299   -8585.9152   -8476.3456   -822.08508    20288.484     43.31547 
    5890    979.47761    -8585.736   -8476.4738   -220.74263    20285.637    43.338672 
    5900    1009.3707   -8589.2415   -8476.6446   -147.97642    20282.546    43.371115 
    5910     994.7982   -8587.8665   -8476.8953    328.14618    20279.385    43.391039 
    5920    999.50994   -8588.7543   -8477.2575    257.18059    20276.549     43.39451 
    5930    992.94103    -8588.508   -8477.7439   -163.18854    20273.984    43.396276 
    5940    970.06378   -8586.5717   -8478.3597    19.381326    20271.324    43.413372 
    5950    961.80633   -8586.3671   -8479.0762    -56.39707    20268.685    43.452793 
    5960    991.73811   -8590.5596   -8479.9297   -1181.6984    20265.929    43.502956 
    5970    1009.4142   -8593.5872   -8480.9855   -2315.5698    20261.976    43.534579 
    5980    1014.3383    -8595.416   -8482.2651   -2594.0766    20255.721    43.523273 
    5990    990.55991   -8594.1705    -8483.672    -2766.818    20246.811    43.473297 
    6000    957.22023   -8591.7894     -8485.01   -2372.1667    20235.169    43.395551 
    6010    942.52775   -8591.2779   -8486.1375   -1973.5288    20221.161    43.292469 
    6020    935.07161   -8591.3196   -8487.0109   -2279.8618    20205.163    43.171037 
    6030    940.63458   -8592.5667   -8487.6375   -2432.6913    20186.992    43.042018 
    6040    969.80971   -8596.2705   -8488.0868   -2138.9411    20166.529     42.91428 
    6050    980.46446   -8597.7996   -8488.4273   -924.93077    20144.188    42.793333 
    6060    966.38231   -8596.4991   -8488.6977    275.79011    20121.143    42.688854 
    6070     972.0074   -8597.3276   -8488.8987     897.9156    20098.638    42.608926 
    6080    1012.7004   -8602.0658   -8489.0975    1042.6416     20077.31    42.551496 
    6090    1000.5911   -8600.9562   -8489.3387    2243.1293    20057.432    42.511183 
    6100     975.7189    -8598.451   -8489.6081    3363.3423    20040.102    42.485855 
    6110    963.18955   -8597.3163   -8489.8711    3763.3322     20026.38    42.483808 
    6120    951.77716   -8596.2622     -8490.09    3786.0009    20016.665    42.511287 
    6130    975.51572   -8599.0985   -8490.2782    3055.1418    20010.856    42.565193 
    6140    968.27882   -8598.4619    -8490.449    2649.8059    20008.288    42.639333 
    6150    967.87709   -8598.5822    -8490.614    2289.4067    20008.476    42.730652 
    6160    976.49709   -8599.6984   -8490.7687    1794.2468    20011.021    42.841456 
    6170    976.67634   -8599.8674   -8490.9177    328.99017    20015.276    42.966172 
    6180     988.4604   -8601.3382   -8491.0739    -1401.727    20019.803    43.085221 
    6190    982.69213   -8600.8769   -8491.2561   -2211.6119    20022.924    43.177715 
    6200    958.89378   -8598.4219   -8491.4558   -1701.3994    20023.869    43.231411 
    6210    957.21539   -8598.4131   -8491.6343    -935.6175    20023.099    43.254349 
    6220    994.97778   -8602.7935   -8491.8023   -1258.5446    20021.266    43.263398 
    6230    1004.7741   -8604.1064   -8492.0224   -1060.1266    20018.188      43.2719 
    6240    976.49383   -8601.2271   -8492.2978    150.81365    20014.146    43.294214 
    6250    997.80475   -8603.9187   -8492.6121    484.29917    20010.213    43.341769 
    6260    1018.3075    -8606.606   -8493.0122    480.36203    20006.803    43.412832 
    6270    971.64642   -8601.8869   -8493.4983    615.18793    20003.946    43.491612 
    6280     936.4885   -8598.4631   -8493.9964    343.92371    20001.717     43.56468 
    6290     920.9782   -8597.1578   -8494.4213   -533.62659      19999.8    43.627254 
    6300    939.48688   -8599.5674   -8494.7662   -1181.8568    19997.371    43.677418 
    6310    964.30325    -8602.625   -8495.0555   -1394.0152    19993.793    43.714353 
    6320    992.66741   -8606.0934   -8495.3599   -1527.8818    19988.809    43.737279 
    6330    969.22372   -8603.8201   -8495.7017   -524.33105    19982.425    43.743494 
    6340    956.71691   -8602.7737   -8496.0505     510.9256    19975.537    43.738742 
    6350    985.03156   -8606.2859   -8496.4041    764.17893    19969.127    43.741342 
    6360    1001.4756   -8608.5345   -8496.8183    903.49493    19963.549     43.77171 
    6370    999.36558   -8608.8235   -8497.3428    511.29663     19958.88    43.838284 
    6380    978.29892   -8607.0874   -8497.9567    558.60782    19954.823    43.935603 
    6390    980.40344   -8608.0001   -8498.6347    461.74969    19951.338    44.053072 
    6400    990.65945   -8609.8947   -8499.3852   -192.09936    19948.292    44.182175 
    6410    995.78949   -8611.3085   -8500.2267   -1061.8275    19945.066     44.31541 
    6420    988.85024   -8611.4495   -8501.1418   -1518.3411     19940.81     44.44926 
    6430    981.29554   -8611.5604   -8502.0954   -960.43402     19935.13    44.589396 
    6440    966.68807   -8610.8705    -8503.035   -303.51857    19928.522    44.749037 
    6450    960.61604    -8611.065   -8503.9068    141.42745    19921.624    44.942815 
    6460    959.02551   -8611.6565   -8504.6757    745.53953    19914.932     45.17509 
    6470    939.00045   -8610.0334   -8505.2865    1542.0438    19909.074    45.436368 
    6480    950.86898   -8611.7963   -8505.7254    1899.1319    19904.794    45.717996 
    6490    970.33835   -8614.2927     -8506.05    2620.1651    19902.504    46.018437 
    6500    948.08795   -8612.0441   -8506.2834    3777.2337    19902.951    46.338451 
    6510    969.41026   -8614.5993   -8506.4602    3512.8938    19907.098      46.6768 
    6520    993.89666    -8617.492   -8506.6213    2841.7416    19914.762    47.032241 
    6530    982.00947   -8616.3331   -8506.7884    2424.2278    19925.287    47.403036 
    6540    987.72192   -8617.1415   -8506.9597    1424.1337    19938.128    47.783617 
    6550    972.86631   -8615.6356   -8507.1109   -82.875806    19952.226    48.166023 
    6560    954.35253     -8613.67   -8507.2105   -1098.5483    19966.132    48.537229 
    6570    949.78328   -8613.1867   -8507.2369   -1367.2308    19978.821    48.878807 
    6580    966.61359   -8615.0207   -8507.1935    -1753.388    19989.939    49.183277 
    6590    969.84399   -8615.3028   -8507.1152    -1584.345    19999.168    49.454754 
    6600    944.14476   -8612.3531   -8507.0323   -510.51094    20006.752    49.696472 
    6610    951.34001   -8613.0517   -8506.9283   -495.06638    20013.612    49.910457 
    6620    958.34022   -8613.6938   -8506.7895   -330.61444    20019.897    50.091582 
    6630    967.63598   -8614.5645   -8506.6233    481.39144    20025.832    50.245646 
    6640    1021.8353   -8620.4671   -8506.4799    707.96582    20032.115    50.393373 
    6650    1010.1904    -8619.107   -8506.4188    1280.6082    20039.102    50.544467 
    6660    988.49681   -8616.7179   -8506.4496    2107.4998    20047.361     50.70145 
    6670    1002.8149   -8618.4021   -8506.5366    2916.9044    20057.686    50.875274 
    6680    1005.7079   -8618.8877   -8506.6995    3730.4953    20070.894    51.079663 
    6690    988.40615   -8617.1953   -8506.9372    3570.8143      20087.7    51.315055 
    6700    990.49408   -8617.7104   -8507.2193    2335.2853    20107.861     51.58094 
    6710    973.34809   -8616.1122   -8507.5337    1810.1354    20130.255    51.882389 
    6720    958.38945    -8614.779   -8507.8692    1626.2477    20154.237    52.226068 
    6730    977.94586   -8617.3023   -8508.2109    1262.3169    20179.543    52.619579 
    6740    961.92045   -8615.8263   -8508.5227    776.14384    20205.766    53.060552 
    6750     964.0866   -8616.3311   -8508.7858    73.169284    20232.355    53.523764 
    6760    970.47462   -8617.3048   -8509.0469   -349.90782    20258.585    53.982504 
    6770    921.37229   -8612.0857   -8509.3053    -222.7963    20284.044    54.426445 
    6780    937.06046   -8614.0643   -8509.5338   -945.46521    20308.695    54.856637 
    6790    953.76045   -8616.1044    -8509.711   -1547.6838    20331.874    55.279282 
    6800    932.01177   -8613.8091   -8509.8418   -1377.3614    20353.001    55.702517 
    6810    942.10724   -8615.0091   -8509.9156   -737.97129    20372.274    56.129011 
    6820    969.23519   -8618.0547   -8509.9351   -41.741713    20390.319    56.559921 
    6830    966.08904   -8617.6932   -8509.9245    740.41778    20407.903    56.993493 
    6840    980.40762   -8619.2501   -8509.8842    673.30204    20425.763    57.421714 
    6850    1012.8425   -8622.8025   -8509.8184    405.19412    20443.884    57.847082 
    6860    1016.3545   -8623.1686   -8509.7928    568.61217    20462.021    58.279807 
    6870    982.52142   -8619.4473   -8509.8455    735.39266    20480.275    58.724132 
    6880    974.04471   -8618.6054   -8509.9492    -325.6363    20498.686    59.180101 
    6890    996.10236   -8621.2101   -8510.0934   -1563.1304    20516.179    59.638438 
    6900    980.92503   -8619.7117   -8510.2881   -1134.2548    20531.632    60.081162 
    6910    956.59429   -8617.2103   -8510.5007   -463.45093    20545.432    60.502946 
    6920    979.75704   -8619.9883   -8510.6949   -1260.6362    20558.134    60.907798 
    6930    1011.3991   -8623.7484   -8510.9253   -1806.7307    20569.106    61.298865 
    6940    1005.8921   -8623.4715   -8511.2627   -1500.4201    20577.866    61.690528 
    6950    1006.4742   -8623.9705   -8511.6968   -1399.9758    20584.712    62.094059 
    6960    1009.5566    -8624.847   -8512.2295   -1280.8187    20589.842    62.496106 
    6970    974.93261   -8621.5743   -8512.8191    -532.4664    20593.491    62.869455 
    6980    966.25261   -8621.1866   -8513.3997   -704.53397    20596.357    63.190584 
    6990    976.79576   -8622.9346   -8513.9716   -1554.3699    20598.328    63.457094 
    7000    974.91381   -8623.3001    -8514.547   -1752.7363    20598.647    63.678364 
    7010    979.57458   -8624.4113   -8515.1383   -1456.7015    20597.124    63.857236 
    7020    979.35941   -8624.9911   -8515.7421   -783.59238    20594.108    64.004326 
    7030    987.88799   -8626.5603   -8516.3599    780.16598    20590.457    64.143062 
    7040    971.04753   -8625.2907   -8516.9688    2434.8859    20587.797    64.291448 
    7050    971.56494   -8625.9319   -8517.5524    2937.7408    20587.728    64.439444 
    7060    966.08727   -8625.8764   -8518.1079    2893.8347    20590.783    64.571414 
    7070      949.035   -8624.4772   -8518.6109    2690.2015    20596.861    64.692844 
    7080    967.05439   -8626.9357   -8519.0593    1813.8483    20605.618     64.82195 
    7090    978.48251   -8628.6179   -8519.4667    880.87371    20616.126    64.972464 
    7100    983.45181   -8629.5683   -8519.8628    457.65199    20627.369    65.148663 
    7110    955.97038   -8626.8716   -8520.2317     1027.295    20638.939     65.34535 
    7120    945.70089   -8626.0452   -8520.5508    869.36286    20651.264    65.546677 
    7130     963.8758   -8628.3222   -8520.8004    70.640356    20664.194    65.724812 
    7140    994.92275    -8632.021   -8521.0359   -881.95795      20676.9     65.85283 
    7150    988.71089   -8631.5888   -8521.2966   -1451.7644    20688.451    65.925221 
    7160    995.80203   -8632.6837   -8521.6004   -2592.5345    20698.148    65.949643 
    7170    992.20044   -8632.6319   -8521.9504    -4009.139    20704.823    65.935311 
    7180     970.1529   -8630.5598   -8522.3378   -4632.5415     20707.08    65.889961 
    7190    961.89665   -8630.0211   -8522.7201   -5019.4816    20704.247    65.816756 
    7200      982.411   -8632.6916   -8523.1022    -5445.231    20695.956    65.717188 
    7210    983.49645    -8633.222   -8523.5115   -4972.8933    20681.943    65.591299 
    7220    973.94232   -8632.5846   -8523.9399   -3468.6869    20662.844    65.443704 
    7230    1000.7537   -8636.0125    -8524.377   -2311.6898    20640.222    65.283224 
    7240    1025.0023   -8639.2402   -8524.8997   -1723.1589    20615.371    65.122886 
    7250    966.63789   -8633.3157   -8525.4858   -656.83019    20589.098     64.97308 
    7260    956.25048   -8632.7165   -8526.0453    174.73284    20562.494    64.843995 
    7270    985.30447    -8636.501   -8526.5888    623.27546    20536.433    64.740175 
    7280    959.06988   -8634.1038   -8527.1181    1303.2757    20511.453    64.654772 
    7290     944.6795   -8632.9706   -8527.5902    1492.6838    20488.176    64.586191 
    7300    960.47654   -8635.1418   -8527.9992    879.75533    20466.747    64.528954 
    7310    973.48033   -8636.9776   -8528.3844   -228.07769    20446.505    64.471066 
    7320    987.34744   -8638.9278   -8528.7877   -1077.4697    20426.297    64.393579 
    7330    985.47373   -8639.1529   -8529.2219   -1599.9456    20405.215    64.274405 
    7340    980.42279    -8639.047   -8529.6793   -2008.2765    20382.688    64.107506 
    7350    968.34989   -8638.1598   -8530.1389   -1784.0654    20358.341    63.903495 
    7360    938.38773   -8635.2195    -8530.541   -715.59966     20332.47    63.681133 
    7370    934.80389   -8635.1143   -8530.8355    342.54863    20306.156    63.463147 
    7380    944.07202    -8636.333   -8531.0204    1396.6657    20280.515    63.261184 
    7390    955.19826   -8637.6729   -8531.1191     2715.497    20256.664    63.077314 
    7400    960.97283   -8638.3508   -8531.1528    4185.8876     20235.96    62.911232 
    7410    977.46744   -8640.1925   -8531.1545    5130.0757    20219.825    62.768078 
    7420      983.622   -8640.8925   -8531.1679    5545.7274    20209.181    62.663189 
    7430    977.52405   -8640.2548   -8531.2105    5314.0806    20204.383    62.610692 
    7440    987.21087   -8641.4135   -8531.2887    4368.0507    20205.126    62.609633 
    7450    988.35773   -8641.6504   -8531.3976    3439.6392    20210.458    62.644019 
    7460    1009.7286   -8644.2048   -8531.5681    2099.2371    20219.297     62.68963 
    7470    973.25532   -8640.3557   -8531.7876    1337.9994    20230.351     62.71416 
    7480    944.76292   -8637.3902   -8532.0005    767.55372    20242.761    62.691247 
    7490    950.89204   -8638.2287   -8532.1552    478.26311    20255.931    62.618538 
    7500    957.48226   -8639.0535   -8532.2449    107.58993    20269.525    62.512231 
    7510    999.97873   -8643.8652   -8532.3161   -1155.8758    20283.047    62.393756 
    7520    980.22595   -8641.7359   -8532.3902   -1427.2739    20295.374    62.274549 
    7530     973.3009   -8641.0439   -8532.4707   -1530.0365    20306.128    62.154327 
    7540    1006.3754   -8644.8267    -8532.564   -1727.8254    20315.181    62.026503 
    7550    977.05705   -8641.6881   -8532.6959   -1223.5128    20322.424    61.878762 
    7560    978.44971   -8642.0078   -8532.8602   -1771.7792     20328.21    61.703137 
    7570    1004.0937   -8645.0633   -8533.0551   -2782.8537    20332.039    61.494758 
    7580    989.63699   -8643.6786   -8533.2831   -3123.2157    20332.955    61.260328 
    7590    982.42325   -8643.1227   -8533.5319   -2869.6357    20330.612    61.010072 
    7600    969.98068   -8641.9666   -8533.7638   -2328.2916    20325.276    60.745445 
    7610    973.91902   -8642.6055   -8533.9633   -1728.3969    20317.512     60.47474 
    7620    962.17402   -8641.4479   -8534.1159    -984.7614    20308.004    60.219038 
    7630    980.63356   -8643.6249   -8534.2337    -1014.593     20297.47     59.99273 
    7640    1021.9743   -8648.3741   -8534.3713   -1676.8409    20285.926    59.796428 
    7650    997.74793   -8645.8627   -8534.5624   -2236.6465    20272.752    59.621002 
    7660    976.72181   -8643.7034   -8534.7486    -2900.552    20257.335    59.457576 
    7670    992.63453   -8645.6332   -8534.9034   -3085.3166    20239.075    59.292213 
    7680    999.01255   -8646.4937   -8535.0523   -2603.9743    20217.833    59.108535 
    7690    993.13007   -8645.9942   -8535.2091   -1840.2233    20194.114    58.902232 
    7700    972.45223   -8643.8259   -8535.3474   -955.91087    20168.717    58.676349 
    7710    972.21263   -8643.8974   -8535.4457   -234.53724    20142.583    58.437794 
    7720    970.37315   -8643.7603   -8535.5137    362.37117    20116.463    58.194503 
    7730     959.7064   -8642.5945   -8535.5378    1416.4975    20091.077     57.95973 
    7740    989.39086   -8645.9116   -8535.5435    1647.4058    20067.344    57.757197 
    7750    992.08905   -8646.2345   -8535.5655    2455.2121    20045.634    57.605634 
    7760    1001.9995   -8647.4097   -8535.6351    2867.9674    20026.652    57.510566 
    7770    1034.0017   -8651.1386   -8535.7941    1907.6331    20010.684    57.467896 
    7780    1024.3958   -8650.3697   -8536.0968    1427.3873      19996.9    57.476533 
    7790    983.27613   -8646.1756   -8536.4897    1514.8781    19984.773    57.540222 
    7800    1001.7488   -8648.6951   -8536.9486    1306.2684    19974.283    57.648123 
    7810    950.50491   -8643.4472   -8537.4169    1898.2029    19965.326      57.7793 
    7820    935.70541    -8642.193   -8537.8137    1811.8397    19958.335    57.915468 
    7830    1000.8734   -8649.8237   -8538.1747     444.4333    19953.127    58.046723 
    7840    991.69475   -8649.2068   -8538.5818    55.579383    19948.529    58.178929 
    7850    967.71396   -8646.9752   -8539.0252   -71.546251    19944.065    58.332378 
    7860    978.28382   -8648.5943   -8539.4652   -205.77299    19939.571    58.516115 
    7870    970.63929   -8648.1638   -8539.8875    519.27126    19935.009     58.71811 
    7880    969.80633   -8648.4888   -8540.3054    804.63637    19930.973    58.916335 
    7890     950.2757   -8646.7023   -8540.6977     525.1388    19927.753    59.096778 
    7900    943.02667   -8646.2396   -8541.0436   -29.136067    19925.079    59.254026 
    7910    951.78585   -8647.4986   -8541.3255   -821.96243    19922.388    59.393991 
    7920     967.3297   -8649.4722   -8541.5651   -1072.0306    19918.937    59.530878 
    7930    963.01033   -8649.2015   -8541.7763    -777.3194    19914.478    59.669536 
    7940     991.2703   -8652.5488   -8541.9711   -1226.1858    19909.213    59.804059 
    7950    1011.2855   -8655.0362   -8542.2257   -1810.8912    19902.737    59.923748 
    7960    960.27727   -8649.6577   -8542.5373   -1689.1052    19894.569    60.028654 
    7970    973.81239   -8651.4936   -8542.8634    -2089.278     19884.69    60.115847 
    7980    986.00552   -8653.1893   -8543.1989   -871.63526    19872.944    60.181807 
    7990    940.90501   -8648.4657   -8543.5064    1264.8471    19860.499    60.239406 
    8000    956.60724    -8650.463    -8543.752    2101.2322    19849.312    60.298948 
    8010    996.46656   -8655.1466   -8543.9892    2283.4552      19840.3    60.360774 
    8020    981.99205   -8653.8166   -8544.2739    2448.4726    19833.692    60.416271 
    8030    976.71673   -8653.5546   -8544.6004    1717.9078    19829.511      60.4656 
    8040    984.17363   -8654.7404   -8544.9544    1085.8062    19827.104    60.517774 
    8050     974.4818    -8654.041   -8545.3361    1565.9073    19825.936    60.585251 
    8060    974.52407   -8654.4579   -8545.7483    2310.2055    19826.393    60.682494 
    8070    957.00913   -8652.9229   -8546.1671    2770.7626    19829.171    60.813551 
    8080    964.09523   -8654.1067   -8546.5604    1958.3207    19834.629    60.980044 
    8090    1018.3528   -8660.5685   -8546.9697   -403.80991    19841.889    61.176093 
    8100    1016.2966   -8660.8421   -8547.4727   -1736.6571    19848.809    61.376139 
    8110    996.33523   -8659.2085   -8548.0658   -2140.3142    19854.021    61.563273 
    8120    1017.9224   -8662.3016   -8548.7508   -2474.2758    19857.029    61.729838 
    8130    1002.7583   -8661.3945   -8549.5353   -1409.7748    19857.652    61.876159 
    8140    987.01814   -8660.4695   -8550.3661    16.684912     19856.87    62.012796 
    8150    1010.7389   -8663.9736   -8551.2242    673.38024    19856.043     62.14892 
    8160    1003.5745   -8664.0553    -8552.105    1343.8123    19855.913    62.294351 
    8170    976.91534    -8661.923   -8552.9467    2493.5733    19857.184    62.465427 
    8180    973.97303   -8662.3456   -8553.6974    3537.4811    19860.972    62.673075 
    8190     983.1978   -8664.0473   -8554.3701    3752.1911    19868.263    62.923139 
    8200    1007.4146   -8667.3862   -8555.0076    3245.1837    19879.274    63.221653 
    8210    999.67683   -8667.1314   -8555.6159     2729.957    19893.547    63.561762 
    8220    966.92702   -8664.0461   -8556.1839    2363.6666    19910.555    63.932069 
    8230    946.53414   -8662.2262   -8556.6389    919.99284    19929.776    64.328219 
    8240     963.0932   -8664.3853   -8556.9508   -1679.2279    19949.713    64.739959 
    8250    967.03025   -8665.0215   -8557.1478   -3628.1262     19967.86    65.150611 
    8260    959.75434   -8664.3422   -8557.2801   -4227.3715    19982.274    65.550605 
    8270      960.938   -8664.5768   -8557.3827   -3808.6096     19992.36    65.941937 
    8280    960.91029   -8664.6488   -8557.4579    -3430.656    19998.432    66.316927 
    8290      954.451   -8663.9529   -8557.4825   -3168.5338    20000.915    66.658255 
    8300    982.81442   -8667.1168   -8557.4824   -3580.2082     20000.05    66.947082 
    8310    1011.4755   -8670.3567   -8557.5251   -3085.2762    19995.626    67.194033 
    8320    1015.6403   -8670.9589   -8557.6627   -2049.0458    19988.137    67.437572 
    8330    998.91769   -8669.3035   -8557.8728   -941.04402    19978.676     67.69463 
    8340    981.59688   -8667.6093   -8558.1107   -644.54577    19968.292    67.955314 
    8350    988.25742   -8668.6197   -8558.3781    -1374.356    19957.278    68.215111 
    8360    974.06595   -8667.3323   -8558.6738    -1148.616    19945.105    68.469468 
    8370    967.40145   -8666.8938   -8558.9787    442.47439    19932.055    68.724678 
    8380    979.37315   -8668.5304   -8559.2799    1811.6194    19919.595    68.990417 
    8390    986.35395   -8669.6407   -8559.6115    3331.6474    19909.163     69.27334 
    8400    962.69498   -8667.3481    -8559.958    5089.2408    19902.286    69.589333 
    8410    973.30874   -8668.8669   -8560.2929    5391.7626    19900.528    69.952376 
    8420    998.78198   -8672.0567    -8560.641    4395.6342    19904.166    70.365518 
    8430    1020.2988   -8674.8783   -8561.0624    2700.4945    19912.171    70.812169 
    8440     1038.897   -8677.5111   -8561.6206    949.72553    19922.782    71.265712 
    8450    1021.1854   -8676.2424   -8562.3276    448.76423    19934.299    71.706724 
    8460    998.33821   -8674.5166   -8563.1505    60.516996    19946.075    72.130547 
    8470    991.57151   -8674.6465   -8564.0352   -1072.9872    19957.616    72.546528 
    8480    986.53976   -8674.9674   -8564.9174   -2027.9353    19967.865    72.959823 
    8490    991.42691     -8676.37   -8565.7748   -2674.0708    19975.854    73.364845 
    8500    975.94233   -8675.4267   -8566.5589   -1994.7333    19981.089    73.747473 
    8510    972.11804   -8675.6755   -8567.2342   -1595.9503    19984.158     74.09143 
    8520    965.93035   -8675.5595   -8567.8085     -1614.48    19985.514    74.391049 
    8530    951.34443   -8674.3892   -8568.2653    -1328.868    19985.235    74.662104 
    8540    965.47697   -8676.3114    -8568.611   -1133.6249    19983.615     74.92064 
    8550    986.72906   -8678.9518   -8568.8806   -930.77136    19980.873    75.163823 
    8560    984.22621   -8678.9072   -8569.1153    242.67294    19977.344    75.387992 
    8570    963.42961   -8676.7934   -8569.3214    1508.0673    19974.151    75.611253 
[...]
   22890    941.30809   -8759.9717   -8654.9673    2091.4977     19891.37    122.19178 
   22900    947.31862     -8760.74   -8655.0651    3218.7421     19867.59     122.0014 
   22910     966.9637   -8762.9531   -8655.0869    4644.7639    19847.037    121.85778 
   22920     984.6772   -8764.9234   -8655.0812    6054.0813    19831.133    121.77164 
   22930    951.88834   -8761.2535   -8655.0689    7570.3446    19821.348    121.75455 
   22940    942.88818   -8760.2176    -8655.037    7654.5433    19819.062    121.81743 
   22950    957.74482   -8761.8154   -8654.9775    6592.4919    19824.433    121.94954 
   22960    934.65838    -8759.142   -8654.8794    4905.8911    19836.477    122.14968 
   22970    957.48631   -8761.5411   -8654.7321    2623.0064    19853.504    122.41909 
   22980     990.4828   -8765.0403   -8654.5504    757.31146    19873.288    122.72426 
   22990    968.55057   -8762.4398   -8654.3965   -259.72588    19893.991    123.02797 
   23000    941.88995   -8759.3206   -8654.2513   -1295.8952    19914.491    123.31166 
   23010    941.88847   -8759.1315   -8654.0624   -2920.1277    19933.675    123.55781 
   23020    939.68111   -8758.6383   -8653.8155   -4818.4606    19949.894    123.74182 
   23030    952.79434   -8759.8161   -8653.5304   -6385.1918    19961.235    123.83746 
   23040    994.83253    -8764.229    -8653.254   -7338.3247    19966.078    123.83328 
   23050    980.48494   -8762.4182   -8653.0437   -6492.1534    19963.557    123.75057 
   23060     943.1708   -8758.0905   -8652.8784    -4965.815    19954.425    123.61997 
   23070    974.03618   -8761.3569   -8652.7017   -4136.9722    19940.125    123.44785 
   23080    985.39575    -8762.445   -8652.5226   -3600.9307    19921.539    123.21609 
   23090    981.51262   -8761.8647   -8652.3755   -3053.6087    19899.234    122.91322 
   23100    1003.9698    -8764.246   -8652.2517   -2749.3241    19873.743    122.54852 
   23110    1007.6032   -8764.5648   -8652.1651   -1328.0327    19845.546    122.15084 
   23120    996.48537   -8763.2682   -8652.1087     999.7551    19816.072    121.74568 
   23130    990.97535   -8762.6056   -8652.0608    3037.3743    19787.586    121.34528 
   23140    987.90841   -8762.2297    -8652.027    4239.8523    19762.124    120.96199 
   23150    977.38936    -8761.049   -8652.0197    4201.7585    19740.849    120.60836 
   23160    985.17888   -8761.9474   -8652.0492    3158.2426    19723.732    120.29331 
   23170    985.93604   -8762.1064   -8652.1238    2470.3309    19709.837    120.02057 
   23180    957.39688   -8759.0213   -8652.2222    2852.7032    19698.538     119.7987 
   23190    970.34239   -8760.5629   -8652.3198    2810.2288    19690.067    119.61807 
   23200    995.83056   -8763.5245   -8652.4382    2120.7599    19684.332    119.43947 
   23210    992.89773   -8763.3632    -8652.604    2027.1722    19680.783    119.21394 
   23220    1003.7792   -8764.8022   -8652.8291    1682.4428    19679.228    118.93605 
   23230    1000.0187   -8764.6788   -8653.1252    1183.4893    19679.326    118.63788 
   23240    968.56661   -8761.5325   -8653.4874    1021.5236     19680.66    118.35093 
   23250    965.92936   -8761.6436   -8653.8927    7.7221399    19682.935     118.0871 
   23260     982.7479   -8763.9547   -8654.3277   -581.71487    19685.256    117.83534 
   23270    995.87612   -8765.9321   -8654.8407   -377.43222    19687.068    117.58343 
   23280    1003.5456   -8767.4193   -8655.4723    254.08954    19688.547    117.32696 
   23290    1008.4356   -8768.7515    -8656.259    1024.2969    19690.293    117.08829 
   23300    992.22065   -8767.8601   -8657.1764    729.82325    19692.976    116.87718 
   23310    1000.5611   -8769.8031    -8658.189   -498.16777    19696.328    116.66513 
   23320    980.87743   -8768.6637   -8659.2453   -1144.8136    19699.236     116.4389 
   23330    942.86931   -8765.3895    -8660.211    -1045.044    19701.089     116.2075 
   23340    959.72503   -8768.0946   -8661.0358   -1762.8576    19701.829    115.96793 
   23350    945.97198   -8767.2395   -8661.7149   -1867.6208    19700.863    115.71561 
   23360    910.90768   -8763.8302    -8662.217   -1230.1409    19698.108    115.48334 
   23370     940.1743   -8767.4354   -8662.5575   -1951.9205    19693.976    115.30184 
   23380    963.64384   -8770.2937   -8662.7978   -2532.9909    19687.914    115.16176 
   23390    969.18778   -8771.0984    -8662.984   -2218.2993    19679.392    115.03964 
   23400    975.37839   -8771.9308   -8663.1259   -882.70274    19668.723    114.90787 
   23410    961.28146   -8770.4453   -8663.2129    791.01968    19657.184    114.74832 
   23420     964.7401   -8770.8856   -8663.2674    1809.5973     19646.37    114.56647 
   23430    953.26401   -8769.6256   -8663.2876    2111.0568    19637.286     114.3981 
   23440    976.19067    -8772.185   -8663.2895    1761.0068    19630.242    114.27998 
   23450    991.47471   -8773.9003   -8663.2998    1759.7653    19624.986    114.22576 
   23460    956.70219   -8770.0419   -8663.3204    2280.5019    19621.528    114.23398 
   23470    944.98656    -8768.732   -8663.3173    1731.9485    19620.225    114.30124 
   23480    949.13292   -8769.1332    -8663.256    46.277961    19620.534    114.41431 
   23490    940.90052   -8768.1021   -8663.1433   -1173.5072    19620.954    114.55122 
   23500    927.95017   -8766.4747   -8662.9605   -2003.8809    19620.244    114.69313 
   23510    968.22311   -8770.7156   -8662.7089   -3492.1258    19617.466    114.81541 
   23520    953.35883   -8768.7647   -8662.4161   -4035.6541    19611.298     114.8937 
   23530     922.8145   -8765.0313   -8662.0899   -3437.6989    19601.201    114.92822 
   23540    956.07159   -8768.3264   -8661.6752   -2588.0746    19587.668    114.93009 
   23550    975.87915    -8770.029   -8661.1682   -537.52334    19571.633    114.90466 
   23560    998.82592   -8772.0546    -8660.634    1980.3593    19555.049    114.87986 
   23570    997.01807   -8771.3442   -8660.1253    4087.0312    19540.301    114.88822 
   23580    963.98452   -8767.1923   -8659.6584    5300.9896    19529.475    114.92882 
   23590    985.84016   -8769.1991   -8659.2271    4144.7081    19523.605    114.98659 
   23600    987.77178   -8769.0049   -8658.8174    2971.5788    19521.817    115.03344 
   23610    983.02844   -8768.1116   -8658.4533     2207.499    19522.983    115.05546 
   23620    971.79589   -8766.5178   -8658.1125    1194.8346    19526.304    115.07863 
   23630      926.532   -8761.1134   -8657.7574    251.74643     19530.84    115.13103 
   23640    943.90425   -8762.6241   -8657.3301   -1238.1832    19535.603    115.21537 
   23650     988.6374   -8767.1118   -8656.8278   -2969.5072    19539.141    115.32307 
   23660    973.32179   -8764.9091   -8656.3336   -2928.4717    19539.964    115.43021 
   23670    962.52382   -8763.2425   -8655.8716   -2022.4054    19537.972    115.51171 
   23680    958.98085   -8762.3688   -8655.3931   -976.27745    19533.995    115.55769 
   23690    989.97412   -8765.3382   -8654.9051    -361.4561    19528.983    115.57254 
   23700    988.85714   -8764.7565    -8654.448    1030.7274    19523.668    115.57695 
   23710    967.54068   -8761.9719   -8654.0413    2240.7213    19519.312     115.5725 
   23720     992.9639   -8764.4507   -8653.6841     3003.497    19517.112    115.54613 
   23730    964.99417   -8761.0231   -8653.3765    4270.7042    19517.929    115.49843 
   23740    946.69449   -8758.7122    -8653.107    4751.9162     19522.92    115.44593 
   23750    981.36782   -8762.3114   -8652.8384    3307.0071    19532.471    115.38738 
   23760    1001.6144   -8764.3454   -8652.6138    1891.7297    19545.393    115.30954 
   23770    997.93874   -8763.8134   -8652.4918    1000.8501    19560.353    115.20752 
   23780    969.58017   -8760.6015   -8652.4434    1271.6379    19576.581    115.08413 
   23790    998.88057   -8763.8436   -8652.4169    757.76322    19594.163    114.96553 
   23800    1039.4199   -8768.3834   -8652.4345   -798.87639    19612.602    114.87232 
   23810    1002.4576   -8764.3405   -8652.5149   -1611.3251    19630.542    114.79788 
   23820    1025.0834   -8767.0009   -8652.6513    -2847.904        19647    114.73668 
   23830    1007.7924   -8765.2486   -8652.8279   -3421.0436    19660.861    114.66572 
   23840    984.12736   -8762.8244   -8653.0435   -3370.6663    19671.514    114.55762 
   23850    992.72036   -8764.0106   -8653.2711    -3725.665    19678.859    114.41851 
   23860    992.35615   -8764.2138   -8653.5149   -3842.2061    19682.574     114.2674 
   23870    997.60294   -8765.0718   -8653.7877   -3373.3179    19682.531    114.11443 
   23880    1003.1915   -8765.9923   -8654.0848    -3249.173    19679.058    113.94037 
   23890    995.47973   -8765.4561   -8654.4089   -3442.2362    19672.292    113.74193 
   23900    993.28945    -8765.563   -8654.7601   -3470.0547    19662.033    113.54354 
   23910    989.19525   -8765.4905   -8655.1443    -3252.269    19648.223    113.34504 
   23920    990.94269   -8766.0974   -8655.5562     -2908.21    19631.041    113.15042 
   23930    1000.4468   -8767.6003   -8655.9989   -1831.7924    19610.871    112.98246 
   23940    976.84878   -8765.4121   -8656.4432   -368.46598    19588.757    112.85414 
   23950    959.56663   -8763.8919   -8656.8508    544.45319     19566.05    112.75106 
   23960    957.89075   -8764.0598   -8657.2056    1489.9742    19543.699    112.64001 
   23970    950.56813   -8763.5401   -8657.5028    2214.4181     19522.59    112.51847 
   23980    953.56463   -8764.1132   -8657.7416    2849.7048    19503.494    112.40647 
   23990    975.71372   -8766.7926   -8657.9503    3388.7638    19487.026    112.33517 
   24000    980.68436   -8767.5433   -8658.1465    4125.2112    19473.786    112.31911 
   24010    984.99184   -8768.2499   -8658.3725    3657.0435    19464.352    112.35311 
   24020    966.09274   -8766.3886   -8658.6195    3259.1373    19458.455    112.42554 
   24030    972.11961   -8767.3073   -8658.8659    2382.2815    19455.666     112.5169 
   24040    1009.3723   -8771.7368   -8659.1398    1225.4087    19455.159    112.61543 
   24050     1010.338   -8772.1908   -8659.4861    1525.6404    19455.996    112.71126 
   24060    985.04542    -8769.802   -8659.9187     2689.583    19458.411    112.79795 
   24070    949.83266   -8766.3263    -8660.371    3252.2935    19463.443     112.8744 
   24080    953.07671   -8767.1223   -8660.8052    2632.5996    19471.648    112.94992 
   24090    976.67894   -8770.1692   -8661.2192    740.38207    19482.464    113.03554 
   24100    988.50238   -8771.9154   -8661.6465   -1420.5071    19494.166    113.11055 
   24110    963.37695   -8769.5514   -8662.0852   -2505.8892     19504.74    113.14255 
   24120    958.03468    -8769.373   -8662.5028   -3474.8624    19513.008    113.11931 
   24130    972.89587   -8771.4399    -8662.912   -4096.0736    19518.002    113.03847 
   24140    945.39514   -8768.7875   -8663.3272   -3150.7986    19519.154    112.90879 
   24150     909.8374   -8765.1873   -8663.6935   -1554.9756    19517.282    112.75202 
   24160    913.17389   -8765.8244   -8663.9585   -1128.7124    19513.726    112.58827 
   24170    915.66661   -8766.2439   -8664.0999   -312.36163    19509.047    112.42517 
   24180    930.30282   -8767.9064   -8664.1297     1579.383    19504.071    112.26973 
   24190     934.9546    -8768.345   -8664.0494    3466.1808    19500.566    112.12562 
   24200    950.34181   -8769.8865   -8663.8744    4182.0959    19500.318    111.99439 
   24210    951.78656   -8769.7732      -8663.6    4218.8051    19504.146    111.88059 
   24220     955.6302   -8769.8154   -8663.2134    3954.7633    19512.215    111.79838 
   24230    995.72787   -8773.7854   -8662.7105     2623.599    19524.273    111.77712 
   24240    977.01516   -8771.0995   -8662.1119    1462.9556    19539.218    111.82784 
   24250    978.81654   -8770.6214    -8661.433    94.330457    19555.912    111.94945 
   24260    970.96837   -8768.9315   -8660.6185   -726.52493    19573.116    112.14854 
   24270    945.56936   -8765.1626   -8659.6829     -1228.07    19589.987    112.41838 
   24280    973.23504   -8767.1663   -8658.6004   -2511.1706    19605.926    112.71805 
   24290    969.87225   -8765.6087    -8657.418   -3700.3692    19619.736    113.00514 
   24300    974.87227   -8765.0185     -8656.27   -5237.6203    19630.122     113.2668 
   24310    1006.7389   -8767.5113    -8655.208   -6686.4752    19635.491    113.47831 
   24320    997.59729   -8765.6209   -8654.3374   -6213.2563    19634.447    113.60981 
   24330    975.43854   -8762.4742   -8653.6626   -4261.1743    19627.282    113.66098 
   24340    979.47779   -8762.3748   -8653.1126   -2685.4308    19615.635    113.66297 
   24350    987.79812    -8762.842   -8652.6516   -1670.9741    19600.978    113.64981 
   24360    971.40804   -8760.6295   -8652.2675   -94.557915     19584.36    113.63362 
   24370    977.85799   -8761.0049   -8651.9234    1499.8571    19567.274    113.61252 
   24380    1003.6847   -8763.5858   -8651.6233    1914.8428    19551.168    113.61248 
   24390    1000.7531   -8763.0423   -8651.4068    2566.4292    19536.625    113.67621 
   24400    989.43684   -8761.6457   -8651.2726    3022.6489    19524.271    113.83668 
   24410    1012.4647   -8764.1438   -8651.2018    2563.0473     19514.55    114.08732 
   24420    1030.2624   -8766.1416   -8651.2143    1525.6918    19507.086    114.38456 
   24430    1012.0115   -8764.2257   -8651.3343    1409.2891    19501.053    114.69667 
   24440    1006.5423   -8763.8123    -8651.531    2271.6582    19496.365    115.01007 
   24450    999.95562   -8763.3288   -8651.7822      3609.23    19493.834    115.32117 
   24460    979.37882   -8761.3341    -8652.083       4617.8    19494.823    115.66901 
   24470    987.72194   -8762.5961   -8652.4142    3292.2607    19500.231    116.07955 
   24480    991.75047    -8763.402   -8652.7707    1615.4583    19509.036    116.52205 
   24490    995.85089   -8764.2559   -8653.1673    814.16439     19519.75    116.95146 
   24500    1005.9822   -8765.8379   -8653.6191    976.80664    19531.651    117.35795 
   24510     1008.633   -8766.6521   -8654.1375    831.66739    19544.786    117.75764 
   24520    995.91831   -8765.8041   -8654.7079     194.0357    19559.038    118.16559 
   24530    967.37026   -8763.1875   -8655.2759   -539.27626    19573.832     118.5837 
   24540    956.52186   -8762.4951   -8655.7937   -1545.6973    19588.442     118.9886 
   24550    977.07957   -8765.2657    -8656.271   -3046.7005    19601.821    119.34912 
   24560    991.41016   -8767.3326   -8656.7393   -4090.7069    19612.528    119.63595 
   24570    1010.3665    -8769.955   -8657.2471   -4297.5639    19619.461    119.84043 
   24580    1003.6489   -8769.7707   -8657.8122    -3414.838    19622.331    119.96717 
   24590    977.45153   -8767.4232    -8658.387   -1730.7446     19621.93    120.02263 
   24600     993.4791   -8769.7852   -8658.9611    -1257.419    19619.661    120.01469 
   24610    989.95552   -8769.9671   -8659.5361   -1038.1634    19616.082    119.95643 
   24620    971.69983   -8768.4629   -8660.0683   -1140.1969    19611.362    119.86945 
   24630    985.96866   -8770.5393    -8660.553   -1212.4928    19605.391    119.76062 
   24640    984.85235   -8770.8488    -8660.987   -265.02784    19598.155    119.62639 
   24650     993.5356   -8772.2318   -8661.4014    1478.4155    19590.541    119.47982 
   24660    963.70316   -8769.2751   -8661.7726    3672.6948    19584.265    119.36952 
   24670    955.62168   -8768.6739   -8662.0729    4554.9725    19581.397     119.3487 
   24680    979.07034   -8771.5452   -8662.3285    4281.4216    19582.924    119.44672 
   24690    978.43522   -8771.7265   -8662.5806    3901.5435     19588.79    119.66038 
   24700    960.53619   -8769.9891   -8662.8398    2972.9342    19598.685    119.97525 
   24710    947.49679   -8768.7429   -8663.0482    1438.3869    19611.775    120.36971 
   24720    963.12049   -8770.5884   -8663.1508   -512.66993    19626.612    120.79809 
   24730    965.22296   -8770.8143   -8663.1422   -2106.6094    19641.341    121.21075 
   24740    959.65629   -8770.1244   -8663.0733    -2648.114    19654.416    121.57766 
   24750    952.53646   -8769.2288    -8662.972   -2706.4508    19665.175    121.89161 
   24760    957.11525   -8769.6203   -8662.8526   -2584.8591    19673.473    122.15633 
   24770    956.86597   -8769.4511   -8662.7113   -2513.8659     19679.36     122.3721 
   24780    950.28959   -8768.5688   -8662.5626   -2921.1065      19682.8    122.56749 
   24790    918.54328   -8764.8468   -8662.3819   -2745.9983    19683.426    122.77849 
   24800    935.84755   -8766.5209   -8662.1257   -2606.1344    19681.275     123.0106 
   24810    988.19117   -8772.0389   -8661.8047   -2371.6592     19676.45    123.24792 
   24820    972.35822   -8769.9476   -8661.4796    -41.53981    19669.324    123.46954 
   24830    954.64357   -8767.6482   -8661.1563    2240.6027    19661.988    123.66986 
   24840    973.71431   -8769.4245   -8660.8052    3114.5091    19656.658    123.86497 
   24850    977.27034   -8769.4595   -8660.4436    2704.9863    19654.235    124.06604 
   24860    976.24906   -8768.9933   -8660.0912    1623.1461    19654.422    124.27824 
   24870    982.40266   -8769.3405    -8659.752    778.62361    19656.271    124.50845 
   24880    992.25018   -8770.1363   -8659.4493    920.94608     19659.02     124.7628 
   24890    968.64516   -8767.2136   -8659.1598    2012.4862    19662.849    125.04321 
   24900    967.94349   -8766.8369   -8658.8613    2582.8659    19668.735    125.32455 
   24910    980.93641    -8767.969   -8658.5441    2230.8482    19677.272    125.57928 
   24920     1007.059   -8770.5927   -8658.2537    1146.4685    19688.142    125.80584 
   24930    996.18871   -8769.1526   -8658.0262    722.29917    19700.431    126.02156 
   24940    978.70366   -8767.0472   -8657.8713     641.4982    19713.721    126.25346 
   24950    966.20401   -8765.5186   -8657.7371    12.879624     19727.87    126.50959 
   24960    975.53997   -8766.4239   -8657.6009   -730.51364    19742.287    126.76875 
   24970    944.18734   -8762.7608   -8657.4353   -272.18688    19756.329     127.0019 
   24980    938.83061   -8761.9487   -8657.2207    710.62286    19770.377    127.21284 
   24990    980.30625   -8766.2797    -8656.925     922.1938    19785.296     127.4356 
   25000     983.8752   -8766.3285   -8656.5757    995.83482    19801.395    127.69446 
Loop time of 13581.6 on 16 procs for 20000 steps with 864 atoms

Performance: 0.127 ns/day, 188.633 hours/ns, 1.473 timesteps/s
95.6% CPU use with 16 MPI tasks x 1 OpenMP threads

MPI task timing breakdown:
Section |  min time  |  avg time  |  max time  |%varavg| %total
---------------------------------------------------------------
Pair    | 3405.5     | 7271.4     | 13425      |4147.7 | 53.54
Bond    | 0.0015366  | 0.0030627  | 0.0067594  |   2.6 |  0.00
Neigh   | 0.14436    | 0.33327    | 0.66383    |  31.1 |  0.00
Comm    | 152.62     | 4371.7     | 9267.4     |4499.1 | 32.19
Output  | 1.4426     | 1.4697     | 1.8605     |   8.3 |  0.01
Modify  | 1.4182     | 1936.6     | 5723.4     |4273.8 | 14.26
Other   |            | 0.09634    |            |       |  0.00

Nlocal:        54.0000 ave          91 max          26 min
Histogram: 5 0 3 0 0 2 2 1 1 2
Nghost:        505.062 ave         688 max         335 min
Histogram: 6 0 1 1 0 0 2 0 2 4
Neighs:         0.00000 ave           0 max           0 min
Histogram: 16 0 0 0 0 0 0 0 0 0
FullNghs:      2750.88 ave        6064 max         596 min
Histogram: 5 3 0 0 2 0 2 1 1 2

Total # of neighbors = 44014
Ave neighs/atom = 50.942130
Ave special neighs/atom = 0.0000000
Neighbor list builds = 2000
Dangerous builds = 2000
Total wall time: 4:40:37
