LAMMPS (29 Sep 2021 - Update 3)
OMP_NUM_THREADS environment is not set. Defaulting to 1 thread. (src/comm.cpp:98)
  using 1 OpenMP thread(s) per MPI task
units	metal
atom_style	full

read_data	mixed.data
Reading data file ...
  orthogonal box = (0.0000000 0.0000000 0.0000000) to (15.857269 15.758596 73.856324)
  2 by 1 by 8 MPI processor grid
  reading atoms ...
  864 atoms
Finding 1-2 1-3 1-4 neighbors ...
  special bond factors lj:    0        0        0       
  special bond factors coul:  0        0        0       
     0 = max # of 1-2 neighbors
     0 = max # of 1-3 neighbors
     0 = max # of 1-4 neighbors
     1 = max # of special neighbors
  special bonds CPU = 0.006 seconds
  read_data CPU = 0.258 seconds

pair_style	quip
pair_coeff	* * /ocean/projects/cts180021p/wuziqi/clease/mint-PD/PhaseDiagram-Clease/Liquid/GAP_potential/gap_LiKCl.xml "Potential xml_label=GAP_2021_9_27_0_1_17_37_618" 17 19 3

neighbor	0.3 bin
neigh_modify	delay 10

timestep	0.001
compute	msd all msd
thermo_style	custom step temp pe etotal press vol c_msd[4]
thermo	10
dump	1 all custom 10 xyz-mix.dump type id x y z
dump	2 all custom 10 force-mix.dump type id fx fy fz

fix     1 all nve
run     2000
Neighbor list info ...
  update every 1 steps, delay 10 steps, check yes
  max neighbors/atom: 2000, page size: 100000
  master list distance cutoff = 6.22
  ghost atom cutoff = 6.22
  binsize = 3.11, bins = 6 6 24
  1 neighbor lists, perpetual/occasional/extra = 1 0 0
  (1) pair quip, perpetual
      attributes: full, newton on
      pair build: full/bin
      stencil: full/bin/3d
      bin: standard
Per MPI rank memory allocation (min/avg/max) = 8.896 | 8.907 | 8.915 Mbytes
Step Temp PotEng TotEng Press Volume c_msd[4] 
       0            0   -6680.0933   -6680.0933   -8281.1165    18455.831            0 
      10    70.089017   -6687.9205    -6680.102   -9637.9304    18455.831 0.00053514082 
      20    180.09083   -6700.2003   -6680.1109   -11326.743    18455.831 0.0066144209 
      30    218.60542   -6704.4933   -6680.1075   -10699.378    18455.831  0.022432956 
      40    219.14865   -6704.5494    -6680.103   -8951.3193    18455.831  0.042690684 
      50    240.47609   -6706.9311   -6680.1056   -8003.5149    18455.831  0.059191698 
      60    253.66901   -6708.4039   -6680.1068    -7626.627    18455.831   0.07070925 
      70     242.9182   -6707.2018   -6680.1039   -7466.6829    18455.831  0.079364222 
      80    245.92472    -6707.537   -6680.1038   -7609.4954    18455.831  0.086633288 
      90    257.49674   -6708.8305   -6680.1063   -7851.5904    18455.831  0.095173812 
     100    252.46946   -6708.2676   -6680.1043   -7551.0395    18455.831   0.10676573 
     110    248.46405   -6707.8212   -6680.1047   -7097.6705    18455.831   0.12025968 
     120    250.68872   -6708.0687    -6680.104   -6824.8497    18455.831   0.13340609 
     130      258.818   -6708.9777   -6680.1062   -6596.3887    18455.831   0.14573975 
     140    253.60976   -6708.3953   -6680.1047   -6185.2051    18455.831   0.15889724 
     150    247.40375   -6707.7026   -6680.1043   -5947.5032    18455.831   0.17318983 
     160    248.95468   -6707.8762   -6680.1049   -5851.7986    18455.831   0.18766652 
     170    251.06346   -6708.1121   -6680.1056   -5590.4969    18455.831   0.20144657 
     180    246.23782    -6707.572   -6680.1038   -5247.2261    18455.831   0.21382042 
     190    251.48989   -6708.1586   -6680.1045   -5416.1608    18455.831   0.22371169 
     200    260.44308   -6709.1586   -6680.1058   -5793.9896    18455.831   0.23141162 
     210    257.82494   -6708.8658    -6680.105   -6133.6533    18455.831   0.23844771 
     220    250.73963   -6708.0747   -6680.1043   -6257.2025    18455.831   0.24564622 
     230    248.07271   -6707.7773   -6680.1044   -6243.0592    18455.831   0.25309034 
     240    248.93862   -6707.8742   -6680.1047   -6226.9294    18455.831   0.26091643 
     250    248.99388   -6707.8804   -6680.1047   -6334.5414    18455.831   0.26913526 
     260    251.27669   -6708.1344   -6680.1041   -6551.8246    18455.831   0.27705303 
     270    260.34527   -6709.1477   -6680.1058        -6764    18455.831   0.28421607 
     280    260.83001   -6709.2011   -6680.1051   -6639.8092    18455.831   0.29163604 
     290    256.24266   -6708.6893    -6680.105   -6449.9322    18455.831   0.29974682 
     300    250.69638     -6708.07   -6680.1044   -6471.1016    18455.831   0.30849754 
     310    250.05901    -6707.999   -6680.1046   -6562.0942    18455.831   0.31777754 
     320    252.23509   -6708.2423   -6680.1051   -6693.6464    18455.831   0.32755563 
     330    250.81469   -6708.0833   -6680.1046   -6713.8004    18455.831   0.33779883 
     340    250.65515   -6708.0657   -6680.1047     -6614.52    18455.831   0.34801692 
     350    252.94275   -6708.3202   -6680.1041   -6588.7327    18455.831   0.35730468 
     360    261.50627   -6709.2774    -6680.106   -6797.9362    18455.831   0.36504658 
     370    261.10007   -6709.2316   -6680.1055   -6831.7443    18455.831   0.37190178 
     380    253.99916   -6708.4387   -6680.1047   -6726.1215    18455.831   0.37827271 
     390    253.05009   -6708.3325   -6680.1044    -6835.806    18455.831   0.38397661 
     400    258.03703   -6708.8906   -6680.1062   -6768.7818    18455.831   0.38955387 
     410      252.036   -6708.2195   -6680.1045   -6292.4532    18455.831   0.39652014 
     420    250.52201   -6708.0507   -6680.1046   -5826.2725    18455.831   0.40500255 
     430    256.29495   -6708.6954   -6680.1053    -5546.315    18455.831    0.4145153 
     440    262.43605   -6709.3808   -6680.1057   -5439.0868    18455.831   0.42473971 
     450    264.26046   -6709.5844   -6680.1058   -5272.9671    18455.831   0.43527985 
     460    262.52327   -6709.3894   -6680.1046   -5195.9426    18455.831   0.44476232 
     470    267.68384   -6709.9661   -6680.1056   -5304.7962    18455.831   0.45177569 
     480    270.55653   -6710.2863   -6680.1053   -5291.2639    18455.831   0.45687774 
     490    270.72724   -6710.3054   -6680.1053   -5218.7322    18455.831   0.46120142 
     500    269.05227   -6710.1187   -6680.1055   -5175.8745    18455.831   0.46642946 
     510    263.94553   -6709.5489   -6680.1053   -5239.9274    18455.831   0.47407361 
     520    257.63711   -6708.8446   -6680.1048   -5291.7388    18455.831   0.48412853 
     530    257.06548   -6708.7811   -6680.1051   -5321.5334    18455.831   0.49506416 
     540    260.38526   -6709.1518   -6680.1055   -5376.0867    18455.831   0.50501047 
     550    260.91759   -6709.2118    -6680.106    -5479.615    18455.831   0.51322197 
     560    255.01677   -6708.5518   -6680.1043   -5675.0057    18455.831   0.52041437 
     570     259.1908   -6709.0183   -6680.1051   -6233.3417    18455.831    0.5272333 
     580    265.73933   -6709.7494   -6680.1058   -6810.0612    18455.831   0.53425593 
     590    267.07214   -6709.8973    -6680.105   -7271.0617    18455.831   0.54173358 
     600    270.59769   -6710.2906    -6680.105   -7669.4363    18455.831   0.54966243 
     610    275.51295   -6710.8394   -6680.1055   -7859.4286    18455.831   0.55825095 
     620    275.26386   -6710.8118   -6680.1057   -7564.3126    18455.831   0.56786247 
     630    267.62803    -6709.959   -6680.1047   -6980.9593    18455.831   0.57832835 
     640    265.09163   -6709.6761   -6680.1047   -6568.2152    18455.831   0.58820723 
     650    267.67247   -6709.9653    -6680.106    -6347.284    18455.831   0.59641333 
     660    264.01415   -6709.5562    -6680.105   -5916.0469    18455.831   0.60309646 
     670    263.52965    -6709.502   -6680.1049   -5671.0684    18455.831   0.60844331 
     680    269.00124    -6710.113   -6680.1055   -5692.2827    18455.831    0.6132683 
     690    271.45591    -6710.387   -6680.1057   -5574.8525    18455.831   0.61933075 
     700     270.0884   -6710.2336   -6680.1048   -5412.3704    18455.831   0.62727776 
     710    274.16504    -6710.689   -6680.1055   -5445.9009    18455.831   0.63604213 
     720    276.77226   -6710.9801   -6680.1057   -5459.4182    18455.831   0.64454539 
     730    275.88502   -6710.8806   -6680.1052    -5417.932    18455.831   0.65171241 
     740    275.85971   -6710.8783   -6680.1057   -5536.9233    18455.831   0.65662341 
     750    272.97993   -6710.5569   -6680.1056   -5708.1328    18455.831    0.6598394 
     760    268.28422    -6710.033   -6680.1055   -5761.8441    18455.831   0.66298993 
     770    264.14144   -6709.5705   -6680.1051   -5775.8492    18455.831   0.66717813 
     780    263.51726    -6709.501   -6680.1053   -5700.2554    18455.831   0.67265545 
     790    266.55703   -6709.8409    -6680.106    -5605.591    18455.831   0.67864068 
     800    265.59911   -6709.7343   -6680.1063   -5512.5062    18455.831   0.68325498 
     810    257.26872   -6708.8037    -6680.105    -5609.846    18455.831   0.68551207 
     820    257.02246   -6708.7759   -6680.1047   -5957.2323    18455.831   0.68532325 
     830    268.49996   -6710.0576    -6680.106   -6395.3276    18455.831   0.68384718 
     840      275.603   -6710.8497   -6680.1057   -6790.5333    18455.831   0.68323699 
     850    277.81756   -6711.0961   -6680.1052   -7039.0507    18455.831   0.68429619 
     860    281.61629     -6711.52   -6680.1053    -7112.387    18455.831   0.68675849 
     870    285.63694   -6711.9688   -6680.1055   -6936.0551    18455.831    0.6904508 
     880    286.29079   -6712.0419   -6680.1057   -6480.6542    18455.831   0.69538495 
     890    281.96956   -6711.5596   -6680.1055   -6039.8274    18455.831   0.70113257 
     900    274.65893   -6710.7442   -6680.1055     -5564.23    18455.831   0.70667182 
     910    267.20366   -6709.9114   -6680.1045   -5257.3591    18455.831   0.71136984 
     920     269.3838   -6710.1555   -6680.1053    -5367.122    18455.831   0.71512054 
     930    273.08823   -6710.5689   -6680.1055   -5720.7294    18455.831   0.71853359 
     940    275.14424   -6710.7982   -6680.1055   -5917.6904    18455.831   0.72236347 
     950    276.67291   -6710.9689   -6680.1056   -5610.0935    18455.831   0.72713733 
     960    276.62748   -6710.9635   -6680.1053   -5046.3658    18455.831   0.73337224 
     970     278.3434   -6711.1556   -6680.1059   -4610.3497    18455.831   0.74121898 
     980    276.50421   -6710.9503   -6680.1058   -4305.2609    18455.831   0.75038076 
     990    274.46428   -6710.7216   -6680.1047   -4327.9119    18455.831   0.75935205 
    1000    282.87647   -6711.6614   -6680.1061   -4696.6429    18455.831   0.76641954 
    1010    286.63377   -6712.0812   -6680.1068   -4990.2699    18455.831   0.77271728 
    1020    279.06324   -6711.2352   -6680.1053   -4771.2676    18455.831   0.78024384 
    1030    275.82234   -6710.8738   -6680.1054    -4403.339    18455.831   0.78871428 
    1040    278.66942   -6711.1919   -6680.1059   -3941.2604    18455.831   0.79675694 
    1050    279.04998   -6711.2352   -6680.1068   -3356.1301    18455.831   0.80429238 
    1060    270.39607   -6710.2685   -6680.1054   -2836.7873    18455.831   0.81167046 
    1070    268.92869   -6710.1046   -6680.1052   -2775.6081    18455.831   0.81774479 
    1080    276.86697   -6710.9921   -6680.1072   -2982.0197    18455.831   0.82183502 
    1090    273.51021   -6710.6167   -6680.1062   -3002.8881    18455.831   0.82504043 
    1100    268.10286   -6710.0129   -6680.1056    -3041.916    18455.831   0.82859974 
    1110    268.86345   -6710.0983   -6680.1061   -3274.5241    18455.831   0.83307382 
    1120    271.12867   -6710.3511   -6680.1063   -3502.0504    18455.831   0.83788345 
    1130    271.41072   -6710.3825   -6680.1063   -3567.0764    18455.831   0.84210043 
    1140    271.86949   -6710.4327   -6680.1053   -3657.0206    18455.831   0.84510588 
    1150    281.86599   -6711.5491   -6680.1065   -4076.7437    18455.831    0.8468347 
    1160    288.73127   -6712.3154    -6680.107   -4317.2032    18455.831    0.8485126 
    1170    284.72713   -6711.8682   -6680.1065   -4221.6867    18455.831   0.85124425 
    1180    277.76624   -6711.0907   -6680.1055   -3786.2546    18455.831   0.85522238 
    1190    278.42764   -6711.1658   -6680.1068   -3453.5254    18455.831   0.86063272 
    1200    274.57485   -6710.7358   -6680.1066   -3135.4804    18455.831   0.86799772 
    1210    268.17301   -6710.0207   -6680.1056   -3061.7485    18455.831   0.87596914 
    1220    269.73514   -6710.1951   -6680.1058   -3498.6687    18455.831   0.88197829 
    1230    275.57277   -6710.8475    -6680.107   -3998.6686    18455.831   0.88464671 
    1240    273.28864   -6710.5919   -6680.1062   -4275.4959    18455.831   0.88485118 
    1250    269.21341   -6710.1371    -6680.106   -4301.1389    18455.831   0.88413656 
    1260    268.47841   -6710.0549   -6680.1057   -4311.1873    18455.831   0.88296339 
    1270    272.54156   -6710.5085   -6680.1061   -4356.8217    18455.831   0.88172746 
    1280    277.77621   -6711.0926   -6680.1063   -4588.2508    18455.831   0.88180594 
    1290    280.19269   -6711.3629    -6680.107   -4852.3632    18455.831   0.88389526 
    1300    274.38994   -6710.7142   -6680.1056   -4801.0391    18455.831   0.88737003 
    1310    272.68687   -6710.5248   -6680.1062   -4600.8128    18455.831   0.89133871 
    1320    273.33879   -6710.5972   -6680.1059   -4506.2257    18455.831   0.89528436 
    1330    275.86937     -6710.88   -6680.1064   -4590.7459    18455.831   0.89889495 
    1340    276.57557   -6710.9584    -6680.106   -4592.8619    18455.831   0.90245999 
    1350    276.61512   -6710.9634   -6680.1066   -4506.7758    18455.831   0.90646299 
    1360    272.26073   -6710.4771    -6680.106   -4467.2196    18455.831   0.91136845 
    1370    268.73878   -6710.0839   -6680.1057   -4589.1112    18455.831   0.91701889 
    1380    269.83102   -6710.2061    -6680.106   -4803.1401    18455.831   0.92344131 
    1390    271.01809   -6710.3391   -6680.1066   -4995.7936    18455.831   0.93117145 
    1400    266.53417   -6709.8383   -6680.1061   -4887.7324    18455.831   0.93925395 
    1410    264.34979   -6709.5941   -6680.1054   -4661.6641    18455.831   0.94440069 
    1420    271.24246   -6710.3639   -6680.1064   -4782.1646    18455.831   0.94464645 
    1430    278.14891   -6711.1341   -6680.1062   -5345.1098    18455.831   0.94130273 
    1440    284.26073    -6711.816   -6680.1063   -5956.3496    18455.831    0.9366539 
    1450    286.06102   -6712.0176    -6680.107   -6473.9841    18455.831   0.93338269 
    1460    278.13817   -6711.1322   -6680.1055    -6637.014    18455.831   0.93336514 
    1470    274.95588   -6710.7774   -6680.1057   -6848.7234    18455.831   0.93597431 
    1480    275.34081   -6710.8209   -6680.1062   -7017.9963    18455.831   0.93943367 
    1490    271.96867   -6710.4442   -6680.1057   -6827.7136    18455.831   0.94245071 
    1500    271.43894   -6710.3851   -6680.1057   -6399.8258    18455.831   0.94456699 
    1510    273.11981   -6710.5738   -6680.1069   -5919.9683    18455.831   0.94612167 
    1520    266.58025   -6709.8431   -6680.1057   -5429.0631    18455.831   0.94681802 
    1530    264.24493   -6709.5825   -6680.1056   -5386.7007    18455.831   0.94511663 
    1540    268.14703   -6710.0187   -6680.1065   -5636.8718    18455.831   0.94138542 
    1550    270.20911    -6710.248   -6680.1058   -5845.7424    18455.831   0.93815309 
    1560    276.27553   -6710.9252   -6680.1062   -5792.6983    18455.831   0.93754478 
    1570    281.48981   -6711.5074   -6680.1068   -5440.6487    18455.831   0.94039184 
    1580    279.21915   -6711.2534    -6680.106   -4999.2991    18455.831   0.94601391 
    1590     277.1071   -6711.0177    -6680.106   -4867.2447    18455.831   0.95254979 
    1600    278.30993   -6711.1519    -6680.106   -4854.7315    18455.831   0.95811089 
    1610    283.09805   -6711.6862   -6680.1062   -4922.4033    18455.831   0.96206314 
    1620    285.07138   -6711.9077   -6680.1076   -4696.0901    18455.831   0.96577017 
    1630    273.23535   -6710.5854   -6680.1056   -4246.7962    18455.831   0.97096923 
    1640     267.7179   -6709.9697   -6680.1053   -4035.6486    18455.831     0.977191 
    1650    272.52244   -6710.5064   -6680.1061   -4111.8074    18455.831   0.98346373 
    1660     277.8589   -6711.1018   -6680.1062   -4253.7363    18455.831   0.98934697 
    1670    281.07361    -6711.461   -6680.1068   -4561.0787    18455.831   0.99446833 
    1680    278.83973   -6711.2107   -6680.1057   -4801.2753    18455.831   0.99855733 
    1690    282.27607   -6711.5942   -6680.1059   -5070.8212    18455.831    1.0013333 
    1700    288.92729   -6712.3376   -6680.1074   -5075.7299    18455.831    1.0032748 
    1710    283.97303   -6711.7838   -6680.1062   -4524.3033    18455.831    1.0056492 
    1720    280.32496   -6711.3763   -6680.1056   -4088.2037    18455.831    1.0090707 
    1730    285.00962   -6711.9005   -6680.1072   -4166.6509    18455.831    1.0129097 
    1740    281.71349    -6711.532   -6680.1064   -4428.6075    18455.831    1.0162807 
    1750    277.27178   -6711.0355   -6680.1055   -4669.9286    18455.831    1.0185587 
    1760    282.23006   -6711.5895   -6680.1063   -4723.6015    18455.831    1.0199448 
    1770    285.90961   -6712.0006   -6680.1069   -4414.9618    18455.831      1.02094 
    1780    282.38129   -6711.6061    -6680.106   -3873.7091    18455.831    1.0213084 
    1790    282.44165    -6711.613   -6680.1062   -3619.8434    18455.831    1.0208436 
    1800    287.55602   -6712.1841   -6680.1067   -3726.4708    18455.831    1.0207901 
    1810    288.11308   -6712.2473   -6680.1079    -3934.633    18455.831    1.0230701 
    1820    276.98552   -6711.0034   -6680.1052    -4186.202    18455.831    1.0283135 
    1830    277.15263   -6711.0235   -6680.1067   -4345.9838    18455.831    1.0350393 
    1840    276.23823   -6710.9215   -6680.1067   -4368.7653    18455.831    1.0414724 
    1850    273.19513   -6710.5804   -6680.1051   -4416.5455    18455.831    1.0455768 
    1860    283.83055   -6711.7684   -6680.1067   -4696.8368    18455.831    1.0462471 
    1870    291.37755   -6712.6113   -6680.1077   -4729.2468    18455.831    1.0448258 
    1880    283.33807   -6711.7134   -6680.1066   -4658.1696    18455.831    1.0428769 
    1890    273.10669    -6710.571   -6680.1055   -4806.2478    18455.831     1.040683 
    1900    272.25017   -6710.4761   -6680.1062   -4992.1727    18455.831    1.0384095 
    1910    274.11365   -6710.6842   -6680.1065    -4851.611    18455.831    1.0367748 
    1920     274.3815    -6710.714   -6680.1064   -4374.9654    18455.831    1.0362621 
    1930    273.80361   -6710.6496   -6680.1064   -3953.3671    18455.831    1.0369737 
    1940    273.81216   -6710.6506   -6680.1064   -3660.7249    18455.831     1.038631 
    1950     274.0972   -6710.6826   -6680.1067   -3555.6748    18455.831    1.0408007 
    1960     275.1804   -6710.8028    -6680.106   -3995.0323    18455.831    1.0431217 
    1970    281.99645   -6711.5638   -6680.1067   -4818.7611    18455.831    1.0450424 
    1980     287.0536   -6712.1285   -6680.1072   -5430.2829    18455.831    1.0464652 
    1990    282.90097   -6711.6645   -6680.1064   -5324.8363    18455.831    1.0478613 
    2000    278.29624   -6711.1501   -6680.1058   -5003.2499    18455.831    1.0492005 
Loop time of 1311.66 on 16 procs for 2000 steps with 864 atoms

Performance: 0.132 ns/day, 182.175 hours/ns, 1.525 timesteps/s
96.8% CPU use with 16 MPI tasks x 1 OpenMP threads

MPI task timing breakdown:
Section |  min time  |  avg time  |  max time  |%varavg| %total
---------------------------------------------------------------
Pair    | 495        | 839.67     | 1311.2     | 644.7 | 64.02
Bond    | 0.00013185 | 0.00037426 | 0.00079632 |   0.0 |  0.00
Neigh   | 0.01829    | 0.029926   | 0.049293   |   3.9 |  0.00
Comm    | 0.25095    | 409.67     | 749.82     | 834.9 | 31.23
Output  | 0.1384     | 34.86      | 78.26      | 520.6 |  2.66
Modify  | 0.008786   | 0.010349   | 0.011897   |   0.9 |  0.00
Other   |            | 27.42      |            |       |  2.09

Nlocal:        54.0000 ave          86 max          35 min
Histogram: 1 1 3 7 2 1 0 0 0 1
Nghost:        537.750 ave         662 max         448 min
Histogram: 3 1 1 5 0 0 3 1 1 1
Neighs:         0.00000 ave           0 max           0 min
Histogram: 16 0 0 0 0 0 0 0 0 0
FullNghs:      2646.75 ave        5387 max        1216 min
Histogram: 2 2 3 4 3 1 0 0 0 1

Total # of neighbors = 42348
Ave neighs/atom = 49.013889
Ave special neighs/atom = 0.0000000
Neighbor list builds = 199
Dangerous builds = 198
unfix   1

velocity    all create 1050.0 1312343 dist gaussian
fix     2 all npt temp 1050.0 1050.0 $(100.0*dt) aniso 0.0 1.01325 $(1000.0*dt)
fix     2 all npt temp 1050.0 1050.0 0.10000000000000000555 aniso 0.0 1.01325 $(1000.0*dt)
fix     2 all npt temp 1050.0 1050.0 0.10000000000000000555 aniso 0.0 1.01325 1
run     3000
Per MPI rank memory allocation (min/avg/max) = 8.897 | 8.909 | 8.917 Mbytes
Step Temp PotEng TotEng Press Volume c_msd[4] 
    2000         1050   -6711.1501   -6594.0211   -21.160177    18455.831    1.0492005 
    2010    909.18702   -6695.3968   -6593.9756    3279.1646     18456.06    1.0589454 
    2020    714.92984   -6673.4604   -6593.7089    7544.9283    18459.007    1.0808215 
    2030    664.96005   -6667.2475   -6593.0702    8026.2731    18467.823    1.1011846 
    2040    634.19756   -6662.7372   -6591.9915     7184.695    18483.128    1.1217492 
    2050    605.99925   -6658.3049   -6590.7048    6544.4737    18504.372    1.1430839 
    2060    619.83917   -6658.6097   -6589.4657    5474.8069    18530.995    1.1634141 
    2070    642.86736   -6660.0414   -6588.3286    4816.5678    18562.219    1.1845542 
    2080    664.29586   -6661.3041   -6587.2009    4288.8514    18597.481    1.2074073 
    2090    667.13507     -6660.38   -6585.9601    3542.5835    18636.331    1.2303854 
    2100      680.077   -6660.4278   -6584.5642    2177.1726    18678.112    1.2521894 
    2110    719.98662   -6663.2659   -6582.9503    5.3543649    18721.625    1.2747791 
    2120    725.64689    -6662.135    -6581.188   -729.18357    18765.177    1.3016066 
    2130    683.56741   -6655.7049    -6579.452    195.93001    18808.115    1.3326445 
    2140     677.3136   -6653.3044   -6577.7491    473.73904     18850.98    1.3626604 
    2150    693.43311   -6653.3093   -6575.9558   -360.10796    18893.941     1.389728 
    2160    699.13569   -6652.0648   -6574.0751   -1641.3675    18936.275    1.4154148 
    2170    716.96533   -6652.1107   -6572.1321   -2462.9553    18976.907    1.4406911 
    2180    735.92142   -6652.2149   -6570.1218   -2669.8208    19015.105    1.4667942 
    2190    727.35071    -6649.238   -6568.1009   -2530.6608    19050.645    1.4940765 
    2200    723.98073   -6646.8567   -6566.0955   -2351.2352    19083.628    1.5210994 
    2210    737.23637    -6646.292   -6564.0521   -2460.2949    19114.161    1.5460365 
    2220    741.19448   -6644.6538   -6561.9725   -2488.0051    19142.197    1.5680712 
    2230    749.88723   -6643.5241    -6559.873   -3005.1353    19167.671    1.5875083 
    2240    753.24163   -6641.7698   -6557.7446   -3526.8593    19190.195    1.6062729 
    2250    757.18895   -6640.0765   -6555.6109   -3726.8869    19209.357    1.6246054 
    2260    755.85699   -6637.7855   -6553.4685    -3475.029    19225.028    1.6404866 
    2270    766.42354   -6636.8192   -6551.3235   -3259.1204    19237.436    1.6514286 
    2280    797.05144   -6638.0382   -6549.1259   -3121.6248    19246.807    1.6591868 
    2290    814.05002   -6637.7042   -6546.8957   -2556.9132    19253.337    1.6690766 
    2300    818.43666   -6635.9748    -6544.677   -2059.0345    19257.504    1.6813539 
    2310    821.23725   -6634.0888   -6542.4785   -1813.2409    19259.804    1.6909059 
    2320    838.43468   -6633.7954   -6540.2667   -1858.2885    19260.465    1.6954202 
    2330    852.10652   -6633.0935   -6538.0397   -1934.4898     19259.47    1.6997117 
    2340    852.69963     -6630.94   -6535.8201   -2067.7188    19256.783    1.7104187 
    2350     866.8738   -6630.3108   -6533.6097   -1987.3814    19252.337    1.7267453 
    2360    891.63614   -6630.8342   -6531.3708   -1654.0589    19246.217    1.7457995 
    2370    888.48317   -6628.2608   -6529.1491   -1215.3617    19238.721     1.765406 
    2380     882.7035   -6625.4368   -6526.9699   -633.00005    19230.264    1.7815991 
    2390    882.38283   -6623.2389   -6524.8077   -120.76062    19221.348    1.7926661 
    2400    885.80652   -6621.4461    -6522.633    196.88183    19212.432    1.8007587 
    2410    897.03212   -6620.5107   -6520.4455    342.73838     19203.78    1.8093811 
    2420    893.00632   -6617.8723   -6518.2561     710.3218    19195.563    1.8205305 
    2430    905.48767   -6617.0882   -6516.0797    699.92146    19188.042     1.833155 
    2440    928.69507   -6617.4786   -6513.8813    475.89094    19181.207    1.8479862 
    2450    953.22292   -6618.0193   -6511.6858    202.08081    19174.845    1.8665522 
    2460    964.03938   -6617.0617   -6509.5217    750.68785    19168.797    1.8907826 
    2470    959.79113   -6614.4864   -6507.4202    1719.6172    19163.512    1.9197259 
    2480    966.67768   -6613.1953    -6505.361     2449.646    19159.771    1.9501876 
    2490    976.85833   -6612.2839   -6503.3139    3033.7528    19158.203    1.9794764 
    2500     999.8405    -6612.831   -6501.2973    3094.1364     19159.25    2.0047395 
    2510    1009.6353   -6611.9437   -6499.3173    3063.6449    19162.988    2.0256775 
    2520    1030.2716   -6612.3408   -6497.4124    2552.5503    19169.328     2.042504 
    2530    1037.9755   -6611.3604   -6495.5727    2515.8822    19177.896    2.0601501 
    2540      1050.74   -6611.0452   -6493.8336    2813.3416    19188.616    2.0827366 
    2550    1058.1483   -6610.2242   -6492.1862     3242.743    19201.734    2.1103886 
    2560    1064.1397   -6609.3599   -6490.6536    3567.2696    19217.584    2.1413038 
    2570    1060.0863   -6607.4821   -6489.2279    3676.0202    19236.431    2.1746395 
    2580    1041.4193   -6604.0735   -6487.9016    3448.8557    19258.352    2.2089697 
    2590    1035.6641   -6602.1604   -6486.6305    2366.9445    19283.092    2.2438098 
    2600    1041.8032   -6601.5681   -6485.3534    946.02598    19309.708     2.278362 
    2610    1033.8577   -6599.4104    -6484.082    566.52908    19337.041     2.308416 
    2620    1041.0194   -6598.9506   -6482.8233    1122.7614     19364.73    2.3355756 
    2630    1077.7936   -6601.8016   -6481.5721    1155.5508    19393.122    2.3645061 
    2640    1115.5563   -6604.8139   -6480.3719    862.99267    19422.282    2.3982125 
    2650    1116.1322   -6603.8288   -6479.3225    931.87857    19451.975    2.4380211 
    2660    1093.7807   -6600.4733   -6478.4604    1018.3997    19482.222     2.483503 
    2670    1075.9011   -6597.7484     -6477.73    1126.2468    19513.096    2.5356742 
    2680    1032.8044   -6592.2928   -6477.0819    1596.6209    19544.695    2.5938517 
    2690    1008.1364   -6588.8929   -6476.4338    1349.1034    19577.352    2.6467202 
    2700    1033.0317   -6590.9333    -6475.697    253.73961    19610.803    2.6847155 
    2710    1050.9499   -6592.1254   -6474.8904    -187.6231    19644.145     2.713529 
    2720    1059.2876   -6592.2443   -6474.0792   -356.07165     19676.93    2.7437096 
    2730    1056.2906   -6591.1148    -6473.284   -1007.0773    19708.919    2.7820774 
    2740    1060.2602    -6590.773   -6472.4994   -2059.4671    19739.522    2.8275872 
    2750    1065.6509   -6590.5939   -6471.7189    -3329.222    19767.773    2.8764393 
    2760    1057.0508   -6588.8835   -6470.9679   -3841.0678    19792.583    2.9283385 
    2770     1027.852   -6584.9062   -6470.2477   -3602.3398    19813.518    2.9803968 
    2780    1037.5936   -6585.2676   -6469.5224   -3484.2823    19830.763     3.025392 
    2790     1034.775   -6584.2027    -6468.772   -2821.3201    19844.561    3.0617895 
    2800    1034.7744   -6583.4466   -6468.0159   -2187.4231    19855.517    3.0933191 
    2810    1049.8295   -6584.3482   -6467.2382   -1580.4437    19864.274    3.1266967 
    2820    1049.6155   -6583.5364   -6466.4502   -1012.0494    19871.444    3.1669159 
    2830    1081.3227   -6586.3069   -6465.6837   -778.17947    19877.536    3.2127246 
    2840    1068.1202   -6584.1061   -6464.9557    290.01476    19882.888    3.2652538 
    2850     1063.017    -6582.873   -6464.2918    1129.5443    19888.419    3.3208397 
    2860    1093.5248   -6585.6483    -6463.664    1109.9079    19894.872    3.3709506 
    2870    1113.5001   -6587.3311   -6463.1185    805.99494    19902.267    3.4159648 
    2880    1104.2903   -6585.9028   -6462.7176    354.75987    19910.309    3.4626272 
    2890    1079.0554    -6582.815   -6462.4447    211.22726     19918.62    3.5102838 
    2900     1056.878   -6580.1415   -6462.2452    227.23928    19927.053    3.5571757 
    2910     1034.212   -6577.4279     -6462.06    266.21009    19935.609    3.6056304 
    2920    1048.3507   -6578.7977   -6461.8526    41.503139    19944.299    3.6566984 
    2930    1051.7894   -6578.9675   -6461.6389    201.53073    19952.955    3.7095625 
    2940    1039.1393   -6577.3389   -6461.4213    482.17869    19961.714    3.7551027 
    2950    1067.7309   -6580.3032   -6461.1962    210.34759    19970.787    3.7886508 
    2960    1057.3369   -6578.9306    -6460.983    344.20378    19980.005    3.8209769 
    2970    1032.1294   -6575.9205    -6460.785    437.41883    19989.455    3.8584378 
    2980    1048.7962    -6577.562   -6460.5672   -65.197605    19999.164    3.8957485 
    2990    1062.7766   -6578.8938   -6460.3395   -732.25228    20008.698    3.9280082 
    3000    1054.8409   -6577.7828   -6460.1137   -1694.2192    20017.426    3.9576215 
    3010    1100.7528   -6582.7173   -6459.9266   -3267.2015    20024.392     3.986006 
    3020    1111.7926   -6583.8515   -6459.8293   -3874.6301    20028.271    4.0133355 
    3030    1096.8655   -6582.2382   -6459.8812   -3684.6039    20028.477      4.04487 
    3040     1084.508   -6581.0344   -6460.0559   -3203.6347    20025.188    4.0803716 
    3050    1059.4359   -6578.4828   -6460.3011    -1942.172    20018.976    4.1147062 
    3060    1067.5187   -6579.6673    -6460.584   -1443.1895    20010.892    4.1427314 
    3070     1084.693   -6581.9146   -6460.9155   -1401.2656     20001.45    4.1664305 
    3080    1082.2677   -6582.0437   -6461.3152   -1216.2822    19990.794    4.1917041 
    3090    1082.3234   -6582.5214   -6461.7866   -1444.1999    19979.045     4.219579 
    3100    1081.0611   -6582.9356   -6462.3416   -1000.8509    19966.091    4.2492441 
    3110    1043.2057   -6579.3021   -6462.9309    43.227071    19952.353    4.2823516 
    3120    1027.4162   -6578.0978    -6463.488    398.78301    19938.717    4.3223215 
    3130    1049.1156   -6581.0381   -6464.0077    222.60459    19925.538    4.3675795 
    3140    1054.7455   -6582.1847   -6464.5262    782.13597     19912.76    4.4149427 
    3150    1054.8571   -6582.7166   -6465.0458    1150.1219    19900.817    4.4621717 
    3160    1063.8557   -6584.2675   -6465.5928    1219.5322     19890.03     4.501116 
    3170    1042.5571   -6582.4455   -6466.1467    1441.3329    19880.501    4.5321701 
    3180    1044.5759   -6583.2188   -6466.6948    1077.7869    19872.351    4.5579287 
    3190    1051.0956   -6584.4867   -6467.2354    957.51375    19865.302    4.5812361 
    3200    1032.8995   -6582.9834   -6467.7619     1516.986    19859.279    4.6072013 
    3210    1031.9062    -6583.359   -6468.2483    1549.2089    19854.677    4.6410148 
    3220    1044.5709   -6585.2261   -6468.7027    1027.5175    19851.522    4.6825828 
    3230    1042.4515   -6585.4265   -6469.1395    818.52523    19849.393    4.7226251 
    3240    1053.2902   -6587.0649   -6469.5688    732.89056    19848.076    4.7549826 
    3250    1066.6656   -6589.0079   -6470.0198    316.82972    19847.421     4.784294 
    3260    1048.9588   -6587.5025   -6470.4896    390.35046    19847.131    4.8158983 
    3270    1034.1004   -6586.3095    -6470.954    406.16285     19847.22    4.8500224 
    3280    1029.1599   -6586.1826   -6471.3783   -203.61714    19847.633    4.8876363 
    3290    1035.2818   -6587.2519   -6471.7647    -378.5782    19847.892    4.9289171 
    3300    1029.8893   -6586.9997    -6472.114    493.61369    19847.898    4.9707513 
    3310    1018.6388   -6586.0451   -6472.4144    1492.8546     19848.39    5.0100585 
    3320    1025.1303   -6587.0126   -6472.6578    1476.2455    19850.218    5.0465832 
    3330    1027.5887   -6587.4744   -6472.8453    596.82734    19853.377    5.0807609 
    3340    1021.4452   -6586.9266   -6472.9829   -453.35549    19857.087    5.1137163 
    3350    1004.4856   -6585.1009    -6473.049   -1304.1152    19860.391    5.1510594 
    3360    1009.0699   -6585.5901   -6473.0268   -2083.3907     19862.45    5.1957533 
    3370     1016.539   -6586.3105   -6472.9141    -2066.722    19862.604    5.2474892 
    3380    1012.3249   -6585.6619   -6472.7356   -1250.9504     19860.88     5.305058 
    3390    988.95827   -6582.7884   -6472.4686   -337.83057    19858.001     5.360684 
    3400    988.03744   -6582.3017   -6472.0846   -334.60427    19854.723    5.4023807 
    3410    1001.6859   -6583.3059   -6471.5663   -288.21612    19851.153     5.431282 
    3420     1010.553   -6583.6645   -6470.9358   -183.67327    19847.324    5.4551979 
    3430    1023.5032   -6584.3962   -6470.2228   -14.897634     19843.34    5.4788496 
    3440    1023.6408   -6583.6363   -6469.4477   -38.547278    19839.326     5.507994 
    3450    1030.3054   -6583.5712   -6468.6391   -905.44563    19835.195    5.5446356 
    3460    1011.6855   -6580.6493   -6467.7943   -1545.6102    19830.245    5.5838343 
    3470     1023.098   -6581.0468   -6466.9186   -1988.0142    19823.841    5.6162546 
    3480    1019.0096   -6579.6574   -6465.9854    -1502.967    19815.641     5.642685 
    3490    1050.7941   -6582.2372   -6465.0196   -932.83925    19806.033     5.666419 
    3500    1093.1445   -6585.9838   -6464.0419   -1144.1042    19795.467    5.6890194 
    3510     1086.897    -6584.393    -6463.148   -119.23541    19783.957    5.7113222 
    3520    1075.8947   -6582.3859   -6462.3682    637.01285     19772.28    5.7324473 
    3530    1096.2892   -6583.9707   -6461.6779    449.67998    19761.118    5.7552112 
    3540    1100.1538   -6583.8093   -6461.0855   -51.778026    19750.354    5.7878425 
    3550    1095.3489   -6582.8036   -6460.6158   -149.62333    19739.573    5.8326953 
    3560    1092.2037   -6582.0946   -6460.2576    33.184142    19728.669     5.882751 
    3570    1114.3563    -6584.316   -6460.0079    179.97555    19717.792    5.9289474 
    3580    1107.6401   -6583.4411   -6459.8822    1103.0935    19707.164    5.9698863 
    3590    1126.1328   -6585.5272   -6459.9054    1695.7888    19697.533    6.0141297 
    3600    1126.7614   -6585.7783   -6460.0863    1698.9059    19689.424     6.071042 
    3610    1088.0177   -6581.7942   -6460.4242    2177.0741    19682.935    6.1418367 
    3620    1054.5696   -6578.4719   -6460.8331    3029.4619    19678.508    6.2156737 
    3630    1066.5057   -6580.2407   -6461.2703    3580.5746    19676.866    6.2817889 
    3640    1056.7193   -6579.6051   -6461.7265    3942.6478    19678.537    6.3332908 
    3650    1062.5098   -6580.7328   -6462.2082    3561.5794    19683.792    6.3732252 
    3660    1057.4454   -6580.6879   -6462.7283    3369.8156    19692.363    6.4146576 
    3670    1050.4858   -6580.4539   -6463.2706    3184.2252    19704.059    6.4607201 
    3680    1068.0913   -6582.9883   -6463.8411    2421.2033    19718.678    6.5081628 
    3690    1045.9366   -6581.1061   -6464.4303    1994.6852     19735.61    6.5591982 
    3700    1026.8747   -6579.5519   -6465.0025    1007.7626    19754.349    6.6106885 
    3710    1013.3368   -6578.5298   -6465.4906    327.19693    19774.064    6.6536102 
    3720    1020.9027   -6579.7793   -6465.8961    53.196681     19794.09    6.6845776 
    3730    1022.1223   -6580.2516   -6466.2323    142.55888    19814.187    6.7099373 
    3740    1028.0547   -6581.1972   -6466.5161   -195.95864    19834.345    6.7387459 
    3750    1017.1092   -6580.1972   -6466.7371    -60.21338    19854.359    6.7725698 
    3760    1043.1513   -6583.2709   -6466.9058    -967.4336    19874.184    6.8028554 
    3770     1068.735   -6586.2677   -6467.0487   -1507.0538    19893.131    6.8350587 
    3780    1070.0365    -6586.594   -6467.2298   -1362.5954    19910.679    6.8742294 
    3790     1067.942   -6586.5994   -6467.4688   -1303.3343     19926.89    6.9109197 
    3800    1046.5317   -6584.4941   -6467.7519   -1138.6081    19941.849    6.9371268 
    3810    1008.2823    -6580.483   -6468.0076   -941.65776    19955.711    6.9530379 
    3820    1024.0181   -6582.4335   -6468.2028   -975.59039    19968.628    6.9655885 
    3830    1034.3778   -6583.7251   -6468.3387    -312.0027     19980.68    6.9839718 
    3840    1049.0089   -6585.4704   -6468.4519   -203.76881    19992.368    7.0159932 
    3850    1039.6306   -6584.5278   -6468.5555    -280.8399    20003.847    7.0610694 
    3860    1017.7386   -6582.1527   -6468.6224    33.281873    20015.099    7.1065154 
    3870    1049.4391   -6585.7203   -6468.6538   -413.49063    20026.285    7.1423198 
    3880    1048.9202   -6585.6702   -6468.6616   -838.67449    20037.077    7.1706694 
    3890    1034.8138   -6584.0941   -6468.6591   -962.01982    20047.097     7.195813 
    3900    1069.0918   -6587.9097   -6468.6509   -1617.7004    20056.128    7.2189179 
    3910    1053.4866   -6586.1784   -6468.6604   -1305.9919    20063.709    7.2397761 
    3920    1021.2691   -6582.6079   -6468.6838   -993.03922    20070.036    7.2576419 
    3930    1014.1482   -6581.7746   -6468.6448   -1259.5182    20075.385    7.2812724 
    3940    1020.9302   -6582.4177   -6468.5314   -1619.9537    20079.509    7.3203577 
    3950    1014.7462   -6581.5401   -6468.3436   -1302.7952     20082.14    7.3724194 
    3960    1026.1445   -6582.5568   -6468.0888   -1254.4516    20083.484    7.4279121 
    3970    1032.7043   -6582.9692   -6467.7695    -1499.713     20083.61    7.4806779 
    3980    1039.9468   -6583.4243   -6467.4166   -2153.0781    20082.247    7.5281509 
    3990    1018.5322   -6580.6521   -6467.0333   -2014.2223    20078.882    7.5700352 
    4000    1001.7934   -6578.3462   -6466.5947    -1158.617    20073.638    7.6034012 
    4010    1020.7082   -6579.9219   -6466.0604   -320.89859    20067.274    7.6249692 
    4020     1037.184   -6581.1455   -6465.4461    23.156913    20060.562    7.6471533 
    4030     1050.106   -6581.9445   -6464.8036   -203.43746    20053.822    7.6842507 
    4040    1053.3079   -6581.6524   -6464.1544   -365.67297     20046.89    7.7321297 
    4050    1059.9768   -6581.7628   -6463.5208   -623.26322    20039.574    7.7776593 
    4060    1071.1912   -6582.4069   -6462.9139   -688.11865    20031.658    7.8114617 
    4070    1083.1169   -6583.1737   -6462.3504   -505.41293    20023.087    7.8344796 
    4080    1098.3978   -6584.4003   -6461.8724   -197.45097    20014.015    7.8529612 
    4090    1059.7994   -6579.6941   -6461.4719    899.44334    20004.827    7.8777079 
    4100    1061.5596   -6579.5612   -6461.1426    1257.9211    19996.406    7.9111401 
    4110    1065.9629   -6579.7309   -6460.8212    1207.6559     19989.15    7.9524598 
    4120    1069.0735   -6579.7974   -6460.5406    1241.2013    19983.039    7.9987412 
    4130    1055.3021   -6578.0043   -6460.2838    1300.7318      19978.1    8.0451597 
    4140    1055.7567   -6577.8085   -6460.0372    1096.5875    19974.384    8.0838219 
    4150    1090.5656   -6581.4595   -6459.8053    52.929167    19971.621    8.1164468 
    4160    1120.2965   -6584.6391   -6459.6683   -1211.5417    19968.873    8.1543639 
    4170    1112.2542   -6583.7636     -6459.69   -1260.4459    19965.077    8.2035322 
    4180    1081.2448   -6580.4748   -6459.8604   -553.70693    19960.121    8.2584612 
    4190    1039.3899   -6576.0332   -6460.0877    99.292763    19954.622    8.3133827 
    4200    1038.3866   -6576.1442   -6460.3107    135.05634    19949.146    8.3753388 
    4210    1059.6096   -6578.7205   -6460.5195   -522.59412     19943.72    8.4502909 
    4220    1066.3405   -6579.7066   -6460.7547   -618.45678    19937.822    8.5319778 
    4230    1047.3358   -6577.8419     -6461.01    264.96886    19931.392    8.6100729 
    4240    1053.0367   -6578.7465   -6461.2787    688.80113     19925.14    8.6749382 
    4250    1032.2141   -6576.6836   -6461.5386    969.88484      19919.5    8.7285675 
    4260    1047.1049   -6578.5882   -6461.7821    1156.1094    19914.738    8.7752299 
    4270    1068.1958   -6581.1787   -6462.0198    1548.0977    19911.067    8.8186496 
    4280    1055.8989    -6580.076   -6462.2888     2381.837    19908.896    8.8664045 
    4290    1047.9265   -6579.4756   -6462.5778    2748.0223    19908.952    8.9228774 
    4300    1041.7033   -6579.0799   -6462.8763    2482.4513    19911.567    8.9891461 
    4310    1032.0188   -6578.2795   -6463.1563    2304.8642    19916.574    9.0640217 
    4320    1047.6867   -6580.2833   -6463.4123    1882.9432    19923.772     9.140652 
    4330    1029.0768   -6578.4326   -6463.6375    1869.2908    19932.843    9.2197771 
    4340    1007.7567   -6576.2379   -6463.8211     2090.535    19943.775    9.3028811 
    4350    1018.1171   -6577.5094   -6463.9369    1809.6725    19956.725    9.3843311 
    4360    1010.5544    -6576.698   -6463.9691    1952.8535    19971.537    9.4652407 
    4370    1010.1345   -6576.6104   -6463.9283    1485.0031    19988.266     9.550041 
    4380    1048.1786   -6580.7249    -6463.799   -234.23452    20006.414    9.6349531 
    4390    1064.8889   -6582.4229    -6463.633     -961.871    20024.543    9.7220315 
    4400    1055.2779   -6581.2064   -6463.4885   -772.48684    20041.943    9.8090648 
    4410    1046.4156   -6580.0952    -6463.366   -561.15616    20058.704     9.888746 
    4420    1044.0767   -6579.7034   -6463.2351    -697.0088    20074.991    9.9575612 
    4430    1046.3558   -6579.8147   -6463.0921   -998.81275    20090.681    10.014141 
    4440     1046.164   -6579.6401   -6462.9389   -1133.2833    20105.498     10.06164 
    4450    1044.4202   -6579.2769   -6462.7703   -1615.3623    20119.257    10.104012 
    4460    1056.3534   -6580.4238    -6462.586   -2164.1046    20131.509    10.143721 
    4470    1064.9982   -6581.2063   -6462.4042   -2167.5929    20141.765    10.186021 
    4480    1051.3689   -6579.5296   -6462.2478   -1695.8438    20149.996    10.235582 
    4490    1039.0852   -6578.0008   -6462.0892   -861.62103    20156.649    10.290332 
    4500    1079.1432   -6582.3014   -6461.9214   -753.84078    20162.405    10.343194 
    4510    1084.9463   -6582.8087   -6461.7813   -696.15651    20167.448     10.40114 
    4520     1036.842   -6577.3546   -6461.6933    -130.8098    20171.888    10.467193 
    4530    1020.6111   -6575.4462   -6461.5955    96.078983     20176.18    10.534517 
    4540    1002.4438   -6573.2427   -6461.4186    368.17475    20180.591    10.599652 
    4550    985.25642   -6571.0608    -6461.154    802.67311    20185.397    10.663179 
    4560    997.41338   -6572.0228   -6460.7599    193.85862    20190.902    10.725444 
    4570    1018.5093   -6573.8335   -6460.2172   -856.62652     20196.58    10.788837 
    4580    1049.7487   -6576.6843   -6459.5833    -1671.697    20201.463    10.858883 
    4590    1060.6881   -6577.2487   -6458.9274   -2336.1418     20204.73    10.933775 
    4600    1044.7719    -6574.839   -6458.2931   -2534.5309    20205.783    11.010389 
    4610    1059.1323   -6575.8257   -6457.6779   -2522.5984    20204.381    11.083887 
    4620    1056.7196   -6574.9532   -6457.0745   -1722.2851     20200.59    11.154973 
    4630    1072.0155   -6576.0926   -6456.5077    -1226.658    20195.068    11.228499 
    4640    1082.4328   -6576.7314   -6455.9844   -558.92331     20188.35     11.30748 
    4650    1074.3152   -6575.3772   -6455.5357    871.65254    20181.149     11.38425 
    4660    1079.1101   -6575.5339   -6455.1576    1520.6276    20174.694    11.450688 
    4670    1076.8628   -6574.9687    -6454.843    1645.5498    20169.682    11.505043 
    4680    1076.2554   -6574.6534   -6454.5955     1036.625    20166.193    11.548706 
    4690     1089.506    -6575.952    -6454.416    217.35951    20163.691    11.587799 
    4700    1085.7239   -6575.4344   -6454.3203   -120.10698    20161.448    11.629616 
    4710    1070.9341    -6573.767   -6454.3027   -208.91498    20159.112    11.673636 
    4720    1074.2509   -6574.1721   -6454.3378   -396.46129    20156.547    11.718021 
    4730     1085.089   -6575.4681   -6454.4247   -421.05687    20153.606    11.764478 
    4740    1112.4346    -6578.712   -6454.6182   -797.58696    20150.202    11.807365 
    4750    1097.7592   -6577.4195   -6454.9628   -493.36342    20146.081    11.844397 
    4760    1037.9695   -6571.1929   -6455.4059    607.88174    20141.532      11.8776 
    4770    1030.1978   -6570.7669   -6455.8467    1046.5602    20137.495    11.905786 
    4780    1061.7112   -6574.7289   -6456.2934    1268.4147    20134.455    11.930282 
    4790    1040.6311   -6572.8597   -6456.7757    2051.5245     20132.68    11.954927 
    4800    1027.9095   -6571.9292   -6457.2643    2429.1844    20132.842    11.981713 
    4810    1037.6185   -6573.4994   -6457.7515    2385.1041    20135.327    12.013927 
    4820    1024.8635   -6572.5495   -6458.2244    2279.5033     20140.15    12.049478 
    4830    1022.8244   -6572.7688   -6458.6712    1981.5547     20147.21     12.07748 
    4840    1034.8957   -6574.5304   -6459.0862    1883.5195    20156.287    12.095348 
    4850    1056.8176   -6577.4065    -6459.517     1595.324    20167.267    12.110973 
    4860    1047.5415   -6576.8214   -6459.9665    1126.9614    20179.883    12.125932 
    4870    1071.2927   -6579.9604   -6460.4561     407.0951    20193.662    12.139465 
    4880    1069.8605   -6580.3693   -6461.0248    -35.50292    20207.975    12.158244 
    4890    1047.2492   -6578.4993   -6461.6771   -571.39007     20222.35    12.187819 
    4900    1030.0908   -6577.2606   -6462.3525   -1247.2836    20236.254     12.22526 
    4910    1020.6313   -6576.8783   -6463.0254   -1539.2253    20249.056    12.268796 
    4920    1008.7902   -6576.1915   -6463.6594   -1474.8431    20260.463    12.315307 
    4930    1021.4789   -6578.2071   -6464.2596   -1623.3317    20270.457     12.35599 
    4940    999.81605   -6576.3371   -6464.8061   -1450.8411    20278.929    12.392016 
    4950    970.55788   -6573.5078   -6465.2406   -1032.6587    20286.043    12.422751 
    4960     959.2985   -6572.5363   -6465.5251   -848.65528    20292.162     12.45151 
    4970    973.21724   -6574.2035   -6465.6397   -943.10602    20297.467    12.488162 
    4980    996.35812   -6576.7538   -6465.6086    -1171.499     20301.85    12.527314 
    4990    996.02738   -6576.5523   -6465.4439   -963.67137    20305.152    12.552468 
    5000    1019.3103   -6578.8595   -6465.1539   -1024.1592    20307.476    12.557008 
Loop time of 1979.07 on 16 procs for 3000 steps with 864 atoms

Performance: 0.131 ns/day, 183.247 hours/ns, 1.516 timesteps/s
97.1% CPU use with 16 MPI tasks x 1 OpenMP threads

MPI task timing breakdown:
Section |  min time  |  avg time  |  max time  |%varavg| %total
---------------------------------------------------------------
Pair    | 1371.6     | 1698.1     | 1964.3     | 392.3 | 85.80
Bond    | 0.00022388 | 0.00061807 | 0.001066   |   0.0 |  0.00
Neigh   | 0.035993   | 0.04374    | 0.055878   |   2.7 |  0.00
Comm    | 14.046     | 205.07     | 472.38     |1006.9 | 10.36
Output  | 0.19021    | 0.19335    | 0.23854    |   2.7 |  0.01
Modify  | 0.51121    | 75.637     | 134.8      | 676.3 |  3.82
Other   |            | 0.01238    |            |       |  0.00

Nlocal:        54.0000 ave          70 max          44 min
Histogram: 1 4 1 2 2 5 0 0 0 1
Nghost:        494.250 ave         554 max         433 min
Histogram: 2 0 0 4 1 5 0 2 0 2
Neighs:         0.00000 ave           0 max           0 min
Histogram: 16 0 0 0 0 0 0 0 0 0
FullNghs:      2289.38 ave        3517 max        1602 min
Histogram: 1 3 4 2 3 1 0 1 0 1

Total # of neighbors = 36630
Ave neighs/atom = 42.395833
Ave special neighs/atom = 0.0000000
Neighbor list builds = 300
Dangerous builds = 300
unfix   2

fix     3 all npt temp 1050.0 1050.0 $(100.0*dt) aniso 1.01325 1.01325 $(1000.0*dt)
fix     3 all npt temp 1050.0 1050.0 0.10000000000000000555 aniso 1.01325 1.01325 $(1000.0*dt)
fix     3 all npt temp 1050.0 1050.0 0.10000000000000000555 aniso 1.01325 1.01325 1
run     20000
Per MPI rank memory allocation (min/avg/max) = 8.901 | 8.910 | 8.917 Mbytes
Step Temp PotEng TotEng Press Volume c_msd[4] 
    5000    1019.3103   -6578.8595   -6465.1539   -1024.1592    20307.476    12.557008 
    5010    1018.0789   -6578.6842    -6465.116   -990.95091    20306.991    12.554848 
    5020    1023.9542   -6579.2436   -6465.0199   -1362.1185    20305.482    12.552937 
    5030    1024.9893   -6579.2008   -6464.8617   -1733.7761    20302.634    12.554154 
    5040    1036.7401   -6580.3022   -6464.6523   -2041.6542    20298.087    12.556866 
    5050    1020.0244   -6578.1846   -6464.3993   -1603.2831    20291.593    12.566954 
    5060    997.86761    -6575.381   -6464.0674    -627.4226    20283.577    12.582982 
    5070    1025.1943     -6577.98    -6463.618   -382.98723    20274.859    12.597399 
    5080    1035.1957   -6578.5352   -6463.0576   -75.637027    20265.765    12.614465 
    5090     1061.392   -6580.8385   -6462.4386     34.32709    20256.572    12.643514 
    5100    1074.0376   -6581.5948   -6461.7843   -416.40822     20247.35    12.686422 
    5110    1076.5582   -6581.2538   -6461.1621   -581.30176    20237.725     12.73498 
    5120    1046.9891   -6577.3612    -6460.568   -64.782163    20227.589    12.780092 
    5130    1046.2253   -6576.6856   -6459.9776   -652.71336    20217.271    12.810604 
    5140    1040.8462   -6575.4635   -6459.3555   -1406.1237    20206.277    12.825444 
    5150    1040.8785   -6574.8124   -6458.7009   -1441.1377    20193.961    12.835623 
    5160    1075.7613    -6578.026   -6458.0232   -1364.5126    20180.221     12.86034 
    5170    1063.0525   -6575.9365   -6457.3513   -337.80352    20165.216    12.904302 
    5180    1063.6687    -6575.375   -6456.7212    437.87396    20149.823    12.947903 
    5190     1063.824   -6574.7856   -6456.1144    1080.1636    20134.828    12.978925 
    5200    1060.4933   -6573.8496     -6455.55    1484.1203     20120.83    13.004914 
    5210    1077.6844   -6575.2511   -6455.0338    1215.6852     20108.18    13.035257 
    5220    1088.4094   -6576.0089   -6454.5952    851.67271    20096.684    13.073139 
    5230    1083.6681   -6575.1388    -6454.254    693.80123    20086.009    13.117266 
    5240    1084.9904   -6575.0394    -6454.007    887.47913    20076.003    13.163224 
    5250     1072.938   -6573.5341   -6453.8463    1353.9479    20066.846    13.207821 
    5260    1064.3899   -6572.4806   -6453.7463      1268.38    20058.899    13.248942 
    5270     1066.655   -6572.6764   -6453.6894    1184.9616     20052.15     13.28478 
    5280    1065.3104   -6572.5058   -6453.6689     1585.809    20046.563    13.322259 
    5290    1078.9146   -6574.0399   -6453.6853    1706.6094    20042.438    13.367195 
    5300    1088.4617   -6575.1938   -6453.7743    1732.4445     20039.92    13.422626 
    5310    1064.9036   -6572.7172   -6453.9256    2031.1041    20039.099    13.491937 
    5320     1058.259   -6572.1589   -6454.1085    1926.8189    20040.195    13.566907 
    5330    1055.4421    -6572.036   -6454.2998    1403.9115     20043.12    13.642942 
    5340    1040.9675   -6570.5963   -6454.4748     1120.127    20047.453    13.716031 
    5350    1050.3312   -6571.7839   -6454.6179    990.38212    20052.928    13.774945 
    5360    1065.9064   -6573.6575    -6454.754    913.05574      20059.4    13.815234 
    5370    1057.1115   -6572.8084    -6454.886    1236.3108    20066.853    13.851525 
    5380    1067.3863   -6574.0914   -6455.0229    1024.5667    20075.515    13.899438 
    5390    1050.0788   -6572.2907   -6455.1528    1113.7853    20085.286    13.956729 
    5400    1042.4974   -6571.5521   -6455.2599     1083.079    20096.226    14.007446 
    5410    1057.9401   -6573.3479   -6455.3331    620.31419    20108.282     14.04052 
    5420    1060.5203   -6573.6986    -6455.396    341.22292    20121.075    14.055805 
    5430    1059.5363   -6573.6573   -6455.4644   -49.490833    20134.322     14.05947 
    5440    1061.0852   -6573.9011   -6455.5354   -588.84961    20147.639    14.057208 
    5450      1068.68     -6574.84   -6455.6271   -1057.3249    20160.517     14.04939 
    5460    1040.4632   -6571.7872    -6455.722   -971.03564    20172.545    14.042317 
    5470    1045.0729   -6572.3787   -6455.7993   -1319.7709    20183.693    14.037981 
    5480    1085.7231   -6576.9909   -6455.8768   -1744.6118    20193.665    14.047561 
    5490    1078.8488   -6576.3606   -6456.0134   -1219.4478    20202.126    14.084152 
    5500    1067.0294    -6575.248   -6456.2193   -637.13442    20209.479    14.137683 
    5510    1051.4098   -6573.7397   -6456.4533   -372.28078    20216.263    14.194515 
    5520    1037.4225   -6572.4047   -6456.6787   -699.01423    20222.702    14.251872 
    5530    1055.8591   -6574.6592   -6456.8765   -1935.4327    20228.428    14.306997 
    5540    1077.9846   -6577.3461   -6457.0953    -2551.741    20232.374    14.347874 
    5550    1080.6149   -6577.9168   -6457.3726   -2346.2394    20233.924    14.374693 
    5560    1066.4492   -6576.6874   -6457.7234   -1654.0702    20233.209    14.393932 
    5570    1016.1418   -6571.4348   -6458.0827   -182.47171    20230.946    14.418357 
    5580    998.48951   -6569.7664   -6458.3834    984.87752    20228.461    14.456564 
    5590    991.45741   -6569.1823   -6458.5838    1893.3009     20226.91    14.501537 
    5600    984.59708   -6568.4972   -6458.6639    2062.1024    20227.153    14.542504 
    5610    1000.0785   -6570.1766   -6458.6163    989.06724    20229.311       14.572 
    5620     1022.463   -6572.5161   -6458.4588   -196.45042    20232.474    14.589234 
    5630    1030.2047   -6573.1416   -6458.2207   -1203.9753    20235.512    14.604231 
    5640    1051.9938   -6575.2881   -6457.9366   -1759.0644    20237.441    14.630072 
    5650    1060.2829   -6575.9087   -6457.6325   -1603.2265    20237.725    14.674461 
    5660    1061.3892   -6575.7281   -6457.3285   -1156.3862     20236.46    14.727453 
    5670    1067.7215   -6576.1368   -6457.0309   -861.20236    20234.016    14.773082 
    5680    1059.4563   -6574.9212   -6456.7373   -503.82843    20230.703    14.804644 
    5690    1063.0583    -6575.036   -6456.4502    -54.63676    20226.855    14.827576 
    5700    1056.1974   -6573.9788   -6456.1584    595.83973    20222.948    14.857307 
    5710    1051.2282   -6573.1272   -6455.8611    630.72437    20219.532     14.90478 
    5720      1041.29    -6571.672   -6455.5145    655.21899    20216.705    14.964067 
    5730    1076.5454   -6575.2178   -6455.1276    456.40657    20214.478    15.017567 
    5740    1086.9931   -6575.9998   -6454.7441    68.534244    20212.674    15.060598 
    5750    1043.0219   -6570.7418   -6454.3911   -193.83054    20210.957    15.099316 
    5760    1046.0225   -6570.7032   -6454.0178    -775.7486    20209.021    15.137363 
    5770    1057.7711   -6571.5729    -6453.577   -738.89556    20206.369    15.174968 
    5780    1040.5863   -6569.1726   -6453.0936    125.79506     20203.04     15.20981 
    5790    1025.0663   -6566.8991   -6452.5514    915.69985    20199.802    15.241773 
    5800    1047.2292   -6568.7351   -6451.9151    878.00949    20197.357    15.274783 
    5810    1049.6503   -6568.2694   -6451.1793    782.11744    20195.763    15.313665 
    5820    1060.0156   -6568.6339   -6450.3875     749.3534    20194.927    15.361048 
    5830    1063.0369   -6568.1328   -6449.5494    834.06859    20194.833    15.414352 
    5840    1070.4861   -6568.1211   -6448.7067    966.68119    20195.567    15.472603 
    5850    1070.3773   -6567.2808   -6447.8786    935.58051    20197.272    15.535134 
    5860    1093.7161    -6569.117   -6447.1113    436.13904    20199.863    15.588496 
    5870    1074.9963   -6566.3441   -6446.4266    801.24131    20203.004    15.634731 
    5880    1072.8099   -6565.5131   -6445.8395    852.66608    20206.926    15.684626 
    5890    1068.8317    -6564.553   -6445.3232    764.52766    20211.729    15.739582 
    5900    1044.0611   -6561.3272   -6444.8606    699.21963     20217.37     15.80112 
    5910    1060.2677   -6562.7052   -6444.4307   -79.617701    20223.688    15.861187 
    5920    1059.2254   -6562.1726   -6444.0145   -237.75068    20230.075    15.902892 
    5930     1083.451   -6564.5088   -6443.6482   -222.71634    20236.311     15.91442 
    5940    1098.5862   -6565.9065   -6443.3575    80.938458    20242.448    15.901911 
    5950    1105.1996   -6566.4724   -6443.1857    252.96661    20248.744    15.891489 
    5960    1124.4622   -6568.5918   -6443.1563    130.68335    20255.346    15.903882 
    5970    1104.8388   -6566.5283   -6443.2819     282.1028    20262.191    15.945047 
    5980     1102.009   -6566.4737   -6443.5429    110.46309    20269.393    16.009913 
    5990      1099.97   -6566.6256   -6443.9223    47.906291    20276.824    16.090741 
    6000    1074.6118   -6564.2741   -6444.3995    681.64514    20284.487    16.181257 
    6010    1078.1755   -6565.2057   -6444.9336    952.82234    20292.915    16.260486 
    6020    1099.7124   -6568.2188   -6445.5443     950.3107    20302.379    16.318775 
    6030    1087.3253   -6567.5314   -6446.2387    1505.9428    20312.994    16.365712 
    6040    1091.3813   -6568.7362    -6446.991    1519.1296    20325.222    16.412232 
    6050    1116.5346   -6572.3788   -6447.8276    1222.3639    20339.131    16.470928 
    6060    1096.7173   -6571.0487   -6448.7082    1471.5712    20354.554    16.552391 
    6070    1117.4706   -6574.2722   -6449.6167    1112.5952     20371.62    16.654763 
    6080    1090.2699    -6572.096   -6450.4747    1080.4839    20390.128    16.771173 
    6090    1065.4689   -6570.0735   -6451.2188     563.8048    20409.965    16.884995 
    6100       1048.6   -6568.7652   -6451.7923   -369.92665    20430.652    16.976984 
    6110    1056.3299    -6570.052   -6452.2168   -1208.7435    20451.301    17.037402 
    6120    1052.7468    -6569.971   -6452.5355    -1535.811    20471.103    17.074477 
    6130    1046.1372   -6569.4752    -6452.777   -2028.7122    20489.637    17.106109 
    6140    1065.2754   -6571.8016   -6452.9685   -2748.3393    20506.354    17.153697 
    6150    1079.5556   -6573.5808   -6453.1548   -3329.7204    20520.536    17.228487 
    6160    1066.1464   -6572.3074   -6453.3772   -3445.0062    20531.588    17.330109 
    6170    1013.4337   -6566.6339   -6453.5838   -2987.9308    20539.361    17.445378 
    6180     1011.065    -6566.519   -6453.7332    -3199.518    20544.119    17.548248 
    6190    1028.2685   -6568.5176   -6453.8127   -3467.9372    20545.672    17.614543 
    6200    1007.0152   -6566.1684   -6453.8343    -3169.237    20543.784    17.642249 
    6210     1009.932    -6566.465   -6453.8056   -2667.6959    20538.686    17.647285 
    6220     1011.938   -6566.5701   -6453.6869   -1957.9417    20530.848    17.652956 
    6230    1013.6259   -6566.5331   -6453.4616   -1455.0441    20520.921    17.679227 
    6240    1041.1399   -6569.2984   -6453.1577   -1878.6201    20509.332    17.732054 
    6250    1031.5841   -6567.8887   -6452.8139   -2153.7245    20495.782    17.805485 
    6260    1007.0492     -6564.77   -6452.4322   -2110.5441    20479.978    17.890919 
    6270    1012.0161   -6564.8544   -6451.9625   -1887.0628    20461.967    17.975637 
    6280     1050.164   -6568.5584    -6451.411    -1654.796    20441.939    18.047314 
    6290    1039.0965   -6566.7281   -6450.8154   -258.89962    20420.253    18.110494 
    6300    1032.7056   -6565.3887   -6450.1888    684.30876    20398.172    18.168988 
    6310     1075.765   -6569.5441   -6449.5409    195.86923    20376.564     18.22794 
    6320    1078.8093   -6569.2773   -6448.9345    447.82328    20355.177    18.293703 
    6330    1054.6923   -6566.0529   -6448.4004    1423.3387     20334.28    18.356788 
    6340    1062.7139   -6566.4314   -6447.8841    1386.6569    20314.684    18.415054 
    6350    1079.5285   -6567.8059   -6447.3829    1649.2134    20296.505    18.474601 
    6360    1056.3693   -6564.7699   -6446.9303    2917.5727    20280.075    18.536838 
    6370    1063.3614   -6565.1525    -6446.533     3431.608    20266.465    18.600762 
    6380    1052.1916   -6563.5393   -6446.1658    3765.1956    20256.263    18.671118 
    6390    1062.5804    -6564.386   -6445.8536    3805.2316    20249.759    18.749911 
    6400    1087.5838   -6566.9233   -6445.6017    3744.5358    20246.983    18.838388 
    6410    1087.5089   -6566.7466   -6445.4334    3840.8706    20247.898    18.929406 
    6420    1075.3415   -6565.2863   -6445.3304    3256.8183    20252.519    19.014348 
    6430    1073.6192   -6565.0368   -6445.2729    2346.5107    20260.286    19.094457 
    6440    1062.9081   -6563.8176   -6445.2486    1815.6813    20270.365     19.17033 
    6450    1064.0724   -6563.9638   -6445.2649    1575.9523    20282.235    19.249533 
    6460    1089.2094    -6566.839   -6445.3361    1071.5963    20295.558    19.336576 
    6470    1094.9981   -6567.6467   -6445.4981    765.81419    20309.893    19.432175 
    6480    1081.6759   -6566.4323   -6445.7697    12.088946    20324.839    19.539877 
    6490    1045.6885   -6562.7579   -6446.1097   -669.66256    20339.705    19.644364 
    6500    1056.8163   -6564.3751   -6446.4856   -1424.0955    20353.794    19.725621 
    6510    1072.9479    -6566.597   -6446.9081   -1723.0651    20366.415     19.78811 
    6520    1057.1319   -6565.3658   -6447.4412    -1414.119    20377.276    19.847025 
    6530    1027.0798   -6562.6429   -6448.0706   -1099.5704    20386.646    19.907288 
    6540    997.68852   -6560.0031   -6448.7094   -1339.2306     20394.81    19.972411 
    6550    1027.5043   -6563.9608   -6449.3412   -2259.8101    20401.513    20.040365 
    6560    1033.8942    -6565.308   -6449.9756   -2762.7951    20405.963    20.093967 
    6570    1013.1923   -6563.6522   -6450.6291   -2468.7951    20407.686    20.119947 
    6580    991.01237   -6561.7903   -6451.2413   -1826.2988    20406.994    20.124746 
    6590    998.12525   -6563.1459   -6451.8036   -1510.1957    20404.454    20.126021 
    6600    983.90484   -6562.0254   -6452.2693   -751.31108    20400.512    20.146193 
    6610    1021.3047   -6566.5956   -6452.6675    -942.4464    20395.784     20.19658 
    6620    1012.7276   -6565.9728   -6453.0015    -889.1642    20390.222    20.277001 
    6630    998.15038   -6564.6312    -6453.286   -761.71668     20383.85    20.380233 
    6640    1003.7122   -6565.4621   -6453.4965   -544.70162    20376.837    20.487492 
    6650     1023.546   -6567.8262   -6453.6482   -134.97049    20369.397    20.576022 
    6660    1057.4021   -6571.7217   -6453.7669    23.267996    20361.905    20.627928 
    6670    1083.5887   -6574.8027   -6453.9268   -21.577929    20354.541    20.648131 
    6680    1081.6491   -6574.8666    -6454.207   -21.467082    20347.245    20.660117 
    6690    1058.8448   -6572.7214   -6454.6057    122.56353    20340.045    20.677792 
    6700     1043.922   -6571.5555   -6455.1044    87.610243    20333.061    20.703225 
    6710    1030.4265   -6570.6138   -6455.6681   -345.33542    20326.213    20.733989 
    6720    1008.7779   -6568.7905   -6456.2598   -373.17974    20319.163    20.767695 
    6730    998.90454   -6568.2548   -6456.8255    -44.45137    20311.878    20.799714 
    6740    1022.1695   -6571.3881   -6457.3636    14.584315    20304.619    20.819507 
    6750    1028.5566   -6572.6351   -6457.8981   -236.69532    20297.457    20.819973 
    6760    1019.4175   -6572.1517   -6458.4341   -833.76302    20290.131    20.813382 
    6770    1023.4628   -6573.1309   -6458.9621   -1312.6575    20282.099    20.809031 
    6780    1026.2307   -6573.9585   -6459.4809   -1375.6842    20272.924    20.807829 
    6790    1020.7244   -6573.8386   -6459.9752   -931.27504     20262.57     20.80817 
    6800    1016.7543   -6573.8429   -6460.4225   -177.90269    20251.492    20.805601 
    6810    1046.7902   -6577.6093   -6460.8383    254.88105    20240.362    20.802718 
    6820    1063.9033   -6579.9509   -6461.2709    677.28358    20229.634    20.803194 
    6830    1033.1956   -6576.9911   -6461.7366    1320.6562    20219.736    20.804501 
    6840    994.33438   -6573.0914   -6462.1719    1767.8769    20211.238    20.808236 
    6850    963.88032   -6570.0234   -6462.5011    1866.6282    20204.532    20.821284 
    6860    949.91943   -6568.6309    -6462.666    1762.0369    20199.704     20.84217 
    6870    961.56871   -6569.9041   -6462.6396     1841.659    20196.677    20.864896 
    6880    991.68012   -6573.0558   -6462.4323    1877.7121    20195.464     20.88896 
    6890    1018.2166   -6575.6539   -6462.0703    1654.4716    20196.068     20.91375 
    6900    1035.1903   -6577.0745   -6461.5974    1558.2374    20198.298    20.933303 
    6910    1040.5892   -6577.1264   -6461.0471    1354.9547    20202.004    20.949402 
    6920       1027.1   -6574.9993   -6460.4248    1485.5623    20207.042    20.970861 
    6930    1037.4054   -6575.4513   -6459.7271    1078.6129    20213.419    21.006524 
    6940    1034.9929   -6574.3949   -6458.9399    433.75182    20220.751    21.054905 
    6950    1017.8151   -6571.6393   -6458.1005    717.73239    20228.525    21.111537 
    6960    1024.9743   -6571.5423   -6457.2049    1031.5221     20236.92    21.170504 
    6970    1027.8017   -6570.9169    -6456.264    846.82554    20246.204    21.222833 
    6980    1050.8417   -6572.5512   -6455.3282   -37.643343    20256.143    21.270937 
    6990    1053.9941   -6572.0295   -6454.4549   -191.99954    20266.021    21.323154 
    7000    1052.6663   -6571.1205    -6453.694   -296.36687    20275.618     21.39112 
    7010    1069.9399   -6572.3941   -6453.0407   -732.25455    20284.799    21.471835 
    7020    1075.1482   -6572.4561   -6452.5217   -893.74823    20293.189    21.549778 
    7030    1063.7251    -6570.793   -6452.1329    -768.9995     20300.66    21.613893 
    7040    1063.3118    -6570.457    -6451.843   -1034.6603    20307.272     21.66263 
    7050    1062.0574    -6570.092   -6451.6179   -1331.4522    20312.807    21.709734 
    7060    1071.7748   -6571.0145   -6451.4564   -1835.7892    20316.946    21.763154 
    7070    1062.1883   -6569.8432   -6451.3545   -1526.1906    20319.318    21.818308 
    7080    1056.7846   -6569.1789   -6451.2929   -737.87432    20320.227    21.873329 
    7090    1071.0983   -6570.7491   -6451.2665    -685.5893     20320.34    21.927101 
    7100    1051.4285    -6568.556   -6451.2676   -368.52595    20319.822    21.981065 
    7110    1056.9246   -6569.1929   -6451.2914   -236.99666     20318.93    22.028644 
    7120    1068.1105    -6570.474   -6451.3247   -475.26129    20317.794    22.063015 
    7130    1078.6477   -6571.7293   -6451.4046   -1098.2856    20316.148    22.094545 
    7140     1061.098    -6569.889    -6451.522    -1029.082    20313.529    22.129879 
    7150    1064.3863   -6570.4172   -6451.6833   -794.40135    20309.929    22.164785 
    7160    1054.7515   -6569.5131    -6451.854   -97.286568    20305.632    22.181219 
    7170      1066.39   -6571.0067   -6452.0493    667.21214    20301.278    22.158835 
    7180    1067.0504   -6571.3058   -6452.2747    1552.4636    20297.638    22.107112 
    7190    1095.1345     -6574.72   -6452.5561    1739.3725    20295.512    22.053854 
    7200    1114.8578   -6577.3225   -6452.9584    1203.7727    20295.045     22.02859 
    7210    1083.0438   -6574.3192    -6453.504    1080.4603    20295.803    22.036387 
    7220    1056.1607   -6571.9413   -6454.1249    819.51458    20297.602    22.060264 
    7230    1044.9317   -6571.3187    -6454.755    336.98706    20300.184    22.089125 
    7240    1045.4912   -6572.0062   -6455.3801    405.50122    20303.148    22.124405 
    7250    1034.0652   -6571.3267   -6455.9751    541.36336    20306.507    22.159939 
    7260    1035.4453   -6572.0431   -6456.5376    422.52885    20310.362    22.187024 
    7270    1027.1856   -6571.6296   -6457.0455    524.92167    20314.632    22.202136 
    7280    1013.6775   -6570.5581   -6457.4808    467.42015     20319.37    22.216924 
    7290    1012.4669    -6570.771   -6457.8288    70.608534    20324.519    22.244846 
    7300      1019.74   -6571.8475    -6458.094   -765.65603    20329.663    22.277809 
    7310    1007.8751   -6570.7069   -6458.2769   -1191.1766    20334.056    22.306974 
    7320    1012.0291   -6571.2708   -6458.3775   -799.73892    20337.313    22.331896 
    7330    1045.6444   -6575.0504   -6458.4072   -92.859323    20339.785    22.357997 
    7340    1071.6203   -6577.9687   -6458.4278    121.67886    20342.093    22.395564 
    7350    1061.7882   -6576.9249   -6458.4808    56.758596    20344.495    22.433314 
    7360    1040.1364   -6574.5945   -6458.5657    55.379529    20346.957    22.456747 
    7370    1018.1529   -6572.2107   -6458.6342    42.145704    20349.454    22.469823 
    7380    1006.1151   -6570.8669   -6458.6333   -166.56709    20351.958    22.476815 
    7390    992.79569    -6569.269   -6458.5212   -279.19713    20354.295    22.477563 
    7400    1016.1802   -6571.6367   -6458.2803   -612.84975    20356.327    22.469107 
    7410    1062.9875   -6576.4945   -6457.9166   -1014.6434     20357.74    22.456996 
    7420    1078.2385   -6577.7671    -6457.488   -842.70187    20358.209    22.454422 
    7430    1055.7801   -6574.7943   -6457.0204   -890.02212    20357.813    22.461913 
    7440    1048.5389   -6573.4368   -6456.4707   -1288.6973    20356.498    22.470726 
    7450    1033.1229   -6571.0038   -6455.7574   -1385.9504    20353.962    22.476299 
    7460    1015.3984   -6568.0911   -6454.8218   -1414.9713    20350.077    22.472443 
    7470    1027.1185   -6568.1804   -6453.6037   -1352.3083    20344.817    22.460335 
    7480     1041.369   -6568.3036   -6452.1373   -1080.2045     20338.26    22.454696 
    7490    1052.7242   -6568.0126   -6450.5797   -777.03347    20330.669    22.470134 
    7500    1075.0286   -6569.0346   -6449.1135   -449.23782    20322.367    22.499328 
    7510    1088.1546   -6569.2645   -6447.8793    -164.3084    20313.676    22.523315 
    7520    1094.9124   -6569.0671   -6446.9279   -279.75245    20304.832    22.539963 
    7530    1072.3496   -6565.8681   -6446.2459    358.11621    20295.846    22.554761 
    7540     1060.565   -6564.0387   -6445.7311    947.26857    20287.257    22.568558 
    7550     1079.548    -6565.769   -6445.3438    680.64741     20279.57    22.581745 
    7560    1040.5122   -6561.1066   -6445.0359    1114.2128    20272.682    22.596664 
    7570    1036.9499   -6560.4348   -6444.7615    1137.3722    20266.886    22.619823 
    7580    1073.1987   -6564.2032   -6444.4863    177.01807    20262.146     22.65706 
    7590    1098.9582    -6566.859   -6444.2685   -432.87555     20257.64    22.690761 
    7600    1088.2842   -6565.5612   -6444.1614    -120.7546    20252.825     22.71016 
    7610    1076.9193   -6564.2674   -6444.1355     520.8148    20247.962    22.724672 
    7620    1107.8373   -6567.7755   -6444.1946    741.58532    20243.585    22.750325 
    7630    1100.1908   -6567.1037   -6444.3758    663.08867    20239.929    22.789961 
    7640    1074.7434    -6564.555   -6444.6657    346.64298    20236.927    22.826586 
    7650    1077.4149   -6565.2131   -6445.0259    -20.87336    20234.277    22.843519 
    7660    1072.4431   -6565.0802   -6445.4476   -178.99747    20231.638    22.842397 
    7670    1059.6591   -6564.1251   -6445.9185   -219.89913     20228.85    22.837015 
    7680    1055.1388   -6564.1215   -6446.4191   -72.581314      20225.9    22.841217 
    7690    1062.7966   -6565.4979   -6446.9413     126.3917    20222.897     22.85923 
    7700    1062.7882   -6566.0436    -6447.488    449.06413    20220.069     22.88351 
    7710    1066.8694   -6567.0953   -6448.0844    178.43124    20217.629    22.910791 
    7720    1036.8616   -6564.3423   -6448.6788    225.26186    20215.423    22.946215 
    7730    1052.0992   -6566.6235   -6449.2603    54.222675    20213.425    22.986569 
    7740    1043.9493   -6566.2771   -6449.8229    71.167011    20211.519    23.029926 
    7750    1032.8764   -6565.5756   -6450.3567   -32.114955    20209.686    23.071265 
    7760    1043.8563   -6567.2838   -6450.8401   -238.60418    20207.838    23.101017 
    7770    1069.8202   -6570.6553   -6451.3152   -168.12255    20205.794    23.120899 
    7780     1061.888   -6570.2694   -6451.8142    518.33311    20203.655    23.147799 
    7790    1065.9201   -6571.2346   -6452.3296     720.9337    20201.981    23.194002 
    7800    1078.0605   -6573.1313    -6452.872    846.33086    20201.024     23.25672 
    7810    1066.0694   -6572.3749   -6453.4532    1038.2074    20200.908    23.329852 
    7820    1048.7613   -6571.0371   -6454.0462    783.12437    20201.765    23.400244 
    7830    1015.2816   -6567.8499   -6454.5937    778.64846    20203.414    23.458132 
    7840    1003.1251   -6566.9311    -6455.031    736.08311    20205.813     23.50547 
    7850    1021.7071   -6569.3362   -6455.3632    605.45273    20208.918    23.548661 
    7860    1034.6752   -6571.0275    -6455.608    401.07378    20212.617    23.580885 
    7870    1071.4524    -6575.353   -6455.8308    121.60202    20216.693    23.600555 
    7880    1076.1267   -6576.1203   -6456.0767    649.97458    20220.959    23.625452 
    7890    1055.7885   -6574.1427   -6456.3679    1219.5107    20225.855    23.670397 
    7900    1029.4779   -6571.4991   -6456.6593    1481.1774    20231.916     23.73218 
    7910    1019.9107   -6570.6726   -6456.9001    1524.8601    20239.415    23.799113 
    7920     1019.812   -6570.8369   -6457.0754    1197.6437    20248.368    23.868579 
    7930    1007.5758   -6569.5506    -6457.154    1195.2687    20258.522    23.945385 
    7940    1025.3365   -6571.5323   -6457.1545    978.16553    20269.818    24.017296 
    7950    1044.7347   -6573.6322   -6457.0904    144.31311    20282.018    24.079885 
    7960    1061.2691   -6575.3976   -6457.0115   -970.25315    20294.329    24.161042 
    7970    1039.9307   -6572.9385   -6456.9327   -1292.7615    20305.752    24.276935 
    7980    1036.8092   -6572.5141   -6456.8565   -1028.4195    20315.926     24.41097 
    7990    1030.6833   -6571.7068   -6456.7325   -678.30401      20325.1    24.545746 
    8000    1039.8152   -6572.5638   -6456.5709   -919.30257    20333.534    24.670831 
    8010    1041.7748   -6572.5886   -6456.3771   -895.76756    20341.087    24.783919 
    8020    1024.3602   -6570.4206   -6456.1517   -570.38541    20347.766    24.893721 
    8030    1021.1268   -6569.7681   -6455.8599   -249.90772    20353.886    25.000578 
    8040    1028.6453   -6570.2139    -6455.467   -185.62018    20359.741    25.109011 
    8050    1025.3496    -6569.332   -6454.9527   -382.28635    20365.359    25.221666 
    8060    1026.6848   -6568.8125   -6454.2843   -634.79542    20370.594    25.315382 
    8070    1060.9633   -6571.7686   -6453.4165   -1125.9346    20375.171    25.382998 
    8080    1079.6335    -6572.782   -6452.3472   -1483.9463    20378.626     25.44263 
    8090    1074.3409   -6570.9833    -6451.139   -1119.4024    20380.662    25.516175 
    8100    1058.0855   -6567.8642   -6449.8331   -613.50412    20381.598    25.615719 
    8110     1080.301   -6568.9663   -6448.4571   -940.22629     20381.84    25.733996 
    8120    1096.5781   -6569.4264   -6447.1015   -983.95869    20381.189    25.858688 
    8130    1102.6255   -6568.9281   -6445.9286   -648.74864    20379.581    25.975563 
    8140     1075.188   -6564.9443   -6445.0055   -31.832081    20377.368    26.071361 
    8150    1048.4558   -6561.2538   -6444.2969    110.90752    20375.093    26.152567 
    8160    1045.5961   -6560.3651   -6443.7273    296.51102    20372.941    26.237269 
    8170    1041.0653   -6559.3819   -6443.2495    478.66307    20371.103    26.332081 
    8180    1055.2684   -6560.5609   -6442.8442    279.62363    20369.727    26.434225 
    8190    1069.4524   -6561.8217   -6442.5226    162.44366    20368.643    26.536111 
    8200      1070.98    -6561.759   -6442.2896    76.162641    20367.717    26.634352 
    8210    1083.8036   -6563.0455   -6442.1456    379.61524    20366.916    26.718227 
    8220    1106.8649   -6565.5759   -6442.1035     811.0162    20366.509    26.792821 
    8230    1104.6634   -6565.4122   -6442.1853    1261.4839    20366.905    26.869253 
    8240    1098.5811   -6564.9258   -6442.3774    1615.0453    20368.551    26.947925 
    8250    1085.6266    -6563.762   -6442.6587    1797.6992    20371.771    27.020489 
    8260    1065.5463   -6561.8561   -6442.9928     2233.227    20376.817    27.072853 
    8270    1054.3076   -6560.9473   -6443.3377    2113.3631    20384.063    27.107849 
    8280    1078.2098   -6563.9828   -6443.7068    1560.0773    20393.387    27.141261 
    8290    1081.4722   -6564.7607   -6444.1208     1878.994    20404.389    27.189404 
    8300    1092.7047   -6566.5042   -6444.6113      1886.97    20417.251    27.268448 
    8310    1102.0142   -6568.1308   -6445.1995    1663.2704     20432.02    27.377631 
    8320    1083.6789   -6566.7563   -6445.8703    1707.8282    20448.527    27.494443 
    8330    1072.3411   -6566.2182    -6446.597    1758.9186    20466.794    27.597236 
    8340    1039.2931   -6563.2361   -6447.3014    1730.8369    20486.886    27.693441 
    8350    1050.0981   -6565.0981   -6447.9581    661.21933     20508.68    27.795661 
    8360    1065.0088   -6567.3706   -6448.5673   -747.62452    20531.185    27.909182 
    8370    1047.6414    -6566.014   -6449.1481   -1505.6687    20553.053     28.03319 
    8380    1015.4813   -6562.9342   -6449.6557   -1316.6508    20573.554    28.151972 
    8390    1022.3142   -6564.1023   -6450.0616   -1409.4842    20592.727    28.251127 
    8400    1042.2306   -6566.6521   -6450.3897   -1792.9178    20610.477     28.33474 
    8410    1036.5521   -6566.2968   -6450.6679   -2138.1677    20626.452    28.415842 
    8420    1021.2201   -6564.8089   -6450.8902    -2476.813     20640.29    28.503931 
    8430    1025.9608   -6565.4944    -6451.047   -3116.6809    20651.595    28.594396 
    8440    1014.1597   -6564.2735   -6451.1425   -3287.3189     20659.79    28.678103 
    8450    994.83101   -6562.1321   -6451.1572   -2622.6993    20664.745    28.753724 
    8460    997.15195   -6562.2993   -6451.0655   -1978.0933     20667.02    28.822961 
    8470    1012.0897   -6563.7732    -6450.873   -1402.1227     20667.29    28.880125 
[...]
   22890    983.00934   -6559.8237   -6450.1675    549.83151    20277.036    80.835049 
   22900    1000.6683   -6561.2791   -6449.6531    412.75538    20266.906    80.942518 
   22910    1050.2808   -6566.2639   -6449.1035   -197.93754    20257.329    81.006618 
   22920    1038.0354   -6564.3748   -6448.5804    498.09355    20247.872    80.995793 
   22930    1048.7209   -6565.1004    -6448.114    1239.2921    20239.064    80.937668 
   22940    1068.4306   -6566.8678   -6447.6827    1213.0644    20231.558    80.868514 
   22950    1069.7283   -6566.6633   -6447.3335    1157.0718    20225.375    80.806827 
   22960     1077.617    -6567.281   -6447.0712    1386.8024    20220.452    80.779747 
   22970    1090.8927   -6568.5857    -6446.895    1707.2529    20216.962    80.799016 
   22980    1088.8954   -6568.2955   -6446.8276    2119.6348    20215.194    80.836274 
   22990    1073.9661   -6566.6478   -6446.8452    2759.6573    20215.542    80.858108 
   23000    1087.6624   -6568.2613   -6446.9309    3304.5704    20218.547    80.874473 
   23010    1078.9236   -6567.4579   -6447.1024    3806.7956    20224.706    80.919403 
   23020    1043.6733   -6563.7494   -6447.3261    4308.3107    20234.467    81.017039 
   23030    1037.4749   -6563.2799    -6447.548    4206.3213     20248.21    81.144329 
   23040    1041.2439   -6563.8959   -6447.7436    3552.0627    20265.788    81.267132 
   23050    1030.7702   -6562.8939     -6447.91    2942.2593     20286.59    81.370319 
   23060    1032.7581   -6563.2388   -6448.0331    2249.2757    20309.956    81.455849 
   23070    1053.5719   -6565.6431   -6448.1156    1588.4606    20335.185    81.540555 
   23080    1055.5645   -6565.9372   -6448.1874    959.17601      20361.6    81.638994 
   23090    1037.3995   -6563.9815    -6448.258    509.99825    20388.571    81.770639 
   23100    1020.5894   -6562.1443    -6448.296     -65.7688    20415.616      81.9279 
   23110    1007.0863   -6560.5974   -6448.2554   -739.16226    20442.169    82.071191 
   23120    1016.7344   -6561.5336   -6448.1154     -1362.52    20467.585    82.181244 
   23130    1029.2759   -6562.7105   -6447.8932   -1659.6432    20491.269    82.278176 
   23140    1028.7526   -6562.3666   -6447.6077   -1775.7585    20512.927    82.390355 
   23150    1034.6754   -6562.6705   -6447.2509   -2033.9393    20532.454     82.51549 
   23160    1059.1448   -6564.9656   -6446.8164   -2546.8369    20549.601    82.636908 
   23170    1070.4547   -6565.7494   -6446.3386   -2747.8592    20563.944    82.759215 
   23180    1050.3983   -6563.0093   -6445.8358   -2410.0773     20575.36    82.888103 
   23190    1076.8136   -6565.4177   -6445.2975   -2873.0782    20584.085    83.035826 
   23200    1084.6157   -6565.7145    -6444.724    -3079.941    20589.808    83.210442 
   23210    1076.1134   -6564.1999   -6444.1578   -2614.5971    20592.408    83.372709 
   23220    1087.7928   -6564.9259    -6443.581   -2370.3585    20592.315    83.467757 
   23230    1087.4962   -6564.3063   -6442.9944   -2127.4563    20589.861    83.474775 
   23240    1073.2646   -6562.1302   -6442.4059   -1905.5578    20585.306     83.42263 
   23250    1038.9983   -6557.6825   -6441.7807   -852.13878    20579.003    83.378761 
   23260    1054.8019   -6558.7292   -6441.0645   -446.44905     20571.87    83.384838 
   23270    1088.4281   -6561.6484   -6440.2326   -716.46717    20564.344    83.417075 
   23280    1096.8263   -6561.7323   -6439.3796   -1083.6705    20556.222    83.429649 
   23290    1089.5675   -6560.0979    -6438.555    -1394.668    20547.143     83.41381 
   23300    1098.1041   -6560.2833   -6437.7882   -1348.2513    20536.831    83.390532 
   23310    1091.9109   -6558.8878   -6437.0835   -1011.4966    20525.354    83.382102 
   23320    1071.8572   -6556.0303    -6436.463   -428.42738    20513.047    83.415097 
   23330    1061.5002   -6554.2905   -6435.8786    839.50377    20500.562    83.496924 
   23340    1074.0097   -6555.1146   -6435.3072    1359.0021    20489.033    83.602964 
   23350    1082.7141     -6555.55   -6434.7716    559.39045    20478.905     83.69148 
   23360    1062.4617   -6552.8138   -6434.2946   -324.33895    20469.486    83.716511 
   23370    1073.6774   -6553.6349   -6433.8646   -1374.2442    20459.836     83.68716 
   23380    1105.6951   -6556.8226   -6433.4807   -1521.5418    20449.022    83.664337 
   23390    1130.7149   -6559.3429     -6433.21   -658.66225    20436.914    83.669208 
   23400    1133.8213   -6559.5894   -6433.1099    489.35737    20424.319    83.697177 
   23410    1118.9258   -6558.0144   -6433.1965    951.11253    20412.297    83.735209 
   23420    1101.7706   -6556.3552    -6433.451    930.23694    20401.321    83.760035 
   23430    1094.9173   -6556.0026   -6433.8629    580.38269    20391.361    83.765847 
   23440     1086.426   -6555.6179   -6434.4254    162.83592    20382.086    83.784403 
   23450    1082.4389   -6555.8868   -6435.1391   -40.352762    20373.086    83.838005 
   23460    1060.6895   -6554.3093   -6435.9878    97.233328    20364.165    83.918215 
   23470    1053.2745   -6554.4158   -6436.9214    155.77007     20355.43     84.00404 
   23480    1086.1253   -6559.1049    -6437.946   -583.50902    20346.863    84.084071 
   23490    1081.7403    -6559.754   -6439.0842   -796.36942    20337.873    84.131385 
   23500    1076.7843   -6560.3841   -6440.2672   -854.93283    20328.199    84.131192 
   23510    1095.2005   -6563.6234   -6441.4521   -662.74864     20317.82    84.109971 
   23520     1100.953   -6565.4001   -6442.5872    -395.1775    20306.902    84.118129 
   23530    1107.1036   -6567.1326   -6443.6336   -209.55652    20295.698    84.177892 
   23540    1088.1355   -6565.9349   -6444.5518    321.20847    20284.436    84.271308 
   23550    1039.4683   -6561.2138   -6445.2595    1285.2719    20273.656     84.37511 
   23560    1071.5546   -6565.3159   -6445.7823    606.12548    20264.086    84.479733 
   23570    1098.2137   -6568.7468   -6446.2394   -455.13659    20255.175    84.605277 
   23580     1069.668   -6566.0087   -6446.6856     -119.084    20246.023    84.744478 
   23590    1056.0744   -6564.9038   -6447.0972    449.24538    20236.866    84.848379 
   23600    1070.3881   -6566.8785   -6447.4751    352.60677    20228.182    84.883077 
   23610    1099.7903   -6570.5523   -6447.8691   -223.95704    20219.898    84.870391 
   23620    1109.6666   -6572.1391   -6448.3542   -504.68027    20211.502    84.847748 
   23630    1068.2386    -6568.079   -6448.9154    163.30974    20202.776    84.854343 
   23640    1039.6018   -6565.4584   -6449.4893    988.82041    20194.299    84.896921 
   23650    1033.5867   -6565.3129   -6450.0147    1412.8485    20186.836    84.964699 
   23660    1037.9759   -6566.2723   -6450.4845    1641.4692    20180.807    85.059389 
   23670    1046.1728   -6567.6304   -6450.9282    1721.0542    20176.414    85.135638 
   23680    1028.0024   -6566.0019   -6451.3266    1481.4648    20173.711    85.187041 
   23690    1020.2191   -6565.4886   -6451.6816    1495.7149    20172.481    85.256696 
   23700    1006.4341   -6564.2236   -6451.9544    2004.6171    20172.767    85.351767 
   23710    1024.5737   -6566.4405   -6452.1477    2090.1301    20174.963    85.455313 
   23720     1022.589    -6566.339   -6452.2677    2532.0965    20179.212    85.575522 
   23730     1003.754   -6564.2937   -6452.3234    2737.2853    20185.866     85.72318 
   23740    998.42444   -6563.6687   -6452.2929     1765.222    20195.018     85.88449 
   23750    993.81853   -6563.0171   -6452.1552    1387.8024    20205.881    86.026575 
   23760    1006.5687   -6564.1742   -6451.8899    1310.2154    20218.019    86.132787 
   23770    1058.6098   -6569.6295     -6451.54    952.48203    20231.278    86.208716 
   23780    1034.4204   -6566.5398   -6451.1486    1749.8365     20245.48    86.263291 
   23790     1037.385   -6566.4657   -6450.7438    2273.4311    20261.231    86.317979 
   23800    1028.5165   -6565.0087   -6450.2761    2198.6641    20279.014    86.392179 
   23810    1015.0401   -6562.9741   -6449.7448    1782.4014    20298.791    86.489234 
   23820    1045.7682   -6565.7929   -6449.1358     678.2491    20320.083    86.596925 
   23830    1056.2665   -6566.3081     -6448.48   -107.64231    20341.886    86.706126 
   23840    1043.2031   -6564.2032   -6447.8323   -218.45181    20363.448     86.82291 
   23850    1037.5353   -6562.9213   -6447.1826   -354.31839      20384.6    86.966156 
   23860    1073.2782    -6566.245   -6446.5192   -1243.2877    20405.119    87.132074 
   23870    1077.9448   -6566.1299   -6445.8835   -1796.5527    20424.252    87.298854 
   23880     1070.802   -6564.7755   -6445.3259   -2283.7929    20441.436    87.451119 
   23890    1069.0558   -6564.0977   -6444.8429   -2319.3668    20456.243    87.574435 
   23900     1064.749   -6563.1974    -6444.423    -2092.174    20468.616    87.666208 
   23910    1057.7574   -6562.0337   -6444.0393     -1854.11    20478.798    87.755844 
   23920    1084.4583   -6564.6856   -6443.7126   -2409.4877    20486.946    87.877937 
   23930     1057.648   -6561.4277   -6443.4455   -2256.5169    20492.704     88.03501 
   23940    1035.1722   -6558.6875   -6443.2125   -1924.7405    20496.178    88.177084 
   23950     1069.966   -6562.3311   -6442.9748   -1776.2502    20497.673    88.252271 
   23960    1069.6416   -6562.0759   -6442.7558   -1320.9587    20497.422    88.257722 
   23970    1079.7464   -6563.0385   -6442.5912   -1214.4245    20495.826    88.223561 
   23980    1080.2006   -6562.9847   -6442.4867   -767.61376    20493.084    88.185728 
   23990    1083.2021   -6563.2848    -6442.452   -427.66721    20489.598    88.168792 
   24000    1097.3126   -6564.9093   -6442.5024   -133.39965    20485.708    88.180268 
   24010    1085.8393   -6563.7852   -6442.6582    450.86216    20481.747    88.236366 
   24020     1061.909   -6561.3613   -6442.9038    972.29785    20478.272    88.311978 
   24030    1065.6984   -6562.0828   -6443.2025     991.8725    20475.745    88.335073 
   24040    1073.5501   -6563.3418   -6443.5857    1158.7069    20474.236    88.312137 
   24050    1059.2451   -6562.2139   -6444.0535     2076.566    20473.988    88.326856 
   24060    1058.9453   -6562.7522   -6444.6253    2700.6137    20475.803    88.402542 
   24070    1047.5381   -6562.1443   -6445.2898    2365.1091    20480.221    88.490101 
   24080    1067.1101   -6565.1179   -6446.0802    1621.9703    20486.953    88.579711 
   24090    1059.8556   -6565.2335    -6447.005     1349.214    20495.358    88.697914 
   24100    1064.7396    -6566.841   -6448.0677    580.37681    20505.035    88.837224 
   24110    1063.3128   -6567.8725   -6449.2583    15.128622    20515.291    88.980328 
   24120    1040.5708   -6566.5673   -6450.4901    95.891899    20525.607    89.116534 
   24130    1028.6139   -6566.4127   -6451.6693   -30.926701     20535.96    89.241473 
   24140    978.69938   -6561.8265   -6452.6511    642.22162    20546.368    89.370398 
   24150    974.58992   -6562.0925   -6453.3756    838.28303    20557.362    89.515831 
   24160    993.54581   -6564.6844   -6453.8528    435.54061     20569.15    89.649587 
   24170    1001.2542   -6565.8299   -6454.1385    407.01656    20581.418     89.74608 
   24180    999.89473   -6565.8148   -6454.2751    263.97186     20594.06    89.823902 
   24190    996.40468   -6565.4351   -6454.2847    83.943061    20606.954    89.899154 
   24200    993.59282   -6565.0156   -6454.1789   -423.16616    20619.882    89.973926 
   24210    1000.3127   -6565.5607   -6453.9743   -923.90208    20632.363    90.023879 
   24220    1005.7449   -6565.8848   -6453.6925    -1618.663     20643.87    90.013944 
   24230    1018.3575    -6566.956   -6453.3567     -2315.94     20653.72    89.970138 
   24240    1013.4079   -6566.0357   -6452.9885    -2144.214    20661.283    89.922017 
   24250    1009.3837   -6565.1841   -6452.5858   -2156.5374    20666.637      89.8868 
   24260    1034.3628   -6567.5268   -6452.1421   -3211.1101    20669.678    89.874283 
   24270    1018.1377   -6565.2657   -6451.6909   -3784.4485    20669.492    89.870299 
   24280    996.70307   -6562.4137   -6451.2299   -3953.2727    20665.476    89.846918 
   24290    1022.5279   -6564.7937   -6450.7292   -3867.6744    20657.447    89.798681 
   24300    1033.1885   -6565.4514   -6450.1976   -3087.5007     20645.56    89.759606 
   24310    1037.9916   -6565.4721   -6449.6826   -2494.5367     20630.52    89.765464 
   24320    1032.0855   -6564.3191   -6449.1884   -2115.8781    20612.958    89.829261 
   24330    1028.5754   -6563.4478   -6448.7086   -1950.1388    20593.263    89.902286 
   24340    1027.2984   -6562.8184   -6448.2217   -1621.6073    20571.646    89.913022 
   24350    1024.3439   -6561.9859   -6447.7188    -997.0225    20548.472     89.85867 
   24360    1044.1607   -6563.6852   -6447.2075   -702.42855    20524.333     89.79066 
   24370    1076.1267   -6566.7696    -6446.726   -1048.0466    20499.486    89.738616 
   24380    1056.8346    -6564.207   -6446.3155   -376.21462    20473.787    89.708247 
   24390    1014.7516    -6559.133    -6445.936    575.72539    20447.824    89.686589 
   24400     1024.937    -6559.845   -6445.5117    756.93006    20422.479    89.648306 
   24410    1063.1255   -6563.6544   -6445.0612    475.75704    20397.969    89.598587 
   24420    1064.6755   -6563.4254   -6444.6593    685.56363    20374.083     89.56263 
   24430    1049.0171   -6561.3325    -6444.313    1518.5375    20351.068    89.542206 
   24440    1051.7909   -6561.3184   -6443.9896     1974.938    20329.649    89.534142 
   24450    1068.4342   -6562.8755     -6443.69    1740.7738    20310.215    89.536793 
   24460    1083.5482   -6564.3131   -6443.4417    1792.4505    20292.601    89.532522 
   24470    1086.0809    -6564.419    -6443.265    2607.1019    20276.908    89.496293 
   24480    1069.0951   -6562.4196   -6443.1604    3318.1676    20263.852     89.45189 
   24490    1061.4529   -6561.5177   -6443.1111    3292.1381    20254.046    89.413658 
   24500    1073.7821   -6562.8913   -6443.1093    2852.2024    20247.484     89.37191 
   24510    1065.9896   -6562.0769   -6443.1641    2534.9399     20243.76     89.33189 
   24520    1050.1932   -6560.4111   -6443.2605    2322.7082    20242.535    89.317956 
   24530    1061.5684   -6561.7919   -6443.3724    2317.2753    20243.617    89.346518 
   24540    1055.1597    -6561.213   -6443.5084    2777.0736    20247.016    89.400366 
   24550    1013.2963   -6556.6754   -6443.6407    3503.8823    20253.158    89.460606 
   24560    1047.6085   -6560.6047   -6443.7424    3026.9641    20262.606    89.541101 
   24570    1081.3703   -6564.4605    -6443.832    1989.5454    20274.964    89.646145 
   24580     1090.435   -6565.6292   -6443.9896    806.13644     20289.24    89.750588 
   24590    1095.6343   -6566.4864   -6444.2667    94.999939    20304.306    89.845179 
   24600    1061.6028   -6563.0919   -6444.6685    544.83763    20319.558    89.931922 
   24610    1045.7735   -6561.8118   -6445.1542    799.17054      20335.3     90.02771 
   24620     1051.646   -6563.0202   -6445.7075    867.08559    20351.776    90.140134 
   24630     1064.886   -6565.1461   -6446.3565    953.13486    20369.066    90.266837 
   24640    1058.7772   -6565.2522    -6447.144    1158.9467    20387.272    90.418709 
   24650    1068.3296   -6567.2717    -6448.098    774.38074    20406.518    90.590779 
   24660    1063.8674   -6567.8957   -6449.2197    470.66971    20426.504    90.759808 
   24670    1058.4126   -6568.5314   -6450.4639   -43.522877    20446.877    90.905799 
   24680    1041.2699   -6567.8914   -6451.7362   -629.15098     20467.13    91.019139 
   24690    1029.2686    -6567.728   -6452.9115   -389.14742    20486.774    91.107584 
   24700    1048.8034   -6570.9455   -6453.9499   -415.11798    20505.943    91.180445 
   24710    1051.9714   -6572.1936   -6454.8446   -911.24435    20524.589    91.242671 
   24720    1012.3432   -6568.4851   -6455.5567   -1100.8284    20542.276    91.295618 
   24730    970.96735   -6564.3412   -6456.0283   -1130.1164    20558.805    91.359105 
   24740    976.24562   -6565.1694   -6456.2677   -1461.9564     20574.11    91.458797 
   24750    991.94192   -6566.9749   -6456.3223   -1524.4392    20587.922    91.607647 
   24760    1005.4879   -6568.4249   -6456.2612   -1656.9165    20600.143    91.789738 
   24770    986.95562   -6566.2044    -6456.108   -2307.2736    20610.596    91.958962 
   24780    972.04215   -6564.2915   -6455.8587    -3061.845    20618.671    92.085665 
   24790    985.62694   -6565.4493   -6455.5011   -3610.7653    20623.614    92.179761 
   24800    985.03879   -6564.9182   -6455.0356   -3499.6394    20624.932    92.249834 
   24810    991.05698   -6565.0331   -6454.4792   -3225.3898    20622.701    92.307784 
   24820    1002.2263   -6565.6464   -6453.8465   -2997.3475    20617.193    92.377996 
   24830    1009.6794   -6565.8025   -6453.1712   -2544.7956    20608.695      92.4706 
   24840    1020.5555   -6566.3155    -6452.471   -1847.2792    20597.684    92.568048 
   24850    1035.5601   -6567.2877   -6451.7694   -1332.0249    20584.834    92.643299 
   24860    1041.2342   -6567.2445   -6451.0932   -1009.8481    20570.679    92.699065 
   24870    1045.8296   -6567.1267   -6450.4628   -553.19076    20555.572    92.739474 
   24880     1034.525   -6565.2778    -6449.875    292.95481    20540.014     92.74475 
   24890    1027.9449   -6563.9805   -6449.3117    698.45003     20524.75    92.714742 
   24900    1027.2483   -6563.3418   -6448.7507    1253.6026    20510.266    92.668582 
   24910    1031.5367   -6563.2559   -6448.1864    1631.0648    20497.085    92.608477 
   24920    1028.3594   -6562.3417   -6447.6267    1422.1055    20485.564    92.554108 
   24930    1020.6516   -6560.9265   -6447.0713    760.02451    20475.483    92.562047 
   24940    1018.8812   -6560.1595   -6446.5017     35.40148    20466.188    92.643583 
   24950     1036.413   -6561.5234     -6445.91   -207.07227    20457.009    92.738086 
   24960     1055.641   -6563.0806   -6445.3222    24.586551    20447.699    92.797819 
   24970    1047.8172    -6561.655   -6444.7694    644.86966    20438.503    92.806283 
   24980    1062.4342   -6562.7819   -6444.2657    557.82119    20429.929    92.765283 
   24990    1086.8431   -6565.0591   -6443.8201   -29.262678    20421.911    92.698933 
   25000    1099.3611   -6566.1221   -6443.4868   -690.29668    20413.854    92.628246 
Loop time of 12861.3 on 16 procs for 20000 steps with 864 atoms

Performance: 0.134 ns/day, 178.629 hours/ns, 1.555 timesteps/s
97.0% CPU use with 16 MPI tasks x 1 OpenMP threads

MPI task timing breakdown:
Section |  min time  |  avg time  |  max time  |%varavg| %total
---------------------------------------------------------------
Pair    | 9929.7     | 11387      | 12438      | 705.6 | 88.54
Bond    | 0.0014141  | 0.0045742  | 0.0079563  |   2.8 |  0.00
Neigh   | 0.24942    | 0.28794    | 0.33331    |   4.4 |  0.00
Comm    | 247.06     | 1252.7     | 2729.1     |2099.5 |  9.74
Output  | 1.2482     | 1.2701     | 1.5878     |   7.3 |  0.01
Modify  | 89.185     | 220.13     | 434.67     | 626.0 |  1.71
Other   |            | 0.08139    |            |       |  0.00

Nlocal:        54.0000 ave          63 max          44 min
Histogram: 1 0 2 3 1 2 3 2 1 1
Nghost:        494.188 ave         526 max         452 min
Histogram: 1 0 0 1 2 4 5 2 0 1
Neighs:         0.00000 ave           0 max           0 min
Histogram: 16 0 0 0 0 0 0 0 0 0
FullNghs:      2261.00 ave        2876 max        1714 min
Histogram: 1 1 2 3 1 3 2 2 0 1

Total # of neighbors = 36176
Ave neighs/atom = 41.870370
Ave special neighs/atom = 0.0000000
Neighbor list builds = 2000
Dangerous builds = 2000
unfix   3
                
Total wall time: 4:29:23
