LAMMPS data file via write_data, version 2 Aug 2023, timestep = 50000, units = metal

1536 atoms
3 atom types

-1.3047922282187923 22.8412688625221 xlo xhi
-1.0498359973730693 22.58631263167601 ylo yhi
-4.922168510364905 69.53159841327573 zlo zhi

Masses

1 35.45
2 39.0983
3 6.94

Atoms # full

392 0 1 -1 3.2127778470921537 1.6515105420543303 -2.7085799544774845 0 0 0
474 0 3 1 5.224006196818341 0.5518072095247568 -2.0444014445498677 0 0 1
1534 0 1 -1 5.150282282996377 -0.5481660585522873 -4.483181231202791 1 1 1
773 0 1 -1 11.769061679489061 -0.7215721196201492 -1.8587545134850743 0 0 0
865 0 2 1 18.25709044965376 2.1321342324843062 -2.191868975012272 0 0 0
1160 0 1 -1 20.632075130236046 2.208646017284736 -3.9420288503978904 0 0 0
1154 0 3 1 21.508062636719927 1.5029162751227445 -2.0747419479518405 0 0 0
658 0 3 1 1.2300704480200921 2.970141542618406 -2.9489494336917494 0 1 1
95 0 1 -1 2.2022368279469386 3.841850959600121 -4.898962490268182 0 0 1
100 0 3 1 3.5263223000815023 5.01480071643152 -3.5826252336073265 0 0 0
567 0 1 -1 6.586681400485618 2.5185940632508443 -1.8545341791833314 0 0 1
667 0 3 1 6.876534776894397 4.878448383500527 -2.173868540910515 0 0 1
1336 0 1 -1 9.030199058498765 2.7061717243385073 -4.907733613021553 0 0 1
468 0 2 1 11.628687219417275 3.371524551471646 -2.6697323269342337 0 0 1
869 0 1 -1 13.831072927157829 4.781936856310184 -4.613949523707643 0 0 0
1256 0 1 -1 18.669416510596598 5.308895673268182 -2.3007468080168287 0 0 0
97 0 3 1 -0.4660646850876432 6.161334399404238 -3.12623629500216 0 0 0
577 0 3 1 1.8400144458555818 8.513509180821892 -4.556979543903285 0 0 0
488 0 1 -1 3.8788074122251244 7.167853295627548 -4.817353007100612 0 0 0
485 0 1 -1 7.890161230775821 6.377359509179298 -3.642922299344935 0 0 0
482 0 2 1 5.64739242675062 8.116523237774675 -2.48664151784392 0 0 0
484 0 2 1 10.430552132326621 8.542971211783641 -2.086699505938537 0 0 0
868 0 2 1 15.007219374311964 7.150574534821896 -3.1551424710265494 0 0 0
1345 0 3 1 19.697119850563837 7.1002553954413266 -3.524534094648454 0 0 0
1254 0 1 -1 21.854063478024187 7.048164347241917 -2.218253982220639 0 0 0
98 0 2 1 -1.0257319623799668 9.681644859139825 -2.8619914642817177 0 0 0
194 0 3 1 2.2593231787565786 11.921491051253934 -2.083366093022968 0 0 0
197 0 1 -1 2.5971103543942893 9.8696073255986 -2.7930620489284275 0 0 0
564 0 3 1 3.523519635293076 11.375780857822532 -4.406018419311014 0 0 1
584 0 1 -1 5.837882366157634 11.235123807224722 -4.737408650024001 0 0 0
581 0 1 -1 9.311268173357949 10.901933327379634 -3.77338260613792 0 0 0
1054 0 1 -1 13.53880127624843 9.417063809359984 -2.0036114127455726 0 0 1
1057 0 3 1 14.074280822239666 10.676711843257415 -3.788206281094752 0 0 0
1352 0 1 -1 15.874346450668375 11.504168192918314 -2.353572824824595 0 0 0
1349 0 1 -1 19.57956038151987 9.65028235789571 -2.4876699454888804 0 0 0
293 0 1 -1 -0.14714706505530684 12.709184088630206 -2.0547792460302348 0 0 0
292 0 2 1 1.6634396208305495 15.72056408696832 -2.026469792716656 0 0 0
198 0 1 -1 3.2988699421686096 13.46054985580496 -3.4266640506567283 0 0 0
580 0 3 1 6.671809399405932 12.5976924368233 -2.5875979817893997 0 0 0
679 0 1 -1 7.887133640136122 14.24968643116276 -3.7660748631146133 0 0 0
651 0 3 1 11.408592889402339 14.0794082587518 -2.170387248791259 0 0 1
1061 0 1 -1 12.941478589912057 12.99166009494465 -3.703011622125048 0 0 0
588 0 3 1 14.682650398863277 13.895978933229737 -2.5293028356476928 0 0 0
1447 0 1 -1 16.517942359497418 15.41666262078375 -3.1335687457373913 0 0 0
1346 0 3 1 19.00083902460537 14.757704552948551 -2.68054763921743 0 0 0
200 0 1 -1 20.45377978457489 15.250793775324702 -4.334174244888746 -1 0 0
296 0 1 -1 0.15376630559719295 16.014466360672206 -4.714146853545041 0 0 0
680 0 1 -1 4.811767053192852 16.5466395135599 -4.528036684851095 0 0 0
1064 0 1 -1 8.036997747099615 17.907351522920695 -4.400168451947909 0 0 0
578 0 3 1 6.838595695674147 16.505690385082705 -3.1038186650136392 0 0 0
1248 0 1 -1 11.832054339039079 16.373513314973152 -2.1446151264729183 0 -1 1
1058 0 3 1 9.506868696846627 16.79086946360134 -2.8075476514922757 0 0 0
1062 0 1 -1 16.278509547110502 18.93673934201234 -2.844200125138406 0 0 0
380 0 3 1 21.944819677371555 17.113414739594603 -3.4229329751920767 -1 0 1
5 0 1 -1 1.8772694736050135 19.69512842121135 -2.5204941328210952 0 -1 0
1157 0 1 -1 -1.269246620203372 22.096840584583994 -4.213741272938059 1 -1 0
1 0 2 1 1.7683859881618131 22.39485979946204 -4.443276423619673 0 -1 0
385 0 2 1 4.9880280512185236 19.782118134418315 -2.986719087974896 0 -1 0
766 0 1 -1 8.862572478593489 22.173171504534654 -4.8423213099923235 0 0 1
676 0 3 1 9.091066192096225 20.09074697014079 -3.4768375975953116 0 0 0
389 0 1 -1 11.356600504076896 19.967541327274457 -4.288441494703625 0 -1 0
388 0 3 1 11.309921321597374 22.457458195784817 -3.968050437514621 0 -1 0
1068 0 2 1 13.420881078775594 19.523289180018544 -2.0157293761239723 0 0 0
1159 0 1 -1 18.575161888859583 22.33282150868006 -3.423854168549943 0 -1 0
1155 0 3 1 18.19113867511973 20.32877078325996 -2.214952376835773 0 -1 0
1446 0 1 -1 20.6373100471954 19.387228409798222 -2.7609335037853673 0 0 0
1444 0 3 1 20.502808853697232 21.00878303249188 -4.4798804633103995 0 0 0
2 0 3 1 -0.5863278004469729 0.10996324511823419 1.0396263043061715 0 0 0
1253 0 1 -1 -0.32525352196128565 1.530432197194051 -1.5022868411320336 1 0 0
3 0 3 1 2.3311398040184352 0.33978883517253466 -0.37646515934221103 0 0 0
6 0 1 -1 2.528774449893473 2.259696149037888 1.1707106894585593 0 0 0
387 0 2 1 8.544945595606405 -0.44277012201825183 -1.625817293894924 0 0 0
391 0 1 -1 7.958024285098915 0.3209183228971757 1.1419632346438195 0 0 0
870 0 1 -1 13.94320201876254 2.1243717054409235 0.3993668189941877 0 0 0
771 0 3 1 13.264765875850765 -0.3241936434556072 -0.1791460127849671 0 0 0
1168 0 1 -1 17.64940865514368 0.6370169271942105 0.19564618899956265 0 0 0
1158 0 1 -1 21.40839898653706 -0.6311104839343282 0.4582915956774105 0 0 0
1164 0 3 1 20.165690843071467 1.333059870864476 1.1815282411014465 0 0 0
99 0 3 1 0.4225859178204434 3.2351937260325307 0.39063191152994925 0 0 0
104 0 1 -1 1.1672063169962352 4.780953592663917 -1.5511223256288527 0 0 0
101 0 1 -1 4.791751649437761 5.451034884619332 -1.3543054655015854 0 0 0
4 0 3 1 4.794188980523325 3.726783520670743 1.0077883910487317 0 0 0
481 0 3 1 8.141944028897031 2.546645579969717 -0.19156222243169996 0 0 0
390 0 1 -1 10.336321934726683 2.661881783331767 0.0478609797372096 0 0 0
1255 0 1 -1 20.73208534331802 2.9838385192604395 -0.413306683282328 0 0 0
1251 0 3 1 20.442165296206007 5.1968919828105244 -0.9148026755302388 0 0 0
195 0 2 1 0.9736910915228538 7.196310213891637 0.8061849318175396 0 0 0
583 0 1 -1 4.252372185491583 8.586921637489123 0.17274266978314579 0 0 0
486 0 1 -1 7.772163906096553 7.972161991791081 0.9296994522263988 0 0 0
492 0 3 1 5.806923846254177 6.800472552990659 0.8459399339806088 0 0 0
872 0 1 -1 11.846418398962408 5.973872990177318 -1.3760817808598897 0 0 0
961 0 3 1 12.604970562795392 6.4196570102392245 0.5603175185349407 0 0 0
973 0 1 -1 15.09191684746778 6.096437619462974 0.006187942682859493 0 0 0
1353 0 3 1 17.52575870068167 6.579520193308688 0.02889408617533551 0 0 0
1351 0 1 -1 17.444828179539023 9.03853112329659 0.7480485107633807 0 0 0
1264 0 1 -1 19.374280119220046 5.994265534801757 0.9954175279231485 0 0 0
112 0 1 -1 -0.6017095760779166 9.929372741432369 0.362582495855003 0 0 0
193 0 3 1 0.03914778690385834 12.200370310275025 0.3128194403946889 0 0 0
675 0 3 1 5.117602566520032 11.037222379976843 0.37663766971145307 0 0 0
199 0 1 -1 2.700168124054472 11.799911064087285 0.5184907424595409 0 0 0
969 0 3 1 9.033703789043896 11.749743867770515 0.29770663411991727 0 0 0
582 0 1 -1 7.0092640304162455 11.394824541691035 -0.7548893362335667 0 0 0
963 0 2 1 13.428692294314748 11.159535849662175 0.8044441699826068 0 0 0
1433 0 3 1 17.444399618821528 9.659009289985722 -1.4365701797617794 0 0 1
1347 0 2 1 20.344378857902264 10.315401070123215 0.9611706532145847 0 0 0
395 0 3 1 8.63798224874716 15.173214505079144 0.977136523556382 0 -1 0
966 0 1 -1 10.354507755346557 13.775218587303826 0.12495982923897664 0 0 0
976 0 1 -1 13.850999506158912 14.080254156969518 -0.15297306154736834 0 0 0
1443 0 3 1 22.026990376721223 14.048720911809554 -1.5699539108300442 0 0 0
1350 0 1 -1 20.008992916546575 13.574861212398563 -0.8189127619065291 0 0 0
297 0 3 1 19.470733003260108 14.691967606005665 1.182890967046812 -1 0 0
208 0 1 -1 1.2132788423189234 16.996195573066554 0.8669751764680917 0 0 0
685 0 1 -1 4.653357725057721 16.9493614883921 -1.2915507496269063 0 0 0
291 0 3 1 3.649255849546691 16.89623427795873 1.0425025771758953 0 0 0
962 0 3 1 6.544097681801768 17.941674552090646 -0.28542145289875887 0 0 0
968 0 1 -1 8.272079421932554 16.48160157686027 -1.0171867955595575 0 0 0
1072 0 1 -1 12.105845995876244 18.957557848760484 1.0478611767863857 0 0 0
1065 0 3 1 12.724729652888765 16.231425898878218 -0.07369448958209812 0 0 0
1063 0 1 -1 15.021573568271124 17.191916063194842 0.3172494136194519 0 0 0
1059 0 3 1 16.481793541612497 16.85520529442325 -1.3821160242682695 0 0 0
1360 0 1 -1 18.434441801018956 16.525278141298394 0.03242296464909877 0 0 0
1452 0 3 1 22.71200287782522 16.678732836724713 1.0637742833566275 0 0 0
295 0 1 -1 22.382011615198152 16.146094643576838 -1.4798447128100927 -1 0 0
779 0 3 1 19.831348788284977 17.916069740362218 -0.31428913803185665 0 -1 0
1165 0 1 -1 22.24335063780414 19.007477299674502 0.8519248741542009 0 -1 0
290 0 2 1 -0.8698051687413639 20.94557543150041 -1.440652729615513 0 0 0
7 0 1 -1 1.060220675997872 22.179692341048913 0.32511557418632364 0 -1 0
304 0 1 -1 3.782286795713671 19.470008050029783 1.2500682104039784 0 0 0
300 0 3 1 2.7816817832116705 20.654935008739407 -0.4583020317467703 0 0 0
294 0 1 -1 4.2733470148319785 22.439653423183547 -0.8223434773922058 0 0 0
678 0 1 -1 7.526030449966383 20.223624602574127 -1.3683675959398176 0 0 0
781 0 1 -1 15.183365585852625 21.39159449343504 -0.2730329692243014 0 -1 0
1456 0 1 -1 18.924062824017355 20.701022596009334 -0.0943103668350691 0 0 0
1161 0 3 1 17.0267550031638 22.110129238701077 0.5255442812750992 0 -1 0
1163 0 3 1 20.764325491673304 20.856837853032474 1.2986611811131912 0 -1 0
16 0 1 -1 -0.6017722303588036 0.33473579345852955 3.427754587301921 0 0 0
12 0 2 1 2.723082824726343 0.6481342249907063 4.447226619253859 0 0 0
386 0 3 1 7.7076322291654495 1.5277162169681433 3.02864693040818 0 0 0
770 0 3 1 10.694407912273169 1.016903670193304 1.7307023190168493 0 0 0
775 0 1 -1 11.942329192980507 -0.7648588563612788 1.709256370368255 0 0 0
778 0 2 1 13.209628583081074 1.9104440688841162 3.5636107410848634 0 0 0
774 0 1 -1 15.700345414188925 -0.6277173984783662 3.3318736268344313 0 0 0
780 0 3 1 16.544429154113914 1.3507620509254115 2.30891766393495 0 0 0
1450 0 3 1 21.607314441744343 -0.5660535881685158 4.704535258689411 0 1 0
103 0 1 -1 0.11802878753965507 4.676704726340926 2.5065722249768996 0 0 0
113 0 3 1 2.4573239958285833 4.309741703892219 3.134802266832324 0 0 0
487 0 1 -1 6.888466148132347 3.742725255247418 1.7548465142571308 0 0 0
483 0 2 1 9.298251708986035 5.122596528266153 2.478535662621881 0 0 0
784 0 1 -1 10.007576969380722 2.381336084999986 3.65584626465313 0 0 0
867 0 3 1 14.653710735508156 4.350704014209341 1.598394815454859 0 0 0
1257 0 3 1 16.328233573727964 5.068248606457468 4.630106855786702 0 0 0
877 0 1 -1 16.60912770467248 3.570276760149513 2.7636905359012385 0 0 0
1250 0 3 1 18.844751840096237 4.3657213168962405 2.7825182546752245 0 0 0
105 0 3 1 22.737449097914556 2.64492656655358 3.4050306862062616 -1 0 0
1261 0 1 -1 20.119670118874275 2.4057777142281975 3.125300833006145 0 0 0
205 0 1 -1 0.2529139814040626 8.572302608040076 3.523657263336995 0 0 0
102 0 1 -1 3.9117142422897855 6.097067951765957 2.2487275305572902 0 0 0
108 0 2 1 5.342026210510199 7.818239099654004 4.381270523789475 0 0 0
866 0 3 1 9.328767988811665 8.996125863286254 2.1112788039148898 0 0 0
967 0 1 -1 11.196299575268089 7.801373186521566 1.8304504931501002 0 0 0
876 0 3 1 12.096363713038317 7.400868839908844 4.220060205485408 0 0 0
871 0 1 -1 13.395127997554432 5.868708736075081 3.211794778168917 0 0 0
1258 0 2 1 17.697819767678084 8.492815396441271 4.082339262445338 0 0 0
201 0 3 1 1.2101427693889653 10.413288919227952 1.9775814612861495 0 0 0
213 0 1 -1 1.0506544670219218 11.996729347899679 4.062937200258334 0 0 0
1355 0 3 1 -0.9980237538879271 10.437535294855401 4.689224661304014 1 0 0
203 0 3 1 3.2444835695710843 12.327121680885988 3.6849153620363513 0 0 0
589 0 1 -1 10.482840677084397 11.159270350192287 1.9914815672758959 0 0 0
1262 0 1 -1 20.687558762492557 9.427695698526472 3.7961289856686733 0 0 0
106 0 3 1 19.84772082456071 11.791140563445698 4.611140836798434 -1 0 0
207 0 1 -1 -1.0502616793218462 13.676835888375724 1.6557052471812286 0 0 0
299 0 3 1 0.9022494107746435 15.136067843471672 2.778417933438652 0 0 0
301 0 1 -1 3.127043629571454 14.6226526712143 2.8556961590465884 0 0 0
496 0 1 -1 7.235749680535301 12.912311460462329 2.1773329378981208 0 0 0
204 0 3 1 6.075310916321879 14.051764888668375 3.6521315845909506 0 0 0
585 0 3 1 9.137234337869657 12.627582555384974 3.141741860545528 0 0 0
686 0 1 -1 10.604711403018515 15.527682801666362 3.569445888188188 0 0 0
974 0 1 -1 14.87306519435255 13.118954383970662 3.2221949510709536 0 0 0
972 0 3 1 14.663280109536053 15.436145038663838 1.8331527429146242 0 0 0
1357 0 1 -1 19.26206408993329 12.917024828560663 2.698710501296241 0 0 0
305 0 3 1 16.88697903631342 13.269523691909049 4.034725198127143 -1 0 0
1356 0 3 1 21.58591049384391 13.853961764903024 3.3598131226201886 0 0 0
688 0 1 -1 7.010278805578256 16.47500128389217 2.0242721634825314 0 0 0
684 0 3 1 8.231119194051715 17.495032005305223 3.7928242596174737 0 0 0
785 0 3 1 11.719593442036622 17.418248229189743 3.241682652459101 0 -1 0
1069 0 1 -1 13.955735076287803 16.521998520842963 3.609293373936442 0 0 0
1354 0 2 1 17.680582239630624 17.628784109613377 2.7805367188286567 0 0 0
1453 0 1 -1 20.56740880841499 16.160834726407096 2.588831357704805 0 0 0
9 0 2 1 22.203139509102073 18.43351641917637 4.096764363876256 -1 -1 0
15 0 1 -1 1.3117354219742685 19.920779543974273 4.558932373397768 0 -1 0
298 0 3 1 3.305453315357183 19.745604715465323 3.5023082278012225 0 0 0
13 0 1 -1 4.389389600651301 21.66847018244276 4.221770784755698 0 -1 0
674 0 2 1 6.27511217742296 21.56038280560541 1.8423963649707877 0 0 0
397 0 1 -1 8.776693349379567 20.25759764665904 2.935111213549785 0 -1 0
393 0 3 1 10.978246833676643 20.530614563081272 2.071595439517303 0 -1 0
777 0 2 1 14.43395105548342 20.356143017551144 2.6590611413370038 0 -1 0
1166 0 1 -1 19.984585543989255 21.62471837877134 3.8449528274643896 0 -1 0
117 0 1 -1 1.4796981121335877 1.170762851797714 7.793198513608383 0 0 0
400 0 1 -1 6.353871707609688 1.026816745022193 4.905104909327946 0 0 0
396 0 3 1 8.694961805801942 0.49022239007659385 5.91571668515388 0 0 0
792 0 1 -1 12.456384319232923 -0.12932459565103316 6.615561325639646 0 0 0
782 0 1 -1 18.0910634599188 0.14136101160423986 6.641270572938373 0 0 0
881 0 3 1 16.215942902764148 1.0311817955829188 7.6182227041418376 0 0 0
1176 0 1 -1 21.78688839473498 -0.8983136542793246 7.258829421276118 0 0 0
118 0 1 -1 1.5203884019301914 5.685607153732577 7.52278860003851 0 0 0
109 0 1 -1 3.398752860766285 3.6224550637404125 4.96667551986986 0 0 0
14 0 1 -1 5.221962285016626 3.7098675556060945 8.009134364690146 0 0 0
115 0 3 1 2.2460785477686684 3.4937807028169745 7.234574957625622 0 0 0
107 0 3 1 5.651370982813682 3.2228187953228984 5.583606763277169 0 0 0
493 0 1 -1 7.1445860401112355 5.25305456396363 5.25068559223701 0 0 0
116 0 3 1 6.695599060336232 5.391929505723316 7.435378863883765 0 0 0
874 0 3 1 9.805738030923093 3.924158949484646 7.0340297627401025 0 0 0
879 0 1 -1 15.37384142055455 2.8012944516206564 6.505687214111928 0 0 0
1263 0 1 -1 18.59651040454211 5.559961875754272 5.003893204063065 0 0 0
875 0 3 1 16.92124034576696 4.547344365036438 7.436586878336943 0 0 0
111 0 1 -1 22.626301144550062 3.130041886983384 5.6206299348794655 -1 0 0
788 0 2 1 19.444489223182643 2.850681580702409 6.094726659630631 0 0 0
209 0 3 1 0.9677014740494125 8.478276601300173 5.658155614932838 0 0 0
120 0 1 -1 -1.0988340120511817 8.915276864987417 6.756965514177434 0 0 0
110 0 1 -1 3.265934698222682 8.95549083379225 6.207714937209548 0 0 0
114 0 3 1 3.4385094154813087 7.383588692548749 8.00218414418156 0 0 0
489 0 3 1 8.849928945915766 7.015457688339643 6.158488947616027 0 0 0
591 0 1 -1 7.929019280376966 8.873444074081808 5.1955733612560095 0 0 0
880 0 1 -1 10.858492099054596 5.962211680883736 5.614799295705483 0 0 0
878 0 1 -1 15.533792902764462 6.695546055259799 6.028531026555962 0 0 0
1260 0 2 1 22.594272561771668 6.631220783121153 5.188326342137062 0 0 0
206 0 1 -1 5.0187783194181375 12.427249549889044 5.062747619641099 0 0 0
593 0 2 1 6.4728771812877195 10.380274341600455 7.206331181780076 0 0 0
592 0 1 -1 9.261343234799476 12.33069545713021 5.59541502994762 0 0 0
975 0 1 -1 12.365477606785612 9.234889416285787 5.413127882317374 0 0 0
587 0 3 1 10.021257143029977 10.12980802378523 5.785629246461312 0 0 0
971 0 2 1 15.817219781668582 9.519772611635707 7.508688630243734 0 0 0
984 0 1 -1 13.9712505959162 11.650467043034498 7.4533349512461875 0 0 0
1359 0 1 -1 17.60295935148644 11.293061947885013 5.419418092174908 0 0 0
1268 0 3 1 -0.11373868791856157 14.000791532930714 5.814222021550162 1 0 0
216 0 1 -1 0.37427602344146615 13.520390122538753 7.9276459703225335 0 0 0
681 0 3 1 4.152214286238597 15.473828331568793 5.451706312393899 0 0 0
309 0 1 -1 3.8322574301915395 14.735788154903632 7.810704791850858 0 0 0
689 0 3 1 5.768232870304315 13.765715284745745 7.512769353636731 0 0 0
687 0 1 -1 6.443493814454099 15.390644352878187 5.717040187447303 0 0 0
683 0 3 1 9.508855521437983 15.011101382895884 5.657599648800685 0 0 0
970 0 2 1 13.02729627328359 14.163644987782705 5.262732036687623 0 0 0
1461 0 1 -1 17.46396934431074 15.447678456146818 4.832134892025593 0 0 0
202 0 3 1 18.084016073947325 14.096707942760112 6.893641128606356 -1 0 0
1358 0 1 -1 22.04163594885329 12.768421533927551 5.307744354327522 0 0 0
1364 0 3 1 21.711616891517508 13.568484317802163 7.747287332843895 0 0 0
1368 0 1 -1 20.007845725921797 15.25680633518208 7.318592405615384 0 0 0
303 0 1 -1 -0.28910585406022626 16.09634030660849 4.849962784676096 0 0 0
308 0 3 1 1.4040050963202173 17.464667243151794 5.674414481829585 0 0 0
312 0 1 -1 0.5828619260425281 17.48370902286677 7.903398602731775 0 0 0
302 0 1 -1 3.6266400567771067 18.010539101712723 5.316955884169031 0 0 0
1080 0 1 -1 8.949181285164023 17.842667255213673 5.849864177543877 0 0 0
783 0 1 -1 12.315583430357972 19.18594032855503 4.7945006038299205 0 -1 0
1067 0 2 1 14.354490691398736 17.7706267817542 6.414748031934161 0 0 0
1451 0 3 1 17.96344986134919 17.88262934369367 6.34221467153559 0 0 0
1454 0 1 -1 20.443678799039787 18.705339455305726 6.868397791903494 0 0 0
1460 0 2 1 0.23221080617228917 20.90033846232142 7.932258167616247 1 0 0
17 0 3 1 3.0634782869328063 20.315035448026205 6.006034196948205 0 -1 0
21 0 1 -1 3.087930232139964 21.184129223117488 7.9720458462416595 0 -1 0
682 0 2 1 6.331407124104517 19.97294899481183 6.251341167475163 0 0 0
692 0 3 1 9.909730463631021 19.957004139839167 4.9267443366914065 0 0 0
399 0 1 -1 9.165050573489173 21.92796400914026 6.437267433803328 0 -1 0
1167 0 1 -1 14.990286006289265 21.20952583130977 6.9275526062903126 0 -1 0
1455 0 1 -1 17.157495514554192 19.38497289209036 5.086385989635666 0 0 0
1169 0 3 1 16.689134553185504 22.295245769068107 5.344999706787284 0 -1 0
1449 0 3 1 19.30911429688463 20.474474350050983 5.646550306257035 0 0 0
11 0 2 1 3.0177192505822363 1.4166808164565228 10.534913835284895 0 0 0
398 0 1 -1 8.62930604802584 1.7290436611758602 8.098727906460566 0 0 0
408 0 1 -1 5.909448514862785 0.10371053253667162 9.875602571541917 0 0 0
394 0 3 1 6.310535320688937 2.128138615095238 9.048300899530808 0 0 0
491 0 3 1 10.720704572629732 -0.7573471191914217 8.05096427618863 0 0 0
403 0 3 1 13.050161025162069 1.4565142285091484 8.243018948573281 0 0 0
791 0 1 -1 14.64139699843962 0.4450426641124994 9.556497028320221 0 0 0
883 0 3 1 18.38394791620157 1.9470136268192597 10.882091585318289 0 0 0
790 0 1 -1 20.71780476980411 1.0117582024450473 10.494777072686094 0 0 0
10 0 2 1 -1.0038434715809739 2.35403126615168 8.939980124117298 0 0 0
24 0 1 -1 0.9469966922466106 3.8005217539167795 10.647934691271288 0 0 0
410 0 2 1 5.043206249807227 5.594090330448783 10.823064097745583 0 0 0
497 0 2 1 9.332525626174643 3.7796635020683516 10.698727373521075 0 0 0
501 0 1 -1 11.826157210849537 3.45449288071062 8.568739807656705 0 0 0
873 0 2 1 13.501612458704392 5.520725335672542 8.05166406241415 0 0 0
1271 0 1 -1 17.6518128414546 2.705327287551567 8.838866063042024 0 0 0
1269 0 1 -1 21.94137379147542 5.499306302938067 8.753193423845252 0 0 0
1259 0 3 1 -0.040431641302329124 6.665584986647182 8.909325217585948 1 0 0
1270 0 1 -1 -1.129847298774253 8.371497749331207 10.492742050886726 1 0 0
215 0 1 -1 2.3760219564379166 7.2422328725389935 10.480767577112152 0 0 0
494 0 1 -1 8.717335177296674 5.760600682756003 8.443592635193816 0 0 0
504 0 1 -1 5.714566804916538 7.461095355927004 8.221182358562457 0 0 0
490 0 2 1 8.4561469143698 8.467776967268398 11.042116260757505 0 0 0
888 0 1 -1 12.299956181035505 8.284450297424318 9.696641679329325 0 0 0
884 0 3 1 14.31078441830255 7.63684402723376 10.59822289349774 0 0 0
885 0 1 -1 16.291210310959436 6.5426526280540935 9.053428119530365 0 0 0
1272 0 1 -1 19.25489821270026 9.073597482779075 8.472129225872326 0 0 0
1265 0 3 1 18.595153625989603 7.218489836625144 9.648233590517345 0 0 0
121 0 3 1 21.64910063711512 6.308371698910627 10.773093937506998 -1 0 0
210 0 2 1 0.08749545517841528 12.320430369638267 10.982101652487689 0 0 0
214 0 1 -1 3.4978326201172427 12.375404116768047 10.548931371048912 0 0 0
594 0 3 1 6.305688977157264 11.851487014058735 11.13504526822559 0 0 0
503 0 1 -1 5.839104206271612 9.681457608254881 11.01917247167456 0 0 0
597 0 1 -1 9.83861788792893 10.571826082573184 8.402110727956314 0 0 0
500 0 3 1 12.3082702095789 10.077283054330008 8.041607030195884 0 0 0
1361 0 3 1 19.125024975737077 11.3125817749783 9.678308927202703 0 0 0
1363 0 3 1 21.523414768485985 9.857554800500544 8.929655344957952 0 0 0
1365 0 1 -1 21.286402915999574 12.343723898268523 9.512510857010017 0 0 0
317 0 1 -1 1.7265986690258637 15.444590747922184 11.261572982949524 0 0 0
212 0 3 1 2.1206588579661325 14.236159287696122 9.431878441627683 0 0 0
600 0 1 -1 7.191797236590473 13.205923195741326 9.368664128903573 0 0 0
586 0 3 1 9.386731422230499 12.804348574031103 8.308078559467372 0 0 0
590 0 1 -1 10.185873309353289 14.87153111661672 8.093347991235994 0 0 0
1066 0 3 1 12.274693411452262 15.655206568692837 9.366663227746624 0 0 0
1071 0 1 -1 14.136777873517616 15.280744443405062 8.184391678753567 0 0 0
1073 0 3 1 15.092836854317932 13.307174991075474 8.755031237324806 0 0 0
1077 0 1 -1 17.473288055953134 12.859191566035294 9.115520653011615 0 0 0
307 0 2 1 -0.8263045322834459 16.33815608840107 10.28867246751403 0 0 0
690 0 2 1 3.710053842098807 17.47461435705328 9.230560108300534 0 0 0
596 0 2 1 8.15193256734282 16.84789379427854 9.014306000710555 0 0 0
1070 0 1 -1 11.600440742700494 17.723087132961524 8.588107200755765 0 0 0
1464 0 1 -1 17.24265103319742 17.890802471363752 8.633156523941075 0 0 0
1457 0 3 1 19.754589426925904 17.491460205937695 8.741260934826958 0 0 0
1463 0 1 -1 20.69074224027308 17.85392383759877 10.783038480880627 0 0 0
19 0 3 1 5.050649699648907 21.465170618864942 8.959177464196603 0 -1 0
696 0 1 -1 6.4575286312101206 19.458724267234594 9.312609698069304 0 0 0
405 0 1 -1 11.590848068417403 22.110359191994416 9.85981248701212 0 -1 0
1074 0 3 1 12.099405144822942 19.556049140892654 10.013397681393808 0 0 0
404 0 3 1 13.756959265450044 22.114630722243206 8.571186349263622 0 -1 0
789 0 1 -1 14.47502316643782 20.23041250470078 10.229562442348652 0 -1 0
787 0 3 1 16.038037727217187 22.405992211607085 10.550220404736374 0 -1 0
1162 0 3 1 16.3965004311788 20.07351755688586 8.309710055748635 0 -1 0
1175 0 1 -1 18.246081986889777 21.36854169623373 9.717248358927481 0 -1 0
1172 0 3 1 19.897525162405017 22.483597576242452 8.206377252840833 0 -1 0
1173 0 1 -1 0.5799874943302752 -0.3813508867254257 12.146443562168564 1 0 0
20 0 3 1 1.933197207281617 -0.16537315624454274 14.105694078366167 0 0 0
407 0 1 -1 3.986005633518391 0.04711715688963225 13.131457054181485 0 0 0
401 0 3 1 6.382881263018531 0.7147490135355783 12.207173021885076 0 0 0
413 0 1 -1 8.099526628864169 -0.9580472437814034 12.558920369580175 0 0 0
406 0 1 -1 11.375216559837341 0.8489144961350636 13.582380023504474 0 0 0
402 0 3 1 10.437991160743877 -0.40830350243648383 11.562735387047542 0 0 0
1078 0 1 -1 16.474974336950034 -0.4552545810413591 12.87755578743765 0 1 0
1267 0 2 1 22.49783705349852 2.1659995415987194 12.85450056561697 0 0 0
505 0 3 1 1.400736105118931 5.635017057672176 12.174182963437122 0 0 0
495 0 1 -1 6.418434887560356 2.845718599643841 11.579738557370312 0 0 0
502 0 1 -1 10.423621459892995 4.779626296440205 13.254705464189868 0 0 0
786 0 2 1 14.671585253293726 2.6126847748364184 12.17930680146888 0 0 0
887 0 1 -1 13.75411570734288 5.595884883508963 11.646313010371308 0 0 0
893 0 1 -1 18.084009569735322 3.196666036021374 12.746292407552453 0 0 0
125 0 1 -1 -0.8811208450794917 5.924097793922214 12.737986041849549 0 0 0
124 0 3 1 0.20838325532959945 8.359603488364153 12.902775342354776 0 0 0
22 0 1 -1 2.620479784861405 6.227796048834942 14.138822317809119 0 0 0
607 0 1 -1 6.922553419662135 6.382185202633923 12.933012620959794 0 0 0
499 0 3 1 8.967023078828024 6.359347848856196 14.136990099588846 0 0 0
882 0 3 1 12.020313127650022 6.583468659979359 13.222904813208231 0 0 0
896 0 1 -1 10.23166283275464 8.244179870005333 13.419289990738317 0 0 0
886 0 1 -1 15.737273320551383 8.938706430590603 11.859567120337697 0 0 0
889 0 2 1 17.183893731552743 6.252724844211284 12.616885185957852 0 0 0
1367 0 1 -1 19.637932402137594 7.208347191404089 11.533039154993538 0 0 0
1369 0 2 1 19.83211995257335 8.830553916783225 13.929439827632617 0 0 0
221 0 1 -1 -0.6213258406480932 12.07809231271663 13.852469559649663 0 0 0
498 0 3 1 3.195798507855364 9.332771507406358 11.64513911547579 0 0 0
512 0 1 -1 2.3364052489729263 10.00617674876198 13.689797955137106 0 0 0
595 0 2 1 12.695324952511202 10.260571442651992 12.301846335933003 0 0 0
981 0 1 -1 18.885522914599264 11.003814965977487 11.97084887891808 0 0 0
977 0 3 1 16.6052014505196 10.186114719807295 13.5849921946849 0 0 0
211 0 3 1 2.802792436968157 13.764309564308519 12.587578304731014 0 0 0
608 0 1 -1 7.230987857487808 12.757240026967624 13.211342298203267 0 0 0
697 0 3 1 6.889614858141071 14.681005838655572 11.802717213862575 0 0 0
693 0 1 -1 12.302989506118184 15.315515137251616 11.6552847135715 0 0 0
983 0 1 -1 12.369463814520019 12.574677700886719 14.495690596804558 0 0 0
1079 0 1 -1 14.823367890206788 12.592055432452078 11.293884881955801 0 0 0
978 0 3 1 13.348313540194916 13.813470637225365 12.753492670751076 0 0 0
598 0 1 -1 14.737391114448288 15.579751640960499 14.37437352518949 0 0 0
980 0 3 1 17.209044784371713 12.57980251908532 12.074437895303163 0 0 0
982 0 1 -1 18.096649354178837 14.626557616123648 13.005259110487838 0 0 0
1362 0 3 1 19.814165334353447 13.191646723280483 11.92950311384799 0 0 0
1366 0 1 -1 21.521824776361655 14.832964619302103 12.406756020439502 0 0 0
1469 0 1 -1 1.9659606896974577 17.82721554832809 14.340827796463266 1 0 0
599 0 1 -1 5.086133282562765 16.168744295087087 11.49772803849157 0 0 0
306 0 3 1 4.137849480910034 17.33628771244665 13.204664768637588 0 0 0
695 0 1 -1 8.680540939041071 16.084596383382213 12.637044882373019 0 0 0
700 0 2 1 7.297543143602242 18.982246254329404 12.382089415577234 0 0 0
691 0 3 1 10.621783990430668 16.85299452370956 11.638032636937776 0 0 0
1076 0 2 1 15.317636988951508 17.45835546105543 11.281041478440947 0 0 0
1465 0 3 1 19.809111696673327 16.417575649655276 12.198615359751656 0 0 0
1376 0 1 -1 19.884306208475422 17.418447959462263 14.235172217747522 0 0 0
1459 0 3 1 1.4977878539589673 19.6425276581815 12.895889221107144 1 0 0
1171 0 3 1 -0.8290693766607573 21.90121137793185 13.070563077188144 1 -1 0
311 0 1 -1 -0.3788643816359829 20.057557251167815 11.893242610103673 0 0 0
310 0 1 -1 4.012850192166643 19.533191953107064 11.971375532306581 0 0 0
316 0 3 1 4.619132130642716 21.39415778186299 13.422446282881769 0 0 0
694 0 1 -1 10.145943055039426 19.45376844375721 11.604665649966272 0 0 0
793 0 2 1 10.956434884446809 21.144596381511363 14.085497689087319 0 -1 0
1085 0 1 -1 15.843682400261018 19.39056593784437 13.865621609044414 0 0 0
1462 0 1 -1 21.3627424248209 22.56945237738179 14.263737051630372 0 0 0
1458 0 2 1 20.732298107453623 21.399118211030178 11.529246866066444 0 0 0
32 0 1 -1 1.9206389884655177 2.0861705394704675 15.545198469228048 0 0 0
31 0 1 -1 -0.8379580375808999 0.20502185480653456 17.555896771956206 0 0 0
27 0 2 1 4.6690868051844685 1.2883970742241515 16.828716738076466 0 0 0
28 0 3 1 8.078071855795361 -0.497917417774832 14.713851911447684 0 0 0
416 0 1 -1 7.184521779368552 1.65782080412643 14.858736779432025 0 0 0
409 0 3 1 9.618490292895114 2.1093208219736543 14.635567749309676 0 0 0
1088 0 1 -1 9.739386944441096 -0.2360332126768352 16.706774150030938 0 1 0
804 0 2 1 13.226356999638405 0.9605606681585392 17.201614424652146 0 0 0
1170 0 2 1 17.848229604306326 1.1695557368477765 15.363437095980437 0 0 0
1277 0 1 -1 20.469638782267346 2.291037469543884 15.70012241135667 0 0 0
1180 0 3 1 21.342307979627947 -0.02573186450583398 16.13841576762045 0 0 0
18 0 3 1 2.1440876588104048 4.165359386668866 15.961500094357472 0 0 0
26 0 3 1 0.20496829438653874 2.399821645987076 17.22487641657713 0 0 0
119 0 1 -1 -0.10300383075132458 4.681539982921037 16.531232993185032 0 0 0
511 0 1 -1 4.484079559566424 4.330652899965971 16.495434725375507 0 0 0