LAMMPS (29 Sep 2021 - Update 3)
OMP_NUM_THREADS environment is not set. Defaulting to 1 thread. (src/comm.cpp:98)
  using 1 OpenMP thread(s) per MPI task
Reading data file ...
  orthogonal box = (0.0000000 0.0000000 0.0000000) to (15.866041 15.852264 77.123517)
  2 by 1 by 8 MPI processor grid
  reading atoms ...
  864 atoms
Finding 1-2 1-3 1-4 neighbors ...
  special bond factors lj:    0        0        0       
  special bond factors coul:  0        0        0       
     0 = max # of 1-2 neighbors
     0 = max # of 1-3 neighbors
     0 = max # of 1-4 neighbors
     1 = max # of special neighbors
  special bonds CPU = 0.001 seconds
  read_data CPU = 0.026 seconds
Neighbor list info ...
  update every 1 steps, delay 10 steps, check yes
  max neighbors/atom: 2000, page size: 100000
  master list distance cutoff = 6.22
  ghost atom cutoff = 6.22
  binsize = 3.11, bins = 6 6 25
  1 neighbor lists, perpetual/occasional/extra = 1 0 0
  (1) pair quip, perpetual
      attributes: full, newton on
      pair build: full/bin
      stencil: full/bin/3d
      bin: standard
Setting up Verlet run ...
  Unit style    : metal
  Current step  : 0
  Time step     : 0.001
Per MPI rank memory allocation (min/avg/max) = 8.889 | 8.906 | 8.916 Mbytes
Step Temp PotEng TotEng Press Volume c_msd[4] 
       0            0   -8878.9247   -8878.9247   -11708.833    19397.542            0 
      10    108.80145    -8891.078    -8878.941   -13519.947    19397.542 0.00037756483 
      20    255.99871   -8907.5101   -8878.9531   -15433.074    19397.542  0.004636157 
      30    288.56988   -8911.1358   -8878.9454   -14361.122    19397.542  0.015943357 
      40    289.10053   -8911.1934   -8878.9438   -12512.136    19397.542  0.032214776 
      50    304.26419   -8912.8839   -8878.9428   -12190.839    19397.542  0.050010352 
      60    330.67215   -8915.8353   -8878.9484    -12512.07    19397.542  0.067008738 
      70    319.75479    -8914.613   -8878.9439   -12021.554    19397.542  0.084636553 
      80     311.7171   -8913.7131   -8878.9406   -11242.174    19397.542   0.10335882 
      90    344.97025   -8917.4272   -8878.9452   -11377.847    19397.542   0.12285636 
     100    369.47631   -8920.1625   -8878.9469   -11460.202    19397.542   0.14373353 
     110    369.44402   -8920.1551   -8878.9431   -10737.559    19397.542   0.16547428 
     120    381.04496   -8921.4513   -8878.9452   -10101.733    19397.542   0.18697263 
     130    387.01967   -8922.1174   -8878.9447    -9853.945    19397.542   0.20927079 
     140    390.46305   -8922.5002   -8878.9434   -10154.629    19397.542   0.23274757 
     150    401.17379   -8923.6966   -8878.9451   -10935.233    19397.542   0.25686229 
     160    405.60936   -8924.1923    -8878.946   -11533.497    19397.542   0.28181117 
     170    403.00983   -8923.9035   -8878.9472   -11313.905    19397.542   0.30705714 
     180    385.93942   -8921.9971   -8878.9449   -10395.352    19397.542   0.33328028 
     190    384.55592   -8921.8429   -8878.9451   -9702.4152    19397.542    0.3615061 
     200    397.89654   -8923.3338   -8878.9478   -9508.3306    19397.542   0.39138176 
     210    403.74057   -8923.9838    -8878.946   -9854.3562    19397.542   0.41959204 
     220    419.25516   -8925.7147   -8878.9462   -11120.155    19397.542   0.44190424 
     230    437.64496   -8927.7678   -8878.9478   -12741.979    19397.542   0.46059951 
     240    436.22365   -8927.6096   -8878.9482   -13773.271    19397.542   0.48016288 
     250     417.4692   -8925.5154   -8878.9461   -14188.084    19397.542   0.50051511 
     260    403.07006   -8923.9093   -8878.9463   -14452.366    19397.542   0.51954432 
     270    390.78955   -8922.5388   -8878.9456   -14869.677    19397.542   0.53842732 
     280    390.91941   -8922.5534   -8878.9458   -15753.944    19397.542   0.55789535 
     290    394.53071   -8922.9579   -8878.9474   -16866.473    19397.542   0.57907365 
     300    385.46639   -8921.9447   -8878.9454   -17556.881    19397.542   0.60332818 
     310    388.07639   -8922.2367   -8878.9462   -18102.563    19397.542   0.62988844 
     320    395.22438   -8923.0346   -8878.9467   -18476.923    19397.542   0.65693198 
     330     392.7193   -8922.7554    -8878.947   -18634.964    19397.542   0.68294096 
     340    387.36548    -8922.158   -8878.9468   -18928.114    19397.542    0.7064488 
     350    383.70376     -8921.75   -8878.9472   -19255.038    19397.542   0.72809194 
     360    380.16279   -8921.3526   -8878.9449   -19764.905    19397.542   0.74756432 
     370    391.53302   -8922.6238   -8878.9477   -20433.416    19397.542   0.76345228 
     380    397.18733   -8923.2529   -8878.9461   -20848.612    19397.542   0.77799013 
     390    399.66038   -8923.5327     -8878.95   -20962.623    19397.542    0.7926845 
     400    376.74168   -8920.9703   -8878.9442   -20594.318    19397.542   0.80792627 
     410    384.01385   -8921.7861   -8878.9488   -20827.442    19397.542   0.82090067 
     420    385.42711   -8921.9432   -8878.9482    -21282.02    19397.542   0.83289421 
     430    375.82197   -8920.8694   -8878.9459   -21749.833    19397.542   0.84474346 
     440    377.40301   -8921.0478   -8878.9479   -22280.425    19397.542   0.85654263 
     450    373.39276   -8920.5987   -8878.9462   -22358.315    19397.542   0.87121917 
     460    380.55104   -8921.3982   -8878.9472   -22127.174    19397.542   0.88923864 
     470    389.08947   -8922.3531   -8878.9496   -21563.629    19397.542   0.90990069 
     480    377.88025   -8921.0989   -8878.9458   -20903.426    19397.542   0.93174236 
     490    381.74982   -8921.5319   -8878.9472   -20620.986    19397.542   0.94962563 
     500    394.14575   -8922.9156   -8878.9481   -20486.731    19397.542   0.96309083 
     510    397.04898   -8923.2389   -8878.9475   -19997.235    19397.542   0.97658553 
     520    399.82595   -8923.5491    -8878.948   -19535.484    19397.542   0.99241283 
     530    404.27704   -8924.0446   -8878.9469    -19115.46    19397.542    1.0084992 
     540     411.3451   -8924.8362     -8878.95   -18661.849    19397.542    1.0226069 
     550    394.09812   -8922.9082    -8878.946   -17821.103    19397.542    1.0374953 
     560    386.81962   -8922.0987   -8878.9484   -17144.624    19397.542    1.0531551 
     570    383.04436   -8921.6747   -8878.9456   -16711.306    19397.542    1.0690946 
     580    397.22268   -8923.2587   -8878.9479   -16702.646    19397.542    1.0866029 
     590    408.28446   -8924.4929   -8878.9481   -16623.668    19397.542    1.1074158 
     600    405.74477   -8924.2095   -8878.9481   -16314.107    19397.542    1.1302748 
     610    396.02325   -8923.1251   -8878.9481    -15628.66    19397.542    1.1519665 
     620     395.3341   -8923.0495   -8878.9494   -15051.831    19397.542    1.1694303 
     630    394.27036   -8922.9318   -8878.9503   -14512.907    19397.542    1.1828305 
     640    383.62649   -8921.7417   -8878.9476   -14067.198    19397.542    1.1945401 
     650    385.14193   -8921.9112    -8878.948   -13839.463    19397.542    1.2068311 
     660     395.4713   -8923.0651   -8878.9497   -13755.797    19397.542    1.2218962 
     670     396.9724   -8923.2312   -8878.9483   -13681.042    19397.542    1.2411479 
     680    400.76426   -8923.6562   -8878.9504   -13529.754    19397.542    1.2649597 
     690    395.59922   -8923.0782   -8878.9485   -13202.541    19397.542    1.2892968 
     700    393.08673   -8922.7984    -8878.949    -12863.36    19397.542    1.3108518 
     710    392.46287   -8922.7295   -8878.9497   -12776.215    19397.542    1.3306314 
     720    392.69983   -8922.7538   -8878.9476   -12960.731    19397.542    1.3493343 
     730    407.70626    -8924.431   -8878.9507   -13617.908    19397.542    1.3652761 
     740    418.60831   -8925.6458   -8878.9494   -14182.857    19397.542    1.3758719 
     750    427.35697   -8926.6222   -8878.9499   -14411.802    19397.542    1.3817369 
     760    426.23067   -8926.4956    -8878.949   -14240.457    19397.542    1.3874968 
     770    425.68986   -8926.4355   -8878.9492   -14121.142    19397.542    1.3956033 
     780    424.34662   -8926.2861   -8878.9496   -14199.692    19397.542    1.4059418 
     790    416.51178   -8925.4118   -8878.9493   -14348.579    19397.542    1.4172819 
     800    406.85203   -8924.3329   -8878.9479   -14603.708    19397.542    1.4293586 
     810     409.3926   -8924.6176   -8878.9492   -14954.594    19397.542    1.4437899 
     820    411.52943   -8924.8561   -8878.9494   -15227.004    19397.542     1.461671 
     830    414.76526   -8925.2161   -8878.9484   -15348.177    19397.542    1.4822988 
     840    425.47297   -8926.4126   -8878.9505   -15497.059    19397.542    1.5061095 
     850    424.10961   -8926.2589   -8878.9489    -15461.05    19397.542    1.5339208 
     860    425.84903   -8926.4531    -8878.949   -15668.017    19397.542    1.5638872 
     870    428.28778   -8926.7265   -8878.9503   -15975.954    19397.542    1.5941429 
     880    422.32484   -8926.0597   -8878.9487   -16050.391    19397.542    1.6254163 
     890    420.59441   -8925.8681   -8878.9502   -16210.368    19397.542    1.6579317 
     900    412.78354   -8924.9958   -8878.9492   -16186.118    19397.542    1.6917804 
     910    408.88335   -8924.5603   -8878.9488   -16398.021    19397.542    1.7253326 
     920    415.25495   -8925.2723     -8878.95   -16866.947    19397.542    1.7566903 
     930    417.79568   -8925.5555   -8878.9498    -17314.63    19397.542    1.7866576 
     940    414.15774   -8925.1502   -8878.9503   -17816.895    19397.542    1.8175362 
     950    410.14766   -8924.7024   -8878.9498   -18397.528    19397.542     1.850555 
     960    412.13206   -8924.9218   -8878.9478   -18864.984    19397.542    1.8837942 
     970    427.90234   -8926.6835   -8878.9503   -19165.223    19397.542    1.9147148 
     980    431.11936    -8927.043    -8878.951    -19021.79    19397.542    1.9457246 
     990    415.64991   -8925.3145   -8878.9482   -18606.767    19397.542    1.9812421 
    1000    413.92707   -8925.1233   -8878.9491   -18513.829    19397.542    2.0201072 
    1010    417.45395   -8925.5177     -8878.95   -18558.895    19397.542    2.0574524 
    1020    414.66605   -8925.2045   -8878.9479    -18540.13    19397.542    2.0909232 
    1030    425.32279   -8926.3944    -8878.949   -18804.281    19397.542    2.1200334 
    1040    437.39791    -8927.743   -8878.9506    -19174.44    19397.542    2.1461906 
    1050    432.04437    -8927.144   -8878.9488   -19430.964    19397.542    2.1724444 
    1060    423.10855   -8926.1471   -8878.9487    -19670.97    19397.542     2.200914 
    1070    416.30819    -8925.389   -8878.9492   -19752.208    19397.542     2.232564 
    1080    410.19009   -8924.7058   -8878.9485   -19471.789    19397.542    2.2656179 
    1090    411.43188   -8924.8454   -8878.9496   -18927.842    19397.542    2.2963807 
    1100    413.58688   -8925.0849   -8878.9486   -18540.027    19397.542    2.3238349 
    1110    425.71996   -8926.4384   -8878.9486   -18620.545    19397.542    2.3474636 
    1120    443.01807   -8928.3709   -8878.9516   -18883.908    19397.542    2.3679172 
    1130    437.42575   -8927.7454   -8878.9499   -18767.479    19397.542    2.3882255 
    1140    422.48256   -8926.0773   -8878.9487   -18476.767    19397.542    2.4089666 
    1150    414.07643   -8925.1393   -8878.9485   -18282.798    19397.542    2.4284943 
    1160    416.01416   -8925.3558   -8878.9488   -18291.885    19397.542     2.446853 
    1170    419.66714   -8925.7642   -8878.9497   -18446.717    19397.542    2.4644412 
    1180    424.21945   -8926.2706   -8878.9483    -18449.36    19397.542    2.4806419 
    1190    440.19598   -8928.0557   -8878.9512   -18343.062    19397.542    2.4945267 
    1200    440.38662   -8928.0752   -8878.9494   -17908.359    19397.542     2.507228 
    1210    440.40752   -8928.0774   -8878.9493   -17509.071    19397.542    2.5196997 
    1220    445.29341   -8928.6232   -8878.9501   -17433.008    19397.542    2.5321836 
    1230    444.31811   -8928.5138   -8878.9494   -17404.254    19397.542    2.5456285 
    1240    444.21916   -8928.5028   -8878.9495   -17567.287    19397.542    2.5617678 
    1250    447.95301   -8928.9197   -8878.9499   -17998.888    19397.542    2.5810013 
    1260    447.05056     -8928.82   -8878.9509   -18113.089    19397.542    2.6027835 
    1270    433.76409   -8927.3363   -8878.9493   -17647.746    19397.542    2.6267411 
    1280    426.49744   -8926.5249   -8878.9485   -17215.404    19397.542    2.6522665 
    1290    438.76938   -8927.8949   -8878.9495   -17215.004    19397.542     2.679609 
    1300     454.8554   -8929.6913   -8878.9515   -17412.029    19397.542    2.7096074 
    1310    451.74789   -8929.3435   -8878.9504   -17515.094    19397.542    2.7419599 
    1320    440.03726   -8928.0361   -8878.9493    -17582.78    19397.542    2.7732724 
    1330    433.51813    -8927.309   -8878.9494   -17627.787    19397.542    2.7991894 
    1340    430.66307   -8926.9918   -8878.9507   -17406.648    19397.542    2.8192899 
    1350    422.06307   -8926.0311   -8878.9493    -17030.68    19397.542    2.8369839 
    1360    423.68793   -8926.2128   -8878.9498   -16872.793    19397.542    2.8564726 
    1370    432.23825   -8927.1671   -8878.9502   -16941.721    19397.542    2.8798412 
    1380    440.61409   -8928.1014   -8878.9502   -17160.411    19397.542     2.904214 
    1390    442.38617   -8928.3005   -8878.9516   -17288.698    19397.542    2.9262872 
    1400    432.82497   -8927.2303    -8878.948   -17111.965    19397.542    2.9462931 
    1410    443.20721   -8928.3906   -8878.9502   -17379.272    19397.542    2.9656964 
    1420     452.8574   -8929.4692   -8878.9523   -17581.285    19397.542    2.9866189 
    1430    440.33742   -8928.0699   -8878.9496    -17078.18    19397.542    3.0107644 
    1440    434.09539   -8927.3728   -8878.9488   -16559.852    19397.542    3.0372306 
    1450    446.59797     -8928.77   -8878.9513   -16458.202    19397.542    3.0634597 
    1460    455.16552   -8929.7248   -8878.9504   -16509.198    19397.542    3.0883146 
    1470     460.5176    -8930.323   -8878.9516   -16639.411    19397.542    3.1117695 
    1480    455.78137    -8929.792   -8878.9489   -16643.605    19397.542    3.1332037 
    1490    461.66937   -8930.4506   -8878.9507   -16632.215    19397.542     3.152331 
    1500    464.06114   -8930.7172   -8878.9504   -16316.323    19397.542    3.1724877 
    1510    464.69685   -8930.7871   -8878.9495    -16148.36    19397.542    3.1960897 
    1520    471.22077   -8931.5167   -8878.9514   -16208.841    19397.542    3.2225013 
    1530    471.47122   -8931.5429   -8878.9496   -16597.639    19397.542    3.2496574 
    1540    479.04999   -8932.3903   -8878.9516   -17340.131    19397.542    3.2743864 
    1550    475.60674   -8932.0055   -8878.9508   -17872.304    19397.542    3.2971604 
    1560    465.76065   -8930.9064   -8878.9501   -17822.552    19397.542    3.3221892 
    1570    460.06152    -8930.271   -8878.9505    -17442.47    19397.542    3.3512444 
    1580    459.40082   -8930.1971   -8878.9502   -16941.542    19397.542    3.3813068 
    1590    460.93829   -8930.3707   -8878.9523   -16350.345    19397.542    3.4083736 
    1600     448.2201   -8928.9504   -8878.9508   -15603.607    19397.542    3.4316634 
    1610     443.9941   -8928.4772    -8878.949    -15275.86    19397.542    3.4534934 
    1620    463.51034   -8930.6582    -8878.953   -15593.563    19397.542    3.4766509 
    1630    474.66564   -8931.9011   -8878.9514   -16126.405    19397.542    3.5034224 
    1640    481.75389   -8932.6918   -8878.9514   -16542.721    19397.542    3.5333548 
    1650    479.37897   -8932.4264    -8878.951   -16541.998    19397.542    3.5648125 
    1660    474.97776   -8931.9337   -8878.9492   -16284.173    19397.542    3.5952514 
    1670    481.99089    -8932.719   -8878.9522   -15990.017    19397.542    3.6221631 
    1680      474.213   -8931.8498   -8878.9506   -15457.654    19397.542    3.6454728 
    1690    462.13083    -8930.502   -8878.9506   -14731.806    19397.542     3.665115 
    1700    458.63731   -8930.1109   -8878.9492   -14389.905    19397.542    3.6801149 
    1710    473.55465   -8931.7771   -8878.9513   -14547.389    19397.542    3.6915037 
    1720    483.59001    -8932.897   -8878.9518   -15013.331    19397.542    3.7021408 
    1730    481.36556   -8932.6472   -8878.9501   -15645.926    19397.542    3.7142289 
    1740    484.05437   -8932.9483   -8878.9513   -16474.749    19397.542    3.7288904 
    1750    482.16869   -8932.7383   -8878.9516   -16722.219    19397.542     3.747119 
    1760    470.26243   -8931.4082   -8878.9497   -16475.495    19397.542    3.7689551 
    1770    472.75321   -8931.6852   -8878.9489   -16480.419    19397.542    3.7930019 
    1780    495.80424   -8934.2609   -8878.9532   -16801.632    19397.542     3.817904 
    1790    498.29189   -8934.5359   -8878.9506   -17030.699    19397.542    3.8432118 
    1800    497.22115   -8934.4163   -8878.9505   -17233.599    19397.542    3.8677962 
    1810    498.13201   -8934.5195   -8878.9521   -17294.852    19397.542    3.8916583 
    1820    485.17576   -8933.0725   -8878.9504   -16971.976    19397.542    3.9157232 
    1830    479.44537   -8932.4337   -8878.9509   -16627.564    19397.542    3.9391486 
    1840    478.88134   -8932.3712   -8878.9513   -16398.764    19397.542    3.9621449 
    1850     478.6415   -8932.3435   -8878.9503   -16406.049    19397.542    3.9857213 
    1860     486.1211   -8933.1789   -8878.9514   -16705.544    19397.542    4.0086822 
    1870    492.79459   -8933.9238   -8878.9519   -17221.514    19397.542    4.0297149 
    1880    491.36379   -8933.7648   -8878.9525   -18037.772    19397.542    4.0499732 
    1890    475.70955   -8932.0166   -8878.9505   -18910.363    19397.542    4.0709101 
    1900    464.92588   -8930.8141   -8878.9509   -19819.272    19397.542    4.0929306 
    1910    455.59431   -8929.7727   -8878.9505   -20229.987    19397.542    4.1160109 
    1920    452.87672   -8929.4684   -8878.9493   -20242.611    19397.542    4.1384657 
    1930    467.97161   -8931.1539   -8878.9509   -20369.825    19397.542    4.1581839 
    1940    485.34862   -8933.0926   -8878.9512   -20514.477    19397.542    4.1756159 
    1950    495.78252   -8934.2578   -8878.9525   -20428.878    19397.542    4.1936772 
    1960    500.11778   -8934.7389     -8878.95   -20591.437    19397.542    4.2145461 
    1970    511.99695   -8936.0681    -8878.954   -21344.221    19397.542    4.2363696 
    1980    499.23942   -8934.6421   -8878.9512   -21654.428    19397.542    4.2540635 
    1990    487.56603   -8933.3391   -8878.9504    -21588.86    19397.542    4.2657075 
    2000    485.14508   -8933.0707    -8878.952   -21134.343    19397.542    4.2770463 
Loop time of 1505.4 on 16 procs for 2000 steps with 864 atoms

Performance: 0.115 ns/day, 209.083 hours/ns, 1.329 timesteps/s
96.7% CPU use with 16 MPI tasks x 1 OpenMP threads

MPI task timing breakdown:
Section |  min time  |  avg time  |  max time  |%varavg| %total
---------------------------------------------------------------
Pair    | 308.07     | 742.37     | 1504.7     |1170.2 | 49.31
Bond    | 0.00013518 | 0.00037649 | 0.00082493 |   0.0 |  0.00
Neigh   | 0.014093   | 0.029726   | 0.062451   |   7.8 |  0.00
Comm    | 0.45731    | 664.35     | 1057.3     |1189.6 | 44.13
Output  | 0.14004    | 30.991     | 64.682     | 445.9 |  2.06
Modify  | 0.0086522  | 0.010384   | 0.012147   |   0.9 |  0.00
Other   |            | 67.64      |            |       |  4.49

Nlocal:        54.0000 ave          90 max          29 min
Histogram: 3 3 0 2 3 1 0 2 0 2
Nghost:        493.750 ave         643 max         369 min
Histogram: 3 1 0 3 2 2 1 2 0 2
Neighs:         0.00000 ave           0 max           0 min
Histogram: 16 0 0 0 0 0 0 0 0 0
FullNghs:      2706.00 ave        5944 max         890 min
Histogram: 6 0 2 1 3 0 2 0 0 2

Total # of neighbors = 43296
Ave neighs/atom = 50.111111
Ave special neighs/atom = 0.0000000
Neighbor list builds = 200
Dangerous builds = 200
Setting up Verlet run ...
  Unit style    : metal
  Current step  : 2000
  Time step     : 0.001
Per MPI rank memory allocation (min/avg/max) = 8.894 | 8.909 | 8.920 Mbytes
Step Temp PotEng TotEng Press Volume c_msd[4] 
    2000        862.5   -8933.0707   -8836.8575   -18816.427    19397.542    4.2770463 
    2010    756.92895   -8921.4174   -8836.9808   -15968.379    19387.463    4.3035147 
    2020    613.33424   -8905.5349   -8837.1165   -11347.683    19360.084    4.3302128 
    2030    635.42325   -8907.8901   -8837.0076   -10144.136    19320.044    4.3452257 
    2040    677.04428   -8912.1155   -8836.5901   -9657.9062    19269.148    4.3478216 
    2050    695.09018   -8913.5407   -8836.0024   -8064.0992    19208.373    4.3428159 
    2060    707.99315   -8914.3313   -8835.3536   -5750.2571    19139.849     4.333023 
    2070    718.57584   -8914.8555   -8834.6973   -3315.2605    19066.577    4.3222468 
    2080    720.68374   -8914.4121   -8834.0188   -711.73271    18991.772    4.3124161 
    2090    709.81017   -8912.4227   -8833.2423    2228.3446    18918.759     4.301371 
    2100    706.63064   -8911.0911   -8832.2654    5250.6814    18850.956    4.2865911 
    2110    719.39791   -8911.2917   -8831.0418    7812.4472    18791.563    4.2670988 
    2120    757.63427   -8914.1328   -8829.6175    9710.2929    18742.996    4.2447471 
    2130    765.61995   -8913.5116   -8828.1055    11409.055    18706.753    4.2238728 
    2140    754.23287   -8910.7877   -8826.6519    12115.747    18683.776    4.2051028 
    2150     774.9828   -8911.7525    -8825.302      11244.2    18673.936    4.1864284 
    2160    792.67737   -8912.4645   -8824.0402      9968.44    18675.722    4.1681993 
    2170    794.32938   -8911.5026   -8822.8939    8785.0245    18687.262    4.1521545 
    2180    768.58576   -8907.5879    -8821.851    7604.9961    18706.887    4.1397832 
    2190    742.08504   -8903.6342   -8820.8535    5828.0923    18732.986    4.1322297 
    2200    779.88941   -8906.7937   -8819.7959     2866.734    18763.445    4.1302812 
    2210    800.95838   -8908.0063   -8818.6582    923.19137     18795.36    4.1356523 
    2220    786.99441   -8905.3455   -8817.5551    341.40995    18826.774    4.1477176 
    2230    793.52753    -8905.003   -8816.4838    58.961416    18857.059    4.1624699 
    2240    784.21705   -8902.8793   -8815.3987   -198.54265    18885.994    4.1790499 
    2250    799.48246    -8903.466   -8814.2825   -994.73889     18913.34    4.1983964 
    2260    802.04949   -8902.5844   -8813.1146   -1430.5002    18938.483    4.2215952 
    2270    803.54536    -8901.583   -8811.9463   -1553.1438    18961.083    4.2484863 
    2280    825.59997   -8902.8723   -8810.7753   -1827.4476    18981.108    4.2778514 
    2290    827.78776   -8901.9612   -8809.6203   -1702.4048    18998.482    4.3085596 
    2300    823.00144   -8900.3205   -8808.5135   -1563.5577    19013.418     4.334978 
    2310    819.38748   -8898.8447   -8807.4408   -1662.2519    19026.159    4.3527846 
    2320    825.61063   -8898.4969   -8806.3988   -1887.9168    19036.716    4.3616714 
    2330    837.46339   -8898.7984   -8805.3781   -1846.7652    19044.976    4.3640674 
    2340    850.07182   -8899.2149   -8804.3881   -1613.8872    19051.073    4.3637256 
    2350    857.74071   -8899.1229   -8803.4407   -1870.4133    19055.268    4.3658453 
    2360    848.85491   -8897.2426   -8802.5516   -2224.4222    19057.393    4.3692626 
    2370    844.69978   -8895.9454   -8801.7179   -2519.0096    19057.161    4.3688145 
    2380     849.1449   -8895.6487   -8800.9253   -2996.0903     19054.27    4.3610398 
    2390    836.16935   -8893.4435   -8800.1675   -2682.7738     19048.41    4.3457521 
    2400    864.93589   -8895.8995   -8799.4146   -2359.2037    19039.889    4.3274501 
    2410     883.3281   -8897.1907   -8798.6541   -1221.2914    19029.207    4.3100022 
    2420    865.16835   -8894.4442   -8797.9334    394.98003    19017.562    4.2929711 
    2430    877.16525   -8895.0933   -8797.2442    722.01418    19006.473    4.2785015 
    2440    889.91427   -8895.8503    -8796.579    337.39237    18996.319    4.2696836 
    2450    902.15161   -8896.6138   -8795.9774    687.66644    18986.833    4.2678649 
    2460    906.17276   -8896.5568   -8795.4719    1551.2812    18978.328    4.2713398 
    2470    906.24277   -8896.1827     -8795.09    2020.1611    18971.595    4.2759141 
    2480     909.7631   -8896.3178   -8794.8323    1706.1375    18967.029    4.2807727 
    2490    901.22756     -8895.21   -8794.6767    1374.4427    18964.354    4.2887595 
    2500    877.47305   -8892.4742   -8794.5907     704.7573    18963.131    4.2995536 
    2510    867.54432   -8891.3036   -8794.5278    167.39146    18962.702    4.3097244 
    2520    917.46755   -8896.8546   -8794.5097   -690.77732      18962.4    4.3163438 
    2530    932.92101   -8898.6826   -8794.6139   -299.02096    18961.534    4.3194102 
    2540     909.9212    -8896.381   -8794.8779    162.86709    18960.382    4.3174197 
    2550    909.16319   -8896.6858   -8795.2673   -627.11639    18959.297    4.3088722 
    2560    914.93869   -8897.8358   -8795.7731   -1985.3124    18957.539    4.2992112 
    2570    931.94147   -8900.3865    -8796.427    -3647.976    18953.719    4.2956788 
    2580    924.63128   -8900.3984   -8797.2544   -4207.2068    18946.289    4.3008951 
    2590    888.41894   -8897.2932   -8798.1887   -3102.6067    18934.767    4.3103944 
    2600    880.46907   -8897.3521   -8799.1344   -1980.1593    18920.197    4.3183787 
    2610    901.08116   -8900.6009   -8800.0839   -1861.9639    18903.686    4.3225828 
    2620    911.16583   -8902.7067   -8801.0648   -1537.7949    18885.532    4.3221734 
    2630     913.4334   -8903.9668   -8802.0719   -1087.3404    18866.086    4.3189391 
    2640    914.89489   -8905.1606   -8803.1027   -459.18372    18845.844    4.3197387 
    2650    907.24931   -8905.3497   -8804.1447    762.20526    18825.514    4.3273698 
    2660    891.20019   -8904.5851   -8805.1704    1722.1399    18806.251    4.3395946 
    2670    893.22697   -8905.7929    -8806.152    1932.4211    18788.979    4.3533079 
    2680    932.71674   -8911.2154   -8807.1694    1927.1626    18773.914    4.3652015 
    2690     932.6037   -8912.3042   -8808.2708    2463.0835    18761.079    4.3772587 
    2700    905.84766   -8910.4448   -8809.3961    3208.5341    18750.952    4.3915822 
    2710    875.71316   -8908.1529   -8810.4658    3721.8106    18744.221    4.4047252 
    2720    859.83554    -8907.337    -8811.421    3139.9567    18741.264    4.4144475 
    2730    877.13868   -8910.1365   -8812.2904      1790.41    18741.463    4.4223974 
    2740    883.99638   -8911.7274   -8813.1163    710.55326    18743.511    4.4291348 
    2750    876.29553   -8911.6692   -8813.9171   -159.96599    18746.249     4.435204 
    2760    866.57341   -8911.3456    -8814.678   -527.77194    18748.834    4.4418777 
    2770    875.48593   -8913.0506   -8815.3888   -653.99939    18750.888    4.4505828 
    2780    910.80006   -8917.7034   -8816.1023    -1171.294     18752.22    4.4646408 
    2790    903.18506   -8917.6379   -8816.8863   -1022.8472    18752.412     4.486975 
    2800    865.12038   -8914.1977   -8817.6923     79.82077    18751.655     4.516786 
    2810    877.10419   -8916.3143    -8818.472    -167.2575    18750.851    4.5497756 
    2820    893.23904   -8918.9087   -8819.2665   -460.37217    18749.897    4.5828416 
    2830    870.33246   -8917.1418   -8820.0549    53.599114    18748.575    4.6151162 
    2840    867.76589   -8917.6216    -8820.821   -157.98558    18747.254    4.6454768 
    2850    858.68716   -8917.3294   -8821.5415   -1068.8155    18745.741    4.6752084 
    2860    851.28122   -8917.1761   -8822.2144   -2238.4183    18743.153    4.7075184 
    2870       845.77   -8917.1809    -8822.834   -2547.8097    18738.402    4.7437858 
    2880    841.30258   -8917.2459   -8823.3974    -2394.954    18731.163    4.7834526 
    2890    856.39028   -8919.4557   -8823.9241   -2720.5486    18721.523    4.8247705 
    2900    877.93133   -8922.3788   -8824.4443   -3016.0998    18709.231    4.8660229 
    2910    894.85006   -8924.8345   -8825.0126   -2713.7284     18694.09    4.9049071 
    2920    872.22252    -8922.913   -8825.6153   -1761.5554    18676.467    4.9412533 
    2930      869.855   -8923.2456    -8826.212   -1288.3001     18657.24    4.9758475 
    2940    869.12482   -8923.7408   -8826.7886    -1226.491    18636.935    5.0064132 
    2950    868.84627   -8924.2778   -8827.3567   -1178.4477    18615.676    5.0313523 
    2960    866.84192     -8924.62   -8827.9224   -857.39268    18593.561    5.0537951 
    2970    863.01101   -8924.7412    -8828.471   -778.31178    18570.894    5.0806079 
    2980    889.10694    -8928.213   -8829.0318    -1184.547    18547.756    5.1160689 
    2990     893.3286   -8929.2939   -8829.6417   -1251.6547    18523.829    5.1580517 
    3000    884.52213   -8928.9679   -8830.2982   -1558.2422    18499.018    5.1978802 
    3010    883.27804   -8929.5173   -8830.9863   -1878.7844    18473.111     5.230459 
    3020    875.01414   -8929.2889   -8831.6798   -1872.0816    18445.824    5.2575053 
    3030    865.34722   -8928.8842   -8832.3534   -1116.8597    18417.246    5.2839667 
    3040    867.58274     -8929.77   -8832.9899   -535.18926    18388.095    5.3160061 
    3050    913.06745   -8935.5074   -8833.6534   -1269.5974    18358.847    5.3565152 
    3060    941.59352   -8939.4889   -8834.4527   -2379.4957    18328.884    5.4052115 
    3070    918.21245    -8937.807   -8835.3791   -2594.9769    18297.286    5.4596837 
    3080    920.95244   -8939.1114   -8836.3778   -2749.5189    18263.803     5.517821 
    3090    930.42932   -8941.2378    -8837.447   -2794.3049    18228.386    5.5818695 
    3100    915.11702   -8940.6379   -8838.5552   -2828.7441    18191.057    5.6557764 
    3110    907.05095   -8940.8245   -8839.6416   -3008.2934    18151.858    5.7387572 
    3120    931.09104   -8944.5842   -8840.7196   -3696.4778    18110.692    5.8241017 
    3130    948.52887    -8947.675   -8841.8652   -4225.8454    18067.066    5.9095002 
    3140    947.07368   -8948.7026   -8843.0551   -2848.6079      18020.8    5.9978366 
    3150       953.03   -8950.5477   -8844.2358   -345.19781     17973.27    6.0861013 
    3160    951.14641   -8951.4803   -8845.3785    2118.6727    17926.824    6.1678365 
    3170    949.86184   -8952.4404   -8846.4819    4015.6223    17883.735    6.2408267 
    3180    943.42826   -8952.8076   -8847.5668    4914.0044    17845.609    6.3058179 
    3190    949.59767   -8954.5933   -8848.6642    4524.3346    17813.101    6.3624031 
    3200    978.74065   -8959.0168   -8849.8368    3044.0126    17785.697    6.4111447 
    3210    1004.6366   -8963.2353   -8851.1665     1081.821    17761.891    6.4545638 
    3220    989.36506   -8962.9887   -8852.6235    54.593485    17739.919    6.4944629 
    3230    974.43044   -8962.8164   -8854.1172   -922.14783     17718.71     6.528306 
    3240    982.37157   -8965.2052   -8855.6201    -1974.848    17697.362    6.5528185 
    3250    975.49503   -8965.9669   -8857.1489   -2123.5355    17675.009    6.5715387 
    3260    951.48541   -8964.7585   -8858.6189   -1436.7537    17651.565    6.5904195 
    3270    952.53984    -8966.299   -8860.0418   -1224.1206     17627.56    6.6149126 
    3280    928.85958   -8965.0083   -8861.3927   -744.01182    17603.262     6.649412 
    3290    932.17308   -8966.6592   -8862.6739    -87.78417    17579.117    6.6951262 
    3300    956.79104   -8970.6914     -8863.96    284.81796    17555.674    6.7498227 
    3310    983.46457   -8975.0444   -8865.3374    1022.2776    17533.274    6.8078985 
    3320      979.551    -8976.083   -8866.8126     2786.512    17512.605    6.8674091 
    3330    970.78119   -8976.6163   -8868.3242    3440.6762    17494.973     6.924332 
    3340    974.86179   -8978.6164   -8869.8691    2599.4141     17480.83    6.9788292 
    3350    964.29259   -8979.0049   -8871.4366    1211.1977    17469.371     7.033676 
    3360    974.87456   -8981.7555   -8873.0068   -205.10868    17459.316    7.0896085 
    3370    982.59654   -8984.2598   -8874.6497   -818.83657    17449.421    7.1477357 
    3380    934.99588   -8980.5417   -8876.2415   -145.88159    17439.209    7.2037102 
    3390    954.10531   -8984.1891   -8877.7572    -628.0816    17429.065    7.2539446 
    3400    958.59597   -8986.2058    -8879.273   -562.61408    17418.735    7.3005465 
    3410    949.39006   -8986.6833   -8880.7774     204.8561    17408.273    7.3474073 
    3420    965.82341    -8990.051    -8882.312    381.50022     17398.23    7.3972064 
    3430    958.42416   -8990.7839   -8883.8702    646.34073    17388.792    7.4488263 
    3440    952.34816   -8991.6649    -8885.429    1471.5233    17380.224    7.5000775 
    3450    942.75394   -8992.1312   -8886.9655    2380.2076    17373.186    7.5507678 
    3460    944.04516   -8993.7869   -8888.4773    2998.5506    17368.374    7.5995367 
    3470    937.67578   -8994.5543   -8889.9551    4086.2105    17366.355     7.646067 
    3480    951.34526   -8997.5572   -8891.4332    3535.2066    17367.783    7.6883404 
    3490    947.57211   -8998.6408   -8892.9377    1968.1165    17372.194    7.7277267 
    3500    956.54129   -9001.1639   -8894.4602    165.30564    17378.195    7.7671089 
    3510     944.1647   -9001.3346   -8896.0116    -274.0975    17384.325    7.8076322 
    3520    907.38234   -8998.7055   -8897.4857    325.13404    17390.165    7.8472069 
    3530    922.11934    -9001.754   -8898.8902    694.01349    17396.139    7.8804351 
    3540    926.10813   -9003.5868    -8900.278    1073.1414    17402.614    7.9038063 
    3550    924.19463    -9004.753   -8901.6577    993.71933    17409.866     7.919685 
    3560    922.83579   -9005.9825   -8903.0388    805.80005     17417.84    7.9330797 
    3570    892.95215   -9003.9946   -8904.3845     1118.322     17426.42    7.9437842 
    3580    872.99997   -9003.0122   -8905.6277    1157.2505    17435.788    7.9488726 
    3590    895.81852   -9006.7365   -8906.8066    1176.9003    17445.981    7.9487736 
    3600    906.57498   -9009.1052   -8907.9754    1632.2779    17457.067     7.944192 
    3610    918.21467    -9011.611   -8909.1828    1688.5781    17469.363    7.9322751 
    3620    916.85656   -9012.7023   -8910.4256    404.14311    17482.783    7.9148495 
    3630    923.60682   -9014.7282   -8911.6984   -637.05649    17496.344      7.89723 
    3640    896.04087   -9012.9289   -8912.9742   -931.75248    17509.154    7.8837749 
    3650    884.47055   -9012.8366   -8914.1726   -1439.5725    17520.896     7.874622 
    3660    944.92581   -9020.7884   -8915.3805   -2557.2942    17531.094    7.8695024 
    3670    962.83165   -9024.1432   -8916.7379   -2804.6559    17538.893    7.8692326 
    3680    896.56969   -9018.1618   -8918.1481   -1416.8137    17544.223    7.8716929 
    3690    857.26873   -9015.0503   -8919.4206   -911.11412     17548.12     7.871232 
    3700    866.65184   -9017.2093    -8920.533   -1620.2405    17551.046    7.8672535 
    3710    912.06053   -9023.3488    -8921.607   -2691.1932    17552.448    7.8642111 
    3720     915.8215   -9024.9136   -8922.7524    -2665.714    17551.512    7.8666117 
    3730    879.01892   -9021.9683   -8923.9125   -1188.1336    17548.352    7.8727966 
    3740    869.32388   -9021.9875   -8925.0131    -29.56777     17544.16     7.879054 
    3750    858.61639   -9021.7792   -8925.9993    986.69772    17540.026    7.8886261 
    3760    860.97966   -9022.9187   -8926.8751    1742.6114    17536.841    7.9038829 
    3770     878.8998   -9025.7506    -8927.708    2077.5089    17535.219    7.9196947 
    3780     894.0395   -9028.2784    -8928.547    1920.4458    17535.438    7.9290051 
    3790    914.56435   -9031.4687   -8929.4477     502.0265    17537.278    7.9342735 
    3800    922.69601   -9033.3774   -8930.4493   -1478.6056    17539.487    7.9447613 
    3810    899.98385   -9031.9128   -8931.5183   -2216.8076     17540.43    7.9670888 
    3820    875.79282   -9030.2786   -8932.5826   -1426.6872    17539.503    7.9994029 
    3830    871.23729   -9030.7919    -8933.604    215.38401    17537.388    8.0369251 
    3840     868.9139   -9031.4954   -8934.5667    2134.3232     17535.54    8.0774038 
    3850    878.11595   -9033.4402   -8935.4851    3779.9326    17535.643    8.1161625 
    3860    887.72837   -9035.4433   -8936.4158    4501.6177    17539.029    8.1466682 
    3870    860.81714    -9033.361   -8937.3355    5206.7005    17546.395    8.1672408 
    3880    868.11102   -9035.0628   -8938.2237    4427.6893    17558.144    8.1838232 
    3890    882.51624   -9037.5464   -8939.1004    3423.2406    17573.657    8.2016957 
    3900    871.58658   -9037.1984   -8939.9716    2250.8211    17591.976    8.2206464 
    3910     848.3172    -9035.424    -8940.793     701.3538    17611.993    8.2364451 
    3920    840.97112   -9035.3263   -8941.5147   -1126.7595    17632.305    8.2498115 
    3930    867.30036    -9038.907   -8942.1584   -3142.6271    17651.275    8.2609225 
    3940    880.60187   -9041.0161   -8942.7836   -4082.8868    17667.229    8.2708456 
    3950    870.23079   -9040.5049   -8943.4293   -3812.9503    17679.373    8.2813266 
    3960     874.1668   -9041.6166    -8944.102   -3435.9546     17687.88    8.2954459 
    3970    845.05178   -9039.0331   -8944.7663   -1750.4653    17693.277    8.3165049 
    3980    831.39261   -9038.1266   -8945.3835    531.08229    17697.067    8.3434858 
    3990    843.75661   -9040.0728   -8945.9504    1366.3649    17701.188    8.3709242 
    4000    843.78127   -9040.5867   -8946.4616    609.42433    17706.406    8.3970975 
    4010    851.96003   -9041.9529   -8946.9155   -970.99698     17712.05    8.4254679 
    4020    856.14166   -9042.8258   -8947.3219   -2036.7552    17716.761    8.4567678 
    4030    833.87256   -9040.6979   -8947.6782   -1312.0823     17719.72    8.4835479 
    4040    834.15916   -9041.0276   -8947.9759   -724.91281    17721.458     8.499569 
    4050    855.91841   -9043.7158   -8948.2368   -1137.3938    17722.431    8.5089477 
    4060    830.57537   -9041.1144   -8948.4625   -202.06802     17722.51    8.5256733 
    4070    822.72071   -9040.4018   -8948.6261    817.45868     17722.42    8.5541705 
    4080    858.54551    -9044.498   -8948.7259    780.68955    17722.992    8.5879846 
    4090    880.13406   -9046.9952    -8948.815      575.088    17724.255    8.6177597 
    4100    868.91489   -9045.8659   -8948.9371      342.894    17726.011    8.6374642 
    4110    854.99357   -9044.4592   -8949.0834    655.78296    17728.104    8.6480155 
    4120    831.27662   -9041.9417   -8949.2116    1174.6231    17730.775    8.6560179 
    4130    808.83363   -9039.5019   -8949.2753    1791.2519    17734.495    8.6624749 
    4140    819.86335   -9040.7036   -8949.2466    2004.5548    17739.777    8.6615141 
    4150    841.55237   -9043.0084   -8949.1319    1676.5672    17746.778    8.6517225 
    4160    848.38261   -9043.5974   -8948.9591    1270.8141    17755.218    8.6346146 
    4170    837.07997   -9042.1135    -8948.736    758.76389    17764.731    8.6151162 
    4180    864.85752   -9044.9578   -8948.4816   -222.67883    17774.814    8.5969046 
    4190    890.12777   -9047.5328   -8948.2377   -713.78194    17784.635    8.5799976 
    4200    858.27313   -9043.7927    -8948.051   -493.57231    17793.745    8.5587844 
    4210    825.37249   -9039.9224   -8947.8509   -353.70544    17802.327    8.5313336 
    4220    828.94705   -9040.0379   -8947.5676   -691.09906    17810.438    8.5000608 
    4230    819.03703   -9038.5388    -8947.174   -687.39796    17817.876     8.469863 
    4240    867.21596   -9043.4342   -8946.6949   -2022.1996    17824.472    8.4441757 
    4250    898.33931   -9046.4032   -8946.1921   -3047.1045    17829.156    8.4238557 
    4260    867.45826   -9042.5379   -8945.7716   -2358.9481    17831.117    8.4039074 
    4270    860.43366   -9041.3856    -8945.403   -1171.1419    17830.927    8.3783572 
    4280     867.3648    -9041.766   -8945.0101   -340.22455    17829.651    8.3467186 
    4290    862.47588    -9040.806   -8944.5955    13.578796    17828.052    8.3130582 
    4300    830.20974   -9036.7567   -8944.1456    757.05645     17826.54    8.2810525 
    4310    840.41463   -9037.3912   -8943.6417    974.33125    17825.701    8.2512796 
    4320    872.09261   -9040.3778   -8943.0946    428.26495     17825.72    8.2249926 
    4330    887.83869    -9041.613   -8942.5733    40.356061    17826.171     8.204904 
    4340     905.5162   -9043.1432   -8942.1315   -893.08945    17826.581    8.1914763 
    4350    910.37819   -9043.3484   -8941.7944   -1163.9998    17826.233    8.1839085 
    4360    902.75814   -9042.2754   -8941.5713   -766.80962    17824.881    8.1828191 
    4370    901.78141   -9042.0407   -8941.4456   -701.47387    17822.808    8.1860869 
    4380    900.63427   -9041.8868   -8941.4197   -556.91621    17820.134    8.1919987 
    4390    859.60042   -9037.3454   -8941.4557    257.24999    17817.066    8.2043492 
    4400    885.98801   -9040.3617   -8941.5284    330.21179      17814.2    8.2249666 
    4410     923.5844   -9044.7044   -8941.6772     784.8136    17811.704     8.252773 
    4420    884.53317   -9040.6154   -8941.9444    2255.7688    17810.062    8.2858551 
    4430    872.25341   -9039.5759   -8942.2747    2269.7023    17810.383    8.3221782 
    4440    904.33789   -9043.5406   -8942.6604    438.07294    17812.619    8.3619057 
    4450    898.89371   -9043.4023   -8943.1294   -969.81643    17815.283     8.402185 
    4460    874.40155    -9041.199   -8943.6581   -949.15725    17817.173    8.4386644 
    4470    884.52516   -9042.8938   -8944.2237   -1383.7401    17818.116    8.4692463 
    4480    885.86803   -9043.6476   -8944.8277   -2478.5548    17817.733    8.4943781 
    4490    867.62027   -9042.2475   -8945.4631   -2967.0988    17815.127    8.5146215 
    4500    857.85977   -9041.7703   -8946.0747   -2904.6714    17809.883    8.5336701 
    4510    899.00665   -9046.9711   -8946.6855   -3459.4818    17802.001    8.5600103 
    4520    883.97939   -9045.9589   -8947.3496   -2815.5446    17791.177    8.5966315 
    4530    831.84078   -9040.7517   -8947.9586   -1302.0407    17778.035    8.6362264 
    4540    887.97692   -9047.5732    -8948.518   -1487.0538    17763.769    8.6718322 
    4550    892.32273   -9048.6424   -8949.1024   -842.39881    17748.488    8.7043603 
    4560    854.37174   -9044.9826   -8949.6762    771.33286    17732.791    8.7331861 
    4570    873.00065   -9047.5999   -8950.2153    1129.8154    17717.966    8.7588624 
    4580    887.51781   -9049.7683   -8950.7643    1020.6502    17704.392    8.7802623 
    4590    876.12072   -9049.0595    -8951.327    1776.8337    17692.071    8.7949271 
    4600    878.25957   -9049.8531   -8951.8819    3141.9746    17681.656    8.8017406 
    4610    880.45731   -9050.6598   -8952.4435     3681.714    17674.178    8.7990959 
    4620    882.54343   -9051.4756   -8953.0265    3363.6621    17670.062    8.7859146 
    4630    867.60031   -9050.3977   -8953.6155    2417.3248    17669.002    8.7642247 
    4640    869.97333   -9051.2406   -8954.1937    1082.0516    17670.094     8.736395 
    4650    842.96646   -9048.7559   -8954.7217    1291.4519    17672.283    8.7049152 
    4660    818.80212   -9046.4785   -8955.1399    2027.0964    17675.665    8.6718895 
    4670    847.83523   -9050.0307   -8955.4534    1627.9239    17680.748    8.6381858 
    4680     845.7485   -9050.0515    -8955.707    1283.6147    17687.283    8.6073829 
    4690     837.2863   -9049.3194   -8955.9188    319.08751    17694.859    8.5863985 
    4700    871.89633   -9053.3654    -8956.104   -1538.7296    17702.553    8.5782406 
    4710    886.00794   -9055.1465   -8956.3109   -2948.5369    17708.788    8.5804039 
    4720    870.98865   -9053.7221    -8956.562   -3587.2356     17712.34    8.5875223 
    4730    853.83811   -9052.0695   -8956.8225   -4250.6333    17712.561    8.5961255 
    4740    849.33974    -9051.817   -8957.0719   -4326.7886    17708.971    8.6029526 
    4750    835.57972   -9050.5094   -8957.2992   -3401.5853    17701.564    8.6089501 
    4760     817.1626   -9048.6228    -8957.467   -1483.1187    17691.256    8.6198456 
    4770    838.76445   -9051.1189   -8957.5534   -855.31779    17679.616    8.6380602 
    4780    869.16566   -9054.5487    -8957.592   -1217.0472    17667.278    8.6649003 
    4790    853.46405   -9052.8284   -8957.6232   -583.09235    17654.117    8.7017961 
    4800    815.92565   -9048.6229   -8957.6052    258.98147    17640.646    8.7457766 
    4810    844.89176   -9051.7776   -8957.5287    94.112117    17627.515    8.7938892 
    4820     837.7479   -9050.8356   -8957.3836    758.99734    17614.743    8.8445513 
    4830    848.96764   -9051.8625   -8957.1589    1465.2596    17602.838    8.8930893 
    4840    900.38772   -9057.3043   -8956.8647    1525.6997    17592.376    8.9361241 
    4850    897.58194   -9056.7248   -8956.5982    2041.2717    17583.473    8.9734111 
    4860    871.78517   -9053.6525   -8956.4036    2603.4587     17576.55     9.006683 
    4870    875.70287   -9053.9262   -8956.2402    1790.1365    17571.962    9.0365972 
    4880    904.84265   -9057.0372   -8956.1006    17.853748     17568.96    9.0666451 
    4890    902.46745   -9056.6957   -8956.0241   -737.90512    17566.102    9.1023223 
    4900    896.97283   -9056.1137   -8956.0551   -535.90649    17562.674     9.141769 
    4910    879.98129   -9054.3546   -8956.1913    900.06095     17558.93    9.1778488 
    4920    857.73643   -9052.0657   -8956.3839    1572.4934    17555.984    9.2051629 
    4930    887.98461   -9055.6755   -8956.6194    26.811371    17554.292    9.2232936 
    4940    894.05086   -9056.6741   -8956.9414   -904.35552    17552.699    9.2404414 
    4950     873.4035    -9054.792   -8957.3626   -947.55106    17550.376    9.2623091 
    4960    874.96237   -9055.4637   -8957.8603    -1348.089    17547.204    9.2873394 
    4970    879.82437   -9056.5923   -8958.4466   -1756.2305     17542.89    9.3107649 
    4980    886.94932   -9058.1019   -8959.1613   -1990.0217    17537.092    9.3301398 
    4990    856.40697   -9055.4863   -8959.9528   -1537.0506     17529.69    9.3446428 
    5000    848.92995   -9055.4438   -8960.7444   -1695.4405    17520.966    9.3538973 
Loop time of 1983.67 on 16 procs for 3000 steps with 864 atoms

Performance: 0.131 ns/day, 183.673 hours/ns, 1.512 timesteps/s
97.1% CPU use with 16 MPI tasks x 1 OpenMP threads

MPI task timing breakdown:
Section |  min time  |  avg time  |  max time  |%varavg| %total
---------------------------------------------------------------
Pair    | 437.59     | 1196.3     | 1927.5     |1523.2 | 60.31
Bond    | 0.00024247 | 0.00061829 | 0.0016387  |   0.0 |  0.00
Neigh   | 0.020329   | 0.053642   | 0.096344   |  11.1 |  0.00
Comm    | 30.621     | 602.02     | 1310.1     |1789.3 | 30.35
Output  | 0.20184    | 0.20635    | 0.27261    |   3.8 |  0.01
Modify  | 21.39      | 185.05     | 570.86     |1335.7 |  9.33
Other   |            | 0.01494    |            |       |  0.00

Nlocal:        54.0000 ave          84 max          21 min
Histogram: 2 1 3 0 1 2 1 1 2 3
Nghost:        546.938 ave         759 max         339 min
Histogram: 3 1 1 1 2 1 3 1 1 2
Neighs:         0.00000 ave           0 max           0 min
Histogram: 16 0 0 0 0 0 0 0 0 0
FullNghs:      3031.38 ave        5948 max         548 min
Histogram: 4 2 0 2 0 2 0 2 1 3

Total # of neighbors = 48502
Ave neighs/atom = 56.136574
Ave special neighs/atom = 0.0000000
Neighbor list builds = 300
Dangerous builds = 300
Setting up Verlet run ...
  Unit style    : metal
  Current step  : 5000
  Time step     : 0.001
Per MPI rank memory allocation (min/avg/max) = 8.895 | 8.912 | 8.921 Mbytes
Step Temp PotEng TotEng Press Volume c_msd[4] 
    5000    848.92995   -9055.4438   -8960.7444   -1695.4405    17520.966    9.3538973 
    5010    871.81713   -9057.9951   -8960.7426   -1976.2122    17520.137     9.350389 
    5020    893.57494   -9060.4424   -8960.7628   -1791.2137    17517.578    9.3546126 
    5030    907.49751   -9062.0968    -8960.864   -1507.9815    17513.434    9.3674858 
    5040    886.01612   -9059.8892   -8961.0528   -1109.4065    17507.961    9.3856608 
    5050     875.9402   -9059.0194   -8961.3069   -1123.2285    17501.461    9.4002491 
    5060    864.04667   -9057.9824   -8961.5967   -1070.3911    17493.978    9.4103917 
    5070    868.26058   -9058.7678    -8961.912   -426.30152    17485.585    9.4218696 
    5080    875.13641   -9059.8795   -8962.2567    1359.0001    17476.899    9.4356053 
    5090    890.56083   -9061.9957   -8962.6523    2752.7547     17469.35    9.4463502 
    5100    910.53563   -9064.7338   -8963.1622    3775.3711    17464.206    9.4473567 
    5110    889.25378   -9063.0126    -8963.815    5181.0894    17462.441    9.4378152 
    5120    876.35638   -9062.3366   -8964.5778    5960.8719    17465.226    9.4242195 
    5130    857.05639   -9060.9948   -8965.3889    5936.1479    17473.275    9.4076626 
    5140    880.32584   -9064.4432   -8966.2416    3873.2727     17486.45      9.38426 
    5150    879.95908   -9065.2552   -8967.0944    1407.8458    17503.131    9.3546426 
    5160    881.07581   -9066.2139   -8967.9286    -688.6987     17521.14    9.3190001 
    5170    867.57436   -9065.4584   -8968.6792   -1881.2183    17538.685    9.2809082 
    5180    881.29784   -9067.6271    -8969.317   -2942.2594    17554.608    9.2428018 
    5190    872.12795   -9067.1274   -8969.8402   -3155.5769    17567.996    9.2042603 
    5200    848.24852   -9064.8697   -8970.2463   -3328.4039    17578.574    9.1651763 
    5210    856.11429   -9066.0616   -8970.5607   -4180.4615    17586.124    9.1303757 
    5220    847.41794   -9065.3237    -8970.793   -4639.4697    17589.962    9.1087893 
    5230    847.10418    -9065.467   -8970.9712   -4606.3031    17589.672    9.1034239 
    5240    842.17402   -9065.0332   -8971.0875   -3773.3869    17585.314    9.1068319 
    5250    860.79628   -9067.1846   -8971.1615   -2719.4834    17577.561    9.1074375 
    5260    859.25717   -9067.0607   -8971.2092   -792.27643    17567.446    9.1028739 
    5270    852.65098   -9066.3571   -8971.2426    1100.2267    17556.603    9.0983121 
    5280    851.79456   -9066.2736   -8971.2546    1999.6969    17546.651    9.1015551 
    5290    842.89212   -9065.2595   -8971.2336     3429.599     17538.57    9.1025507 
    5300    839.17211   -9064.7748   -8971.1638    4593.2068     17533.54    9.0901513 
    5310    861.49791   -9067.1657   -8971.0643    4575.8966    17532.539    9.0706076 
    5320    872.22102   -9068.2648   -8970.9673    4381.8976    17535.659      9.05263 
    5330    889.63199   -9070.1479   -8970.9081     4421.647    17542.735    9.0366017 
    5340    906.95204   -9072.0889    -8970.917    3818.3173    17553.773    9.0140184 
    5350    900.42884   -9071.4792    -8971.035    2572.3753    17568.235    8.9831546 
    5360    877.99459   -9069.1767   -8971.2351    1308.0041    17585.057    8.9528438 
    5370     869.0125   -9068.4041   -8971.4644   -117.46082    17603.082    8.9241664 
    5380    838.52474   -9065.2049   -8971.6662   -399.45493    17621.166    8.8983511 
    5390     840.5297   -9065.5898   -8971.8274   -1221.8963    17638.878     8.878512 
    5400    846.02032   -9066.3091   -8971.9342    -2343.831    17655.496     8.865284 
    5410    846.78287   -9066.4577   -8971.9978   -3543.5323    17670.011    8.8606128 
    5420    862.80383   -9068.3012   -8972.0542   -4899.1069    17681.301    8.8661172 
    5430    863.61768   -9068.4581   -8972.1202   -5218.5684    17688.245    8.8802909 
    5440    888.39083   -9071.3313   -8972.2299   -5125.3285    17690.472    8.9040695 
    5450    891.13573   -9071.8176   -8972.4101   -4162.8898    17688.098    8.9358286 
    5460    900.97225   -9073.1991   -8972.6943   -2184.4114    17682.018    8.9702047 
    5470     899.9343   -9073.4777   -8973.0887    585.64501    17674.025     9.006818 
    5480    881.77164   -9071.9519   -8973.5889    3512.1593    17666.583    9.0453756 
    5490    879.15156   -9072.2619   -8974.1912    5015.4021     17662.22    9.0814098 
    5500    892.56262   -9074.4805   -8974.9138    4577.5777    17662.257    9.1077994 
    5510    892.07906   -9075.2876   -8975.7748    4290.5667    17666.498    9.1266273 
    5520    871.93794   -9073.9763   -8976.7103    3516.5241     17674.59    9.1425818 
    5530    890.98864   -9077.0596   -8977.6685    1950.2015    17685.818    9.1525399 
    5540    897.62597   -9078.7377   -8978.6061    536.78513    17698.805    9.1518596 
    5550    874.86438    -9077.065   -8979.4726   -13.298101    17712.353    9.1400314 
    5560    854.04643   -9075.4793   -8980.2091   -1377.0338    17725.812    9.1226966 
    5570    883.14957   -9079.3315   -8980.8148    -4034.577    17737.869    9.1061611 
    5580    914.00226   -9083.3394   -8981.3811   -5789.5226    17746.245    9.0913961 
    5590    875.27305   -9079.5597   -8981.9217   -4295.9138    17749.595    9.0766505 
    5600    878.74996   -9080.4478   -8982.4219    -2085.391    17749.066    9.0628574 
    5610    880.34213   -9081.1036   -8982.9001   -86.805812    17746.618    9.0509013 
    5620    859.67608   -9079.2427   -8983.3446    1316.8512    17744.065    9.0368174 
    5630    892.86982    -9083.353    -8983.752    1266.4606     17742.61    9.0230818 
    5640      905.285   -9085.1672   -8984.1813    1129.4942    17742.316    9.0168593 
    5650    854.30316   -9079.9199   -8984.6211    1432.5862    17743.074    9.0141601 
    5660    850.39991   -9079.8635   -8985.0001    1407.8576    17745.138    9.0009071 
    5670    873.40691     -9082.74   -8985.3101    803.59389    17748.446    8.9739653 
    5680     891.0639   -9085.0224   -8985.6228    650.46676    17752.516    8.9440726 
    5690    869.40011   -9082.9251   -8985.9422    149.45583    17757.106    8.9179898 
    5700    859.89662   -9082.1706   -8986.2478   -458.19933     17761.79    8.8994281 
    5710    861.65749   -9082.6469   -8986.5277   -614.42468    17766.058    8.8910835 
    5720    867.76576   -9083.5937   -8986.7932   -539.58227    17769.728    8.8918652 
    5730    875.15226   -9084.6934   -8987.0688    -283.0518    17772.872    8.8976124 
    5740    879.24399   -9085.4679   -8987.3869   -508.00966    17775.632    8.9053454 
    5750    853.66685   -9082.9601   -8987.7323   -551.51445    17777.915    8.9174335 
    5760    834.91331   -9081.1984   -8988.0625   -1351.8871    17779.584     8.933587 
    5770    860.77871   -9084.3886   -8988.3674   -2585.8281    17779.965    8.9537171 
    5780    875.41255   -9086.3481   -8988.6945   -3346.2539    17778.018    8.9781911 
    5790    835.84717   -9082.2537   -8989.0137   -2298.0733    17773.223    8.9993279 
    5800    858.60101    -9085.081   -8989.3027   -1308.6885    17766.375    9.0096943 
    5810    858.64391    -9085.338    -8989.555    44.430471    17758.476    9.0110631 
    5820       839.73   -9083.4532   -8989.7801    1960.5647    17750.814    9.0112686 
    5830    845.46217   -9084.2831   -8989.9705    2637.7269    17744.949    9.0150492 
    5840    865.95231   -9086.7326   -8990.1343    2455.7303    17741.529    9.0255702 
    5850    878.85436   -9088.3485    -8990.311    1986.3268    17740.368    9.0468601 
    5860    868.28609   -9087.3747   -8990.5161    2112.8364    17741.094    9.0744971 
    5870    863.48686   -9087.0744   -8990.7512    2023.2951    17743.725    9.0962652 
    5880    863.40221   -9087.3216   -8991.0078     956.0695    17748.079    9.1053666 
    5890    860.75224   -9087.3185   -8991.3003    69.295386    17753.246    9.1062247 
    5900    837.24595   -9084.9847   -8991.5886   -427.31886    17758.441    9.1072647 
    5910    844.09345    -9086.007   -8991.8471   -1516.5635    17763.132    9.1116774 
    5920    863.86732   -9088.4654   -8992.0997   -2147.1939    17766.423    9.1192246 
    5930    848.55273    -9087.013   -8992.3557   -1799.9146    17767.802    9.1326088 
    5940    860.49753   -9088.6285   -8992.6387   -2168.3539    17767.437    9.1530405 
    5950    864.57178   -9089.4034   -8992.9591   -2890.1136    17765.076    9.1766873 
    5960    866.33458   -9089.9796   -8993.3387   -3169.7363    17760.159    9.1960318 
    5970    861.73894   -9089.8925   -8993.7643   -3030.7544    17752.443    9.2130139 
    5980    831.14683   -9086.9226   -8994.2069   -1971.5793    17742.169     9.231994 
    5990    818.47714   -9085.9019   -8994.5996   -1019.0234    17730.255    9.2489885 
    6000    825.81109   -9087.0567   -8994.9362    153.90832    17717.634    9.2610747 
    6010    820.07561   -9086.6892   -8995.2086    1769.5324    17705.412    9.2690782 
    6020    862.17541   -9091.6476   -8995.4707    1517.3196    17694.839    9.2793376 
    6030    892.83329   -9095.3977   -8995.8008    447.93065    17685.742    9.2926927 
    6040     874.7257   -9093.8176   -8996.2406    970.84763    17677.341    9.2996647 
    6050    872.47561   -9094.1229   -8996.7969    2328.5791    17670.014    9.2987689 
    6060    846.54147   -9091.8631   -8997.4301    3967.9159     17664.93     9.299874 
    6070    828.30076   -9090.4788   -8998.0806    4799.5875     17663.45    9.3029259 
    6080    829.09391   -9091.1988   -8998.7121    3864.5728    17666.201    9.2972752 
    6090    831.47463   -9092.0775   -8999.3253    1847.4076    17672.296    9.2797004 
    6100    796.43891    -9088.696   -8999.8521    971.48011    17680.084    9.2608098 
    6110     814.2223   -9091.0941   -9000.2664   -70.514494    17688.618    9.2496091 
    6120    839.15637   -9094.2006   -9000.5914   -195.40123    17697.058    9.2418027 
    6130    804.84837   -9090.6195   -9000.8374    270.69644    17705.258    9.2297755 
    6140    804.71183   -9090.7479   -9000.9811   -1334.5864    17713.396    9.2142169 
    6150    820.67952   -9092.5453   -9000.9973   -3742.4095    17720.163    9.2020934 
    6160       833.71   -9093.9327   -9000.9311   -5582.3777    17723.473    9.1969858 
    6170    822.00279   -9092.4847    -9000.789   -5428.4876    17721.851     9.199657 
    6180    804.42813   -9090.2863   -9000.5511   -4387.8225     17715.38    9.2101368 
    6190     817.7366   -9091.4088    -9000.189   -3687.5295    17705.019    9.2223646 
    6200    843.37521   -9093.7838    -8999.704   -3654.0241    17691.407    9.2347778 
    6210    836.71739   -9092.4561    -8999.119   -2464.7476    17674.823    9.2555043 
    6220    837.66215   -9091.8629   -8998.4204    -849.7989    17656.317    9.2816396 
    6230    830.29187   -9090.2221   -8997.6018    959.62419    17637.374    9.3036945 
    6240    836.78737   -9090.0384   -8996.6935    2341.2236    17619.614    9.3219913 
    6250    899.79787   -9096.1462   -8995.7724      2568.15    17604.168    9.3409282 
    6260    881.34981   -9093.2722   -8994.9563     3224.884    17591.331    9.3632172 
    6270    852.26314   -9089.3863    -8994.315    3752.7829    17581.593     9.383656 
    6280    879.55521   -9091.8904   -8993.7746    3065.5658    17575.266    9.4014101 
    6290    886.17987    -9092.198   -8993.3433    2487.3893      17571.8     9.427083 
    6300     892.1351   -9092.5775   -8993.0585    2307.9865    17570.659    9.4673497 
    6310     892.0787   -9092.4111   -8992.8984     2764.368    17571.658    9.5144746 
    6320    893.83823    -9092.573    -8992.864    3585.3255    17575.119    9.5566126 
    6330     863.7801   -9089.2534   -8992.8974    4187.2669     17581.69    9.5920857 
    6340    864.89543   -9089.4311   -8992.9507    3327.3062    17591.753    9.6166476 
    6350    872.17975   -9090.2991   -8993.0062    2465.5397    17604.636    9.6252133 
    6360    874.81215   -9090.6755   -8993.0889    2065.9711    17619.566     9.623975 
    6370      876.133   -9090.9238   -8993.1899    1178.7358    17636.063    9.6271934 
    6380    883.16269   -9091.8271   -8993.3089    219.34327    17653.349    9.6473587 
    6390    884.12623   -9092.0645   -8993.4388   -1046.9264    17670.503    9.6811446 
    6400    881.44993   -9091.8894   -8993.5624   -2848.8766    17686.355    9.7192113 
    6410    867.70397    -9090.476   -8993.6823   -4541.2011    17699.363    9.7557692 
    6420     864.9812    -9090.301    -8993.811   -5612.2505    17708.059    9.7868887 
    6430    861.68036   -9090.0713   -8993.9495   -5175.2548    17711.631    9.8103419 
    6440    865.91931   -9090.7196    -8994.125   -4533.7833    17710.439    9.8294236 
    6450    867.05889   -9091.0531   -8994.3314    -4041.841    17705.166     9.855333 
    6460    857.56536   -9090.2181   -8994.5554   -3801.2675    17696.314    9.8878329 
    6470    853.96309   -9090.0552   -8994.7943   -2672.6881    17684.272    9.9177998 
    6480    855.75248   -9090.4999   -8995.0394   -1262.1791    17670.069    9.9413708 
    6490    863.80993   -9091.6457   -8995.2864     189.5473    17655.033    9.9606269 
    6500    860.93192   -9091.5468   -8995.5086    1722.3511    17640.495    9.9746283 
    6510    875.02816   -9093.3437    -8995.733    2349.5623    17627.713    9.9803857 
    6520    852.99997   -9091.1231   -8995.9697    2857.1909    17617.302    9.9831829 
    6530    839.81588   -9089.8634   -8996.1807    2697.8074    17609.613    9.9876444 
    6540    880.53087   -9094.6229   -8996.3983    2179.5284    17604.454    9.9872818 
    6550    858.04701   -9092.3483   -8996.6319    2843.3826    17601.462     9.978722 
    6560    836.60965   -9090.1921    -8996.867    3281.4596    17601.074      9.96872 
    6570    874.17312   -9094.6323    -8997.117    2692.7466    17603.531     9.963986 
    6580    854.64219   -9092.7302   -8997.3936    3536.8106    17608.501    9.9608958 
    6590    849.00392   -9092.4134   -8997.7057    3173.9943    17616.403    9.9494327 
    6600    867.80572   -9094.8463   -8998.0413     1784.399    17626.906    9.9324056 
    6610    875.57458   -9096.1015   -8998.4298    293.08067    17638.786    9.9179007 
    6620    860.93619   -9094.9289   -8998.8902   -493.50695     17650.77    9.9045113 
    6630     856.0066   -9094.9212   -8999.4324   -1095.4168    17662.071    9.8944751 
    6640    838.67672   -9093.6026    -9000.047    -407.8512    17672.298    9.8879536 
    6650    817.92901   -9091.9161   -9000.6749   -92.639345    17681.942    9.8776176 
    6660    831.95207    -9094.094   -9001.2885   -1452.6298    17691.184    9.8705386 
    6670    845.23904   -9096.1766   -9001.8889   -2931.6416    17698.924    9.8818564 
    6680    840.39405   -9096.2307   -9002.4835   -3458.4896     17703.96    9.9073756 
    6690    826.15754   -9095.2145   -9003.0554   -3305.7365    17705.839    9.9311319 
    6700    803.06366   -9093.1242   -9003.5412   -2455.5418     17704.77    9.9499684 
    6710    833.80634    -9096.955   -9003.9426   -1739.1779    17701.466     9.966899 
    6720    844.40437   -9098.4716   -9004.2771   -436.52119    17696.707    9.9872654 
    6730    833.21794   -9097.5147    -9004.568    496.15646    17691.618    10.014267 
    6740    845.17326   -9099.0977   -9004.8174    537.25688    17687.014    10.044343 
    6750    837.73294   -9098.4838   -9005.0334     696.4868    17682.982    10.074187 
    6760    824.23826   -9097.1435   -9005.1985    877.25307    17679.626    10.101621 
    6770    832.09673   -9098.1259   -9005.3043    1282.5771    17677.146    10.124441 
    6780    814.11844   -9096.1566   -9005.3405    2548.4124    17675.968    10.139957 
    6790    814.65503   -9096.1604   -9005.2844    2937.3742    17677.045    10.147956 
    6800    839.70652   -9098.7986    -9005.128    2543.4094    17680.695    10.150913 
    6810    840.11444   -9098.5888   -9004.8728    1406.9596    17686.539    10.153571 
    6820      864.519   -9100.9734    -9004.535   -1235.5626    17693.453    10.159815 
    6830    864.98242   -9100.6075   -9004.1174    -3020.565    17699.238    10.170912 
    6840    828.14192   -9096.0147   -9003.6342   -2691.8389    17702.397     10.18736 
    6850    824.58248    -9095.018   -9003.0346   -1963.9417    17703.089    10.210009 
    6860    847.04475   -9096.7431    -9002.254   -1253.7198    17702.007    10.235547 
    6870    877.15143    -9099.181   -9001.3334    -865.1184    17699.745       10.256 
    6880    874.24031   -9097.8975   -9000.3747    449.10802    17696.808    10.270549 
    6890    839.52099   -9093.1008    -8999.451    1812.1627    17694.342    10.288699 
    6900    881.01123   -9096.8481   -8998.5699     773.1376    17693.347    10.312934 
    6910    880.21457   -9095.9453    -8997.756    207.60862    17693.134    10.336526 
    6920    850.22029   -9091.9406   -8997.0972    979.55444    17693.209    10.354988 
    6930    863.53952    -9092.861   -8996.5318    2112.2077    17694.226    10.366828 
    6940    865.55528   -9092.5825   -8996.0285    2342.8015    17697.076    10.367884 
    6950    899.85604   -9096.0025   -8995.6222    1750.3984    17701.947     10.35599 
    6960    912.55783   -9097.1382   -8995.3411     1621.048    17708.397    10.343528 
    6970    876.60256   -9092.9654    -8995.179    1853.9909    17716.327    10.337913 
    6980    893.19243   -9094.7215   -8995.0845    86.699827    17725.691    10.339859 
    6990    913.78034   -9096.9995   -8995.0659   -1076.4452     17735.11    10.350721 
    7000    871.78593   -9092.3837   -8995.1347   -859.41338    17743.575    10.364025 
    7010    864.27487   -9091.6525   -8995.2413   -618.47629    17751.198    10.372888 
    7020    877.80396   -9093.2903   -8995.3699    -561.7923    17758.165    10.372908 
    7030     873.7621   -9093.0036   -8995.5341   -18.783251    17764.612    10.364885 
    7040    882.64649    -9094.193   -8995.7325   -148.18705    17770.953    10.355176 
    7050     899.3045   -9096.2963   -8995.9775   -1810.5243    17776.978    10.348417 
    7060     903.8756   -9097.1297    -8996.301   -3418.4834    17781.336    10.336949 
    7070    891.06964   -9096.1071   -8996.7069   -4360.2156    17782.562     10.32003 
    7080    872.95413   -9094.5468   -8997.1675   -4286.7315    17779.883    10.303803 
    7090    876.96593    -9095.482   -8997.6552   -4146.6225    17773.306    10.289045 
    7100    882.68312   -9096.6493   -8998.1846   -3379.4945    17763.042    10.275534 
    7110    861.79445   -9094.8759   -8998.7415    -2022.682     17749.82    10.261528 
    7120    831.52998   -9091.9928   -8999.2344   -5.8377511     17734.94    10.247748 
    7130    836.57598   -9092.9495   -8999.6282    2445.1216    17720.237    10.230546 
    7140     860.6788   -9095.9464   -8999.9364    4563.9213    17707.868    10.202837 
    7150    877.16936   -9098.0758   -9000.2263    5871.2023    17699.699    10.170449 
    7160    872.45065   -9097.8709   -9000.5478    6045.4893    17696.846    10.147621 
    7170    855.51326   -9096.3137   -9000.8799    5717.3576      17699.5    10.140487 
    7180    845.40765   -9095.4916   -9001.1851    4977.1084    17707.283    10.143683 
    7190    819.38637   -9092.8166   -9001.4129    3947.3825    17719.494    10.150612 
    7200    841.08083   -9095.3928   -9001.5689     2312.413    17735.163    10.159014 
    7210    879.22082   -9099.7724    -9001.694    138.70808    17752.778    10.163911 
    7220    883.95631    -9100.452   -9001.8454   -1274.0752    17770.475    10.162909 
    7230    867.95522   -9098.8496   -9002.0279   -2582.9176    17786.859    10.159218 
    7240     881.5584   -9100.5696   -9002.2304    -3629.295    17800.774    10.157502 
    7250    888.77081   -9101.6243   -9002.4806   -3768.9738    17811.322    10.160094 
    7260    857.00289    -9098.381    -9002.781   -2622.6294    17818.441    10.169171 
    7270    829.67402   -9095.6073   -9003.0559   -1214.3199    17823.139    10.187428 
    7280    850.85549   -9098.2005   -9003.2863   -1589.4539    17826.501    10.215912 
    7290    869.09071   -9100.4682   -9003.5198   -2796.3504    17828.292    10.247981 
    7300    844.52187   -9097.9863   -9003.7786   -2833.8718    17827.619    10.273601 
    7310    833.38832    -9096.999   -9004.0333   -2256.1603    17824.369    10.290059 
    7320    833.77674   -9097.2325   -9004.2235   -953.62521    17819.125    10.295913 
    7330    857.87999   -9100.0424   -9004.3446   -487.37272    17812.945    10.292153 
    7340    881.55526   -9102.7914   -9004.4526   -476.27499    17806.331    10.285204 
    7350    870.93613   -9101.7507   -9004.5965   -84.590966     17799.37    10.282186 
    7360    857.33406   -9100.4212   -9004.7843    721.51236      17792.4    10.287066 
    7370    845.79768   -9099.3731   -9005.0231    2493.6481    17786.202    10.298158 
    7380     827.0661   -9097.5498   -9005.2893    3755.4257    17782.301    10.307131 
    7390    870.20203    -9102.703   -9005.6307    2698.8799    17781.655    10.304745 
    7400    877.70598   -9104.0108   -9006.1014    2063.4978    17783.558    10.293132 
    7410     841.4595   -9100.5751    -9006.709     1863.674    17787.404    10.282446 
    7420     837.7477   -9100.8612   -9007.4092    533.67189    17792.853    10.283655 
    7430    842.42775   -9102.1296   -9008.1555    -1098.677    17798.762     10.29627 
    7440    840.68963   -9102.7059   -9008.9257   -1399.2864    17803.774    10.309648 
    7450    844.27679   -9103.8712   -9009.6909   -1560.9492    17807.484    10.315268 
    7460    854.17698   -9105.7123   -9010.4276   -1781.3308    17809.727     10.31454 
    7470    842.16868   -9105.0688   -9011.1237   -686.13312    17810.448    10.315487 
    7480    813.76902    -9102.501   -9011.7238    617.90592    17810.553    10.324485 
    7490    824.71031   -9104.1976   -9012.1999    689.38575    17811.143    10.340657 
    7500    832.64134    -9105.464   -9012.5816    14.358077      17812.3     10.35732 
    7510    809.33406   -9103.1264    -9012.844   -147.99023    17813.532    10.372088 
    7520    855.07207   -9108.4233   -9013.0387   -1161.0931    17814.549    10.387514 
    7530    851.85736   -9108.2225   -9013.1965   -2153.1852    17814.505    10.404928 
    7540    837.37399   -9106.7408   -9013.3304   -2173.6879    17812.591    10.425095 
    7550     837.5989   -9106.8624    -9013.427   -2203.4953     17808.64    10.449653 
    7560    811.02988   -9103.9261   -9013.4545   -992.02265    17802.771    10.478348 
    7570    812.90308   -9104.0614   -9013.3808    445.62708    17796.041    10.505468 
    7580    833.88937   -9106.2252   -9013.2036    488.90064    17789.631    10.523843 
    7590    840.44303   -9106.7023   -9012.9496    280.16557    17783.685    10.534182 
    7600    862.17742   -9108.8261   -9012.6489    92.181553     17778.01    10.539195 
    7610    862.10944    -9108.509   -9012.3394   -38.692686    17772.418    10.544695 
    7620    833.62879    -9105.017   -9012.0245     81.12859    17766.849    10.554248 
    7630    812.23637   -9102.2545   -9011.6483   -313.17544    17761.325    10.565568 
    7640    804.64607   -9100.8997   -9011.1402   -1049.5243      17755.5    10.574671 
    7650    845.24504   -9104.7858   -9010.4974   -2551.5963    17748.658    10.576662 
    7660    850.74112   -9104.6775    -9009.776    -2845.976    17739.616    10.574284 
    7670    822.56909   -9100.8036   -9009.0447   -2429.4313    17728.075    10.578314 
    7680    844.69312   -9102.5257   -9008.2989   -2918.5431    17714.283    10.589446 
    7690    867.52396   -9104.3406    -9007.567   -2148.4269    17698.016    10.600662 
    7700    857.86435   -9102.5981   -9006.9021    42.736771    17679.978    10.605754 
    7710    871.92631   -9103.5827    -9006.318    1816.0095    17662.007    10.602296 
    7720    867.56511   -9102.5884   -9005.8102    2138.7165    17645.659    10.593352 
    7730     903.7789    -9106.237   -9005.4191    971.28891    17631.187    10.586021 
    7740     920.4338   -9107.8421   -9005.1663    555.96809    17617.734    10.590587 
    7750    885.99095   -9103.8949   -9005.0613     1547.289    17604.971    10.602337 
    7760    875.10104   -9102.6484   -9005.0296     2319.965    17593.635    10.609636 
    7770    912.91075   -9106.8939   -9005.0573    2218.8491    17584.367     10.61022 
    7780    924.97897   -9108.3859   -9005.2031    1593.9879     17577.09    10.606983 
    7790    896.32969   -9105.4603   -9005.4734    1080.1685    17571.284    10.598413 
    7800    874.53647   -9103.3464   -9005.7905    967.81559    17566.496    10.582291 
    7810    876.74934   -9103.9099   -9006.1072    1440.4086    17562.645     10.56523 
    7820    878.38853   -9104.3926    -9006.407    2239.5977    17560.167    10.550921 
    7830    903.25092   -9107.5059   -9006.7469    1478.8481    17559.565    10.537893 
    7840    871.99486   -9104.4077   -9007.1353     1484.974    17560.387    10.530313 
    7850    823.16945   -9099.3326   -9007.5068     1818.228     17562.57    10.530258 
    7860    834.82104   -9100.9143   -9007.7887    986.57266    17566.313    10.527124 
    7870    886.57532   -9106.9158    -9008.017   -1006.9411    17570.863    10.515391 
    7880     885.4085   -9107.0454   -9008.2768   -2177.9382    17574.588    10.499459 
    7890    860.42307   -9104.5595    -9008.578   -2289.1977    17576.448    10.482708 
    7900    860.11296   -9104.8151   -9008.8682   -2114.3643    17576.293    10.465712 
    7910     856.0955   -9104.6316   -9009.1328   -1596.3961    17574.302    10.450948 
    7920    858.70199   -9105.1711   -9009.3816   -1359.8541    17570.864    10.440503 
    7930    846.33363   -9104.0208    -9009.611   -1202.8862    17566.198    10.435386 
    7940    842.48413   -9103.7824    -9009.802   -209.84497    17560.575    10.433572 
    7950    877.65725   -9107.8875   -9009.9835    947.33535    17554.782    10.427963 
    7960    858.87472   -9105.9781   -9010.1693    3107.3966    17549.952      10.4162 
    7970    841.09225    -9104.173   -9010.3479    3983.4441    17547.778    10.399558 
    7980    868.00416   -9107.3513   -9010.5241    3894.9283      17549.1    10.382007 
    7990    848.19437   -9105.3032   -9010.6858    3991.1924    17553.988    10.369107 
    8000    849.32264    -9105.577   -9010.8338    2737.0388    17562.355     10.36313 
    8010    858.40993   -9106.7192   -9010.9623    1318.3059    17573.184     10.36591 
    8020    847.48429   -9105.6278   -9011.0897    912.08854    17585.298    10.377391 
    8030    839.56899   -9104.8611   -9011.2059    710.82532    17598.297    10.391455 
    8040    834.18262   -9104.3279   -9011.2736   -473.98853    17611.899    10.405647 
    8050    835.13265   -9104.4188   -9011.2585   -1970.9619     17625.09     10.41253 
    8060    874.34814   -9108.7138   -9011.1789    -3332.371    17636.525    10.410948 
    8070    901.06474   -9111.6135   -9011.0984   -3753.0645    17645.014    10.410474 
    8080     867.4457   -9107.8431   -9011.0782   -2691.9944    17650.243    10.419535 
    8090     851.5587   -9106.0658   -9011.0732   -2252.2161    17652.994    10.438088 
    8100    862.08383    -9107.199   -9011.0322   -3086.0288    17653.581    10.461395 
    8110    844.21339   -9105.1388   -9010.9656   -3766.7953    17651.375    10.487336 
    8120    832.12021   -9103.6741   -9010.8499    -3808.252    17645.819    10.515053 
    8130    868.82475   -9107.5985   -9010.6798   -2564.3801    17636.903    10.543784 
    8140    879.62598   -9108.5965   -9010.4729    97.364982    17625.784    10.571617 
    8150    851.59659   -9105.2467   -9010.2498    3135.8776    17614.789     10.59453 
    8160    826.86222   -9102.2274   -9009.9897    5011.6787    17606.525    10.612723 
    8170    812.08807   -9100.2337    -9009.644    4915.3952    17602.639    10.626724 
    8180    835.08811    -9102.347   -9009.1916    3988.8958    17603.142    10.631489 
    8190    876.25136   -9106.3851    -9008.638    2901.7886     17607.24    10.625246 
    8200    905.30942   -9109.0476   -9008.0589    1119.0018    17613.915    10.612849 
    8210    906.72406   -9108.6728   -9007.5264    140.84983    17621.698    10.600603 
    8220    888.67742   -9106.2103    -9007.077     393.5181    17629.715    10.591756 
    8230    882.27879   -9105.1272   -9006.7077    986.23434    17638.129    10.581501 
    8240    863.97011   -9102.7716   -9006.3944     1478.541    17647.472    10.563376 
    8250    867.68135   -9102.8981   -9006.1069    1249.8284     17658.13    10.535366 
    8260    885.10514   -9104.5563   -9005.8215    128.93607    17669.856    10.497498 
    8270    897.50161   -9105.6816    -9005.564   -488.51766    17681.762    10.452742 
    8280     869.6688   -9102.3548    -9005.342   -352.10337    17693.298    10.413601 
    8290    876.13349   -9102.8679   -9005.1339    -733.3547     17704.49    10.386334 
    8300    897.25679   -9105.0376   -9004.9473   -1732.3437    17714.983    10.369044 
    8310     891.5306   -9104.2938   -9004.8422    -1877.515    17723.995    10.362764 
    8320    867.30144   -9101.5605   -9004.8118   -1993.4737    17731.278    10.362206 
    8330    860.18004   -9100.7639   -9004.8095   -2142.7977    17736.741    10.358171 
    8340    848.22897   -9099.4044   -9004.7832   -2253.4797    17740.273    10.350405 
    8350    891.21224   -9104.1732   -9004.7571   -2838.6755    17741.682    10.338189 
    8360    880.13667   -9102.9269   -9004.7464    -2164.228    17740.629    10.316743 
    8370    881.19344   -9103.0782   -9004.7798   -2150.6465     17737.52    10.287809 
    8380    933.65973   -9109.0646   -9004.9134   -1481.5376    17732.515    10.260704 
    8390    913.11868   -9107.0693   -9005.2095    492.64039    17726.265    10.241642 
    8400    857.42785   -9101.2685   -9005.6211    2235.6593    17720.472     10.22883 
    8410       868.79   -9102.9837   -9006.0689    1517.0686    17716.526    10.220827 
    8420    887.25921   -9105.5626   -9006.5875    463.20876    17713.976    10.220375 
    8430    860.49875   -9103.1612   -9007.1713    201.24953    17711.893    10.225238 
    8440    872.19079   -9105.0848   -9007.7906   -425.01257    17709.939    10.227737 
    8450    885.42076   -9107.2285   -9008.4585   -409.29813     17707.67    10.225247 
    8460    872.87431   -9106.5338   -9009.1633    741.50083    17705.142    10.220343 
    8470    874.92168   -9107.4792   -9009.8804    1735.1683    17703.287    10.217533 
    8480    870.24785   -9107.6709   -9010.5934    2323.5155    17702.987    10.220903 
    8490    842.06375    -9105.194   -9011.2606    2670.0102    17704.824    10.231743 
    8500    827.93991   -9104.1768   -9011.8189    1176.4238    17708.984     10.24595 
    8510    837.33665   -9105.6596   -9012.2534   -1236.1583    17714.165    10.256003 
    8520    840.87748   -9106.3855   -9012.5844   -2846.0977    17718.298    10.258809 
    8530    847.36267   -9107.3654   -9012.8408   -3836.9011    17719.879    10.257039 
    8540    855.51468   -9108.4891   -9013.0552   -3818.5551     17718.03    10.257475 
    8550    846.79294   -9107.6903   -9013.2292   -2826.9983    17712.765     10.26195 
    8560    850.17456   -9108.1968   -9013.3585   -1671.3047      17704.9    10.269963 
    8570     864.0482   -9109.8546   -9013.4688   -662.91549    17695.461    10.282008 
[...]
   22890    850.85589   -9130.6615   -9035.7473    1828.8887    17289.056    20.476777 
   22900    874.36388   -9133.2245   -9035.6879    1516.5452     17293.33     20.47675 
   22910    882.49854   -9134.0794   -9035.6354    1064.1884    17298.982    20.482583 
   22920    857.70362   -9131.2932    -9035.615   -214.87008    17305.556    20.495932 
   22930    865.20537   -9132.1264   -9035.6115    -2275.112    17311.936      20.4992 
   22940    879.54104   -9133.7358   -9035.6216   -3412.5999    17316.463    20.490923 
   22950    856.00475   -9131.1372   -9035.6486   -3037.2306    17318.171    20.485253 
   22960    888.49456   -9134.8027   -9035.6898   -3131.9232    17317.195    20.485494 
   22970    894.59878   -9135.5688    -9035.775   -2819.4441    17313.502    20.488282 
   22980    850.88868   -9130.7927   -9035.8748   -1465.7942    17307.423    20.493929 
   22990    871.83459    -9133.187   -9035.9325   -2183.9777    17299.866    20.505673 
   23000      895.178   -9135.8451   -9035.9866   -3039.3312    17290.373    20.517881 
   23010    892.60504   -9135.6737   -9036.1023   -1847.4772    17278.337    20.525204 
   23020    886.94534    -9135.216   -9036.2759    676.84692    17264.709    20.524203 
   23030    867.60589   -9133.2416   -9036.4588    3950.9738    17251.681    20.523308 
   23040    861.78418   -9132.7567   -9036.6234    6128.7901    17241.942    20.534708 
   23050    870.77686   -9133.9241   -9036.7876    6283.1443    17237.285     20.55853 
   23060    887.68661   -9136.0113   -9036.9885    5583.4487    17238.011    20.588233 
   23070    881.65603   -9135.5875   -9037.2374    5045.2928    17243.598    20.614066 
   23080     839.5036   -9131.1139   -9037.4661    4775.5676    17253.622    20.636049 
   23090    849.45632   -9132.3872    -9037.629    3259.1528    17267.786    20.648878 
   23100    875.19003   -9135.3577    -9037.729    818.76747     17284.85     20.65297 
   23110    865.71336   -9134.3781   -9037.8065   -805.64627    17302.849    20.653791 
   23120    867.81185   -9134.6801   -9037.8744    -2244.499    17320.309    20.660713 
   23130    884.43503   -9136.6048   -9037.9448   -4569.9651    17335.821    20.680757 
   23140     853.0121   -9133.1783   -9038.0236   -5150.2955    17347.589    20.716768 
   23150    841.24233   -9131.9389   -9038.0971   -5057.3229    17354.953    20.760393 
   23160     834.3622   -9131.2117   -9038.1374   -4868.8877    17357.939    20.793537 
   23170    834.04074   -9131.1655    -9038.127    -5558.303    17356.619    20.820094 
   23180    871.48615   -9135.3221   -9038.1066   -6372.0304    17350.387    20.851133 
   23190    849.11097   -9132.8177   -9038.0981   -5108.2388    17338.675    20.886995 
   23200    841.81462   -9131.9866   -9038.0809   -3863.5058    17322.387      20.9243 
   23210    863.95021   -9134.4137   -9038.0387   -3465.5227    17302.509    20.963138 
   23220    851.06306   -9132.9021   -9037.9647   -1563.0613    17279.626    21.004408 
   23230    854.13326   -9133.1177   -9037.8378    71.079468    17255.202    21.033718 
   23240    869.85947   -9134.6943   -9037.6601    1360.5777    17230.684    21.047279 
   23250     878.4042   -9135.4594   -9037.4721      3899.86    17207.378    21.053861 
   23260    866.76593   -9133.9753   -9037.2863    5194.8621    17187.258    21.065434 
   23270    880.74435   -9135.3804   -9037.1321    5192.4075    17171.452    21.090957 
   23280    879.42282   -9135.1399    -9037.039    6123.3276    17160.113    21.130691 
   23290    829.35917   -9129.4781   -9036.9618    7923.3414    17154.073    21.169877 
   23300    863.02962   -9133.1364   -9036.8641    7219.9546    17154.615     21.18739 
   23310    885.27774   -9135.4908   -9036.7367    5676.4566    17161.304    21.186424 
   23320    881.85221   -9135.0308   -9036.6588    4856.2877    17172.973    21.186208 
   23330    876.06279    -9134.358   -9036.6319    3471.9435    17188.852    21.196867 
   23340    885.78264   -9135.4646   -9036.6543    1820.3196    17207.811    21.223656 
   23350     861.6022   -9132.8191   -9036.7061    813.51651    17228.553    21.259552 
   23360    852.05888   -9131.8175   -9036.7691   -1642.9352    17250.012    21.282938 
   23370    857.92993   -9132.4884    -9036.785   -5031.7728    17270.132    21.287211 
   23380    883.37128   -9135.3096   -9036.7682   -8441.3578    17285.979    21.286953 
   23390    894.83767   -9136.6122   -9036.7917   -9905.6266    17294.694     21.28994 
   23400    864.55385   -9133.3496   -9036.9073   -9272.8614    17294.963     21.30286 
   23410    854.24594   -9132.4036   -9037.1112   -8221.4951    17287.159    21.326913 
   23420    867.69141   -9134.1815   -9037.3892   -7349.8315    17272.126    21.353342 
   23430    894.74494   -9137.5648   -9037.7547    -5226.576    17250.763    21.374608 
   23440    906.68555   -9139.3862   -9038.2441   -2973.0664    17224.775    21.389096 
   23450    859.71766   -9134.7226   -9038.8198   -524.66507    17196.152    21.391613 
   23460    859.16464    -9135.249   -9039.4079    1613.5165    17166.996    21.379774 
   23470    867.87488    -9136.799   -9039.9863    3765.6066    17139.205    21.369282 
   23480    847.98612   -9135.1536   -9040.5595    6355.7602    17114.656    21.371975 
   23490    824.47811   -9133.0403   -9041.0685     9044.526    17095.536    21.376248 
   23500    846.13724    -9135.913   -9041.5251    9741.3978    17083.954    21.371156 
   23510    868.23734   -9138.8344   -9041.9812    8663.0095    17080.521    21.376251 
   23520    864.18859    -9138.846   -9042.4445    7002.7572     17084.44    21.404846 
   23530    855.35814   -9138.3236   -9042.9071    4825.3166    17094.282    21.437819 
   23540    831.93694   -9136.1409   -9043.3371    3229.9345    17108.301    21.466867 
   23550    840.59896   -9137.4828   -9043.7127    794.14127     17125.02     21.50194 
   23560    854.73709   -9139.3654   -9044.0182   -1527.8099    17142.476    21.537485 
   23570     839.0362   -9137.8626   -9044.2668   -2593.7496     17158.75    21.572393 
   23580    837.59499   -9137.9023   -9044.4673    -2969.606    17172.877    21.612324 
   23590     855.3404   -9140.0338   -9044.6193    -3611.181    17184.462    21.651305 
   23600    855.39621   -9140.1857   -9044.7649   -3472.7296    17193.023     21.68643 
   23610    838.19084   -9138.3966   -9044.8952   -2912.5126    17198.636    21.720497 
   23620    831.67873    -9137.762    -9044.987   -2414.4442    17201.747    21.753488 
   23630      817.099   -9136.1693   -9045.0207   -2122.2263    17202.743    21.781402 
   23640    811.46418   -9135.4776   -9044.9576   -1898.7214    17201.969    21.803872 
   23650    838.52115   -9138.3392   -9044.8009   -2908.2748    17199.454    21.822468 
   23660    850.72823   -9139.4776   -9044.5776   -3192.2781    17194.493    21.848392 
   23670    844.55828   -9138.5021   -9044.2904   -2895.3251    17186.845    21.895226 
   23680    849.19356   -9138.6775   -9043.9487   -2546.8367    17176.697    21.952933 
   23690    843.11803   -9137.5925   -9043.5414    -1350.904    17164.407    21.997668 
   23700    855.12728   -9138.4536   -9043.0628   -124.89922    17150.932    22.039971 
   23710    856.46315   -9138.0667   -9042.5269    851.22521    17137.325    22.088842 
   23720    848.22962   -9136.5704   -9041.9491    1510.3627    17124.424    22.130998 
   23730     860.6646   -9137.3338   -9041.3253    1642.9583    17112.763    22.170543 
   23740    861.66227   -9136.7902   -9040.6704    2307.1475    17102.542    22.216044 
   23750    837.32572   -9133.4153   -9040.0104    3349.4731     17094.29    22.261235 
   23760    841.04695   -9133.1435   -9039.3234    4733.4114    17088.924    22.291718 
   23770    881.00653   -9136.9088   -9038.6312    5671.7822    17087.534    22.312747 
   23780    893.13103   -9137.6589   -9038.0288    6438.9831    17090.985    22.339943 
   23790    893.49066   -9137.2619   -9037.5917    5898.5802    17099.825    22.371961 
   23800    887.39331   -9136.2799   -9037.2898    4405.3366    17113.679    22.389036 
   23810    903.00067   -9137.8001    -9037.069    1784.3707     17131.26    22.386273 
   23820    889.62081   -9136.1493   -9036.9107   -17.560616    17150.524    22.365843 
   23830    897.82471   -9136.9686   -9036.8149   -1920.2723    17169.823    22.333513 
   23840    899.64988   -9137.1373     -9036.78   -3022.2054    17187.599    22.291097 
   23850    874.21884   -9134.3327   -9036.8122   -3437.8496    17202.876    22.233867 
   23860    860.40411   -9132.8391   -9036.8597   -4639.0798    17215.164    22.172632 
   23870    858.81088   -9132.7011   -9036.8994   -5759.6601    17223.469    22.124171 
   23880    846.25403   -9131.3341   -9036.9332   -5332.6626    17226.912    22.092453 
   23890    820.41981   -9128.4502   -9036.9311   -3749.1017    17225.826    22.079099 
   23900    853.66509   -9132.0877   -9036.8601   -3068.2478    17221.436    22.079772 
   23910    899.78718   -9137.1451   -9036.7725   -3500.8828    17214.312    22.086421 
   23920    881.43965   -9135.0861   -9036.7602    -2801.885    17204.263    22.094213 
   23930    847.96065   -9131.3795   -9036.7882   -1189.4617    17191.879    22.111262 
   23940    855.69693   -9132.2642   -9036.8099    210.30794    17178.437    22.144571 
   23950     867.0184     -9133.54   -9036.8228    2057.6661    17165.172    22.190285 
   23960    847.09532   -9131.3035   -9036.8087    4834.7414    17153.759    22.235653 
   23970     856.9678   -9132.3753   -9036.7792    6299.2656    17146.388     22.26984 
   23980    859.46614   -9132.6137    -9036.739    6286.1505    17144.306    22.300001 
   23990    871.62881   -9133.9466   -9036.7151    5728.9529    17147.569    22.329144 
   24000    884.33119   -9135.3755    -9036.727    4816.0378    17155.723     22.35473 
   24010    877.08769   -9134.6061   -9036.7656    3014.8444    17167.956    22.376308 
   24020    875.56282   -9134.5009   -9036.8306    1407.1554    17182.847     22.39879 
   24030    865.80458   -9133.4898    -9036.908    118.14412    17199.002    22.423099 
   24040    857.83165   -9132.6729   -9036.9805   -970.89129    17215.339    22.446617 
   24050    884.18829   -9135.6969   -9037.0644   -2516.4796    17230.836    22.470137 
   24060    864.36908   -9133.5807    -9037.159    -2894.107    17244.266    22.488545 
   24070     852.6721   -9132.3903   -9037.2734   -2044.7741    17255.301    22.505824 
   24080    849.76228   -9132.1655   -9037.3733   -1158.0223    17264.572    22.526989 
   24090    856.47255   -9132.9883   -9037.4475   -662.72316    17272.829    22.547214 
   24100    863.15989   -9133.7846   -9037.4978   -1603.3314    17280.399       22.554 
   24110    869.68849   -9134.5695   -9037.5544   -3440.2917    17286.538    22.548445 
   24120    868.62493   -9134.5365   -9037.6401   -4530.4058    17289.789    22.546962 
   24130    840.06042   -9131.4492   -9037.7392   -3799.5907    17289.271    22.559332 
   24140    849.28334   -9132.5839   -9037.8451   -2371.9107    17285.492    22.579516 
   24150    846.37115   -9132.3546   -9037.9406   -598.16728    17279.676    22.596813 
   24160     839.1321   -9131.6257   -9038.0193    866.92129     17273.31    22.608004 
   24170    871.15597   -9135.2658    -9038.087    695.02209    17267.531    22.603799 
   24180    879.61998   -9136.2812   -9038.1583    296.10067    17262.304    22.579825 
   24190      869.038   -9135.2013   -9038.2588    324.75857    17257.357    22.542551 
   24200    860.08104   -9134.3159   -9038.3726    -357.8115    17252.633    22.503151 
   24210    866.28337   -9135.1337   -9038.4985   -1783.3299    17247.519    22.470576 
   24220    862.21921    -9134.822   -9038.6401    -1908.804    17240.946    22.446171 
   24230    837.49782      -9132.2   -9038.7759   -523.44455    17232.843    22.422403 
   24240    856.76379   -9134.4871   -9038.9138    656.32171    17224.242    22.393783 
   24250    870.78002   -9136.2077   -9039.0709    1731.3007     17216.21    22.371401 
   24260    880.74021   -9137.5138   -9039.2659    2349.1729    17209.653    22.357289 
   24270     893.9842   -9139.2533    -9039.528    2334.9163    17205.078    22.341212 
   24280    877.10076   -9137.7069    -9039.865     2858.203     17202.56    22.326639 
   24290    865.98613   -9136.8453   -9040.2433    3457.8792    17202.505    22.321014 
   24300    868.07183   -9137.4842   -9040.6495    3568.3531    17205.415    22.320035 
   24310    864.96337   -9137.5616   -9041.0736    2971.6936    17211.359    22.317566 
   24320      856.324   -9137.0476   -9041.5233    2600.7169    17219.911    22.318729 
   24330    854.33654   -9137.2831   -9041.9806    2203.0896    17230.727    22.327735 
   24340    871.23668   -9139.6393   -9042.4515    1710.0721    17243.463    22.340536 
   24350    853.65876   -9138.1629   -9042.9359    1545.6755    17257.714    22.351787 
   24360    839.93263   -9137.0986   -9043.4029    824.00562    17273.274    22.353637 
   24370    849.56465   -9138.5972    -9043.827   -506.73721    17289.504    22.344498 
   24380     827.6287   -9136.5236   -9044.2003    48.258831    17305.476    22.334837 
   24390    812.90095   -9135.1775   -9044.4972     371.9003    17321.483    22.337801 
   24400    822.96076   -9136.4884   -9044.6859   -675.53321    17337.754     22.35232 
   24410    837.40671   -9138.1768   -9044.7628   -3160.9593    17353.346    22.371124 
   24420    860.79062   -9140.7814   -9044.7589   -5663.3216    17366.165    22.396383 
   24430    837.08794   -9138.0914    -9044.713   -5869.6015    17374.219    22.424725 
   24440    827.81323   -9136.9881   -9044.6443   -5576.3066    17377.131    22.446858 
   24450     840.4274   -9138.2627   -9044.5118   -5479.7708    17375.108    22.462946 
   24460    846.70422   -9138.7672   -9044.3161    -4731.311     17368.37    22.469548 
   24470    842.93784   -9138.1298   -9044.0988   -3913.2071     17357.48    22.465018 
   24480    821.80544   -9135.5139   -9043.8403   -2213.7848    17343.268    22.462461 
   24490    824.95793   -9135.5208   -9043.4955   -941.11852    17327.109    22.460579 
   24500    849.24528   -9137.7904   -9043.0558    57.606618     17310.16    22.450005 
   24510    873.21039   -9139.9679     -9042.56    1071.1416    17293.301    22.427756 
   24520     883.2818    -9140.599   -9042.0676    2704.8467    17277.479     22.39703 
   24530     840.8287   -9135.3618   -9041.5661    5207.8301    17264.156    22.368308 
   24540    854.47051    -9136.359   -9041.0415    6150.8511    17255.275    22.355023 
   24550    877.46374   -9138.3905   -9040.5081     5391.953    17251.603    22.347371 
   24560    853.75956   -9135.2385   -9040.0003    4794.0916    17252.659    22.333321 
   24570    875.50171   -9137.1714   -9039.5078    3110.9904    17257.743     22.31926 
   24580    846.07288   -9133.3903   -9039.0096     3133.358     17265.68    22.315056 
   24590    839.86769   -9132.1969   -9038.5084    2965.1679    17276.262    22.315045 
   24600    861.42814   -9134.0892   -9037.9956    3095.4007    17289.397    22.315445 
   24610    842.34784   -9131.4476   -9037.4824    2809.5006    17305.154     22.31368 
   24620    902.38053   -9137.6543   -9036.9924    103.77038     17323.08    22.304378 
   24630    917.90305   -9138.9484    -9036.555   -1896.1314     17341.07     22.29921 
   24640    890.19498   -9135.5631   -9036.2605    -1831.435    17357.473    22.308362 
   24650    898.49744   -9136.3095   -9036.0807   -2033.3696    17372.134    22.325596 
   24660    887.89861   -9135.0181   -9035.9717   -1696.0408    17385.017    22.336432 
   24670    883.91026   -9134.5345    -9035.933   -2344.8881    17396.274    22.333522 
   24680    873.40705   -9133.3568    -9035.927   -3929.6678     17405.33    22.325137 
   24690    890.38101      -9135.3   -9035.9767   -5490.5376    17410.861    22.317635 
   24700    877.82709   -9134.0046   -9036.0817   -6061.8473    17411.624    22.318623 
   24710    870.46279   -9133.3493   -9036.2479   -5697.3331    17407.113    22.333415 
   24720    867.54997   -9133.2091   -9036.4326   -4358.9932    17397.713    22.355739 
   24730    867.43655    -9133.381   -9036.6172   -2518.4005     17384.61    22.383652 
   24740    874.95979   -9134.3989   -9036.7958   -970.30395    17369.359    22.412979 
   24750    880.19705   -9135.1745   -9036.9872    1361.9193    17353.441     22.43066 
   24760    865.31993   -9133.7122   -9037.1845    3834.2526     17338.83    22.436298 
   24770    857.76653    -9133.062   -9037.3768    5645.8641    17327.608    22.443469 
   24780    872.62532   -9134.9235   -9037.5808    6383.5255    17321.307    22.455526 
   24790    868.11175    -9134.667   -9037.8278    6743.5569     17320.58    22.465395 
   24800    863.01708   -9134.3767   -9038.1058    5988.0721    17325.636    22.477965 
   24810    873.58541   -9135.8383   -9038.3886     3766.919    17335.795    22.491067 
   24820    889.21664   -9137.9099   -9038.7165    1128.1154    17349.155    22.496296 
   24830    848.91699   -9133.7658   -9039.0678   -409.24846    17363.554    22.496647 
   24840    853.24612    -9134.597   -9039.4161   -1856.1442    17377.549    22.499323 
   24850    879.92983   -9137.9169   -9039.7594   -3239.7552    17389.875    22.504951 
   24860    882.90264   -9138.6635   -9040.1743   -3822.9246    17399.362    22.511364 
   24870    855.69948   -9136.1155    -9040.661   -4146.8811    17405.453    22.522047 
   24880    823.56901   -9133.0458   -9041.1754   -3615.4305    17407.938    22.536058 
   24890    798.71641   -9130.7412   -9041.6431   -2228.1354    17407.284    22.541492 
   24900    837.71879   -9135.5124   -9042.0636   -1422.0739    17404.624    22.540239 
   24910    844.92214   -9136.7467   -9042.4943   -527.68638    17400.741    22.546384 
   24920    840.04952    -9136.677   -9042.9682     690.2617    17396.464    22.559826 
   24930    843.45433    -9137.601   -9043.5124    794.14288    17392.731    22.576012 
   24940    833.57462   -9137.1472   -9044.1607    533.08651    17389.685    22.593829 
   24950     833.8047   -9137.9253   -9044.9131    815.71395    17387.176    22.612159 
   24960     817.5345   -9136.9501   -9045.7529    1030.8443    17385.393    22.628152 
   24970    828.26674   -9139.0602   -9046.6658    644.51574    17384.482    22.641756 
   24980    833.09964   -9140.5493   -9047.6158    83.570008    17384.165    22.654827 
   24990    819.71703   -9139.9883   -9048.5477   -410.95214    17383.948    22.670232 
   25000    798.52203   -9138.4395   -9049.3631   -908.45075    17383.392    22.685983 
Loop time of 13561.9 on 16 procs for 20000 steps with 864 atoms

Performance: 0.127 ns/day, 188.360 hours/ns, 1.475 timesteps/s
97.3% CPU use with 16 MPI tasks x 1 OpenMP threads

MPI task timing breakdown:
Section |  min time  |  avg time  |  max time  |%varavg| %total
---------------------------------------------------------------
Pair    | 1859.1     | 7615.4     | 13380      |4693.5 | 56.15
Bond    | 0.001693   | 0.0039493  | 0.0099044  |   3.3 |  0.00
Neigh   | 0.11604    | 0.37147    | 0.66668    |  33.2 |  0.00
Comm    | 158.56     | 4666.9     | 9342       |4659.1 | 34.41
Output  | 1.7599     | 1.7888     | 2.2158     |   8.2 |  0.01
Modify  | 21.292     | 1277.4     | 4368.9     |4065.1 |  9.42
Other   |            | 0.09531    |            |       |  0.00

Nlocal:        54.0000 ave          85 max          23 min
Histogram: 4 2 0 1 0 2 1 1 1 4
Nghost:        542.750 ave         797 max         340 min
Histogram: 4 0 1 1 3 3 0 2 0 2
Neighs:         0.00000 ave           0 max           0 min
Histogram: 16 0 0 0 0 0 0 0 0 0
FullNghs:      3112.50 ave        6104 max         569 min
Histogram: 5 1 0 1 2 1 1 1 0 4

Total # of neighbors = 49800
Ave neighs/atom = 57.638889
Ave special neighs/atom = 0.0000000
Neighbor list builds = 2000
Dangerous builds = 2000
Total wall time: 4:44:16
