LAMMPS (2 Aug 2023)
OMP_NUM_THREADS environment is not set. Defaulting to 1 thread. (src/comm.cpp:98)
  using 1 OpenMP thread(s) per MPI task
read_restart    ../structure.ready
Reading restart file ...
  restart file = 2 Aug 2023, LAMMPS = 2 Aug 2023
  restoring atom style full from restart
  orthogonal box = (-0.33623157 -0.341427 -13.879934) to (25.471202 25.476397 89.284846)
  1 by 1 by 1 MPI processor grid
  pair style chgnet/gpu stores no restart info
  1536 atoms
Finding 1-2 1-3 1-4 neighbors ...
  special bond factors lj:    0        0        0       
  special bond factors coul:  0        0        0       
     0 = max # of 1-2 neighbors
     0 = max # of 1-3 neighbors
     0 = max # of 1-4 neighbors
     1 = max # of special neighbors
  special bonds CPU = 0.000 seconds
  read_restart CPU = 0.003 seconds

pair_style      chgnet/gpu /ocean/projects/cts180021p/wuziqi/clease/lammps-ASC/potentials/CHGNET
pair_coeff      * * MPtrj-efsm Cl K

neighbor        0.3 bin
neigh_modify    delay 10

timestep	    0.001
compute	        msd all msd
Resetting peratom fix info from restart file:
  fix style: STORE/ATOM, fix ID: msd_COMPUTE_STORE
thermo_style	custom step temp pe etotal press vol c_msd[4]
thermo	        10
dump	        1 all custom 10 xyz-mix.dump type id x y z
dump	        2 all custom 10 force-mix.dump type id fx fy fz

fix             2 gLiquid npt temp 1500 450.0 $(100.0*dt) z 1.01325 1.01325 $(1000.0*dt) couple none
fix             2 gLiquid npt temp 1500 450.0 0.10000000000000000555 z 1.01325 1.01325 $(1000.0*dt) couple none
fix             2 gLiquid npt temp 1500 450.0 0.10000000000000000555 z 1.01325 1.01325 1 couple none
run             10000
All restart file peratom fix info was re-assigned
Neighbor list info ...
  update: every = 1 steps, delay = 10 steps, check = yes
  max neighbors/atom: 2000, page size: 100000
  master list distance cutoff = 6.3
  ghost atom cutoff = 6.3
  binsize = 3.15, bins = 9 9 33
  1 neighbor lists, perpetual/occasional/extra = 1 0 0
  (1) pair chgnet/gpu, perpetual
      attributes: full, newton on
      pair build: full/bin
      stencil: full/bin/3d
      bin: standard
Per MPI rank memory allocation (min/avg/max) = 6.512 | 6.512 | 6.512 Mbytes
   Step          Temp          PotEng         TotEng         Press          Volume        c_msd[4]   
     20000   1480.9672     -5265.483      -4971.6379      1074.1684      68737.846      80.319031    
     20010   1474.5465     -5264.1724     -4971.6012      1165.4816      68739.028      80.428916    
     20020   1471.0108     -5263.3579     -4971.4883      1238.8392      68742.748      80.559208    
     20030   1460.1582     -5260.9871     -4971.2708      1216.7053      68749.016      80.706523    
     20040   1460.8593     -5260.7853     -4970.9299      1036.539       68757.407      80.864115    
     20050   1471.1503     -5262.3468     -4970.4495      751.36484      68767.187      81.024356    
     20060   1474.7142     -5262.4559     -4969.8515      464.41613      68777.593      81.181653    
     20070   1485.4607     -5263.8926     -4969.1559      135.94989      68787.908      81.332071    
     20080   1495.2233     -5265.0542     -4968.3805     -108.26706      68797.524      81.473243    
     20090   1500.2467     -5265.2377     -4967.5672     -174.93057      68806.292      81.606634    
     20100   1496.1342     -5263.5868     -4966.7323     -14.501523      68814.471      81.736758    
     20110   1479.6193     -5259.4435     -4965.8658      301.82942      68822.442      81.868308    
     20120   1468.0559     -5256.1967     -4964.9133      580.96424      68830.525      82.004312    
     20130   1475.6087     -5256.6178     -4963.8359      645.4833       68838.782      82.145935    
     20140   1496.266      -5259.5131     -4962.6325      644.73062      68846.995      82.292686    
     20150   1512.3837     -5261.4536     -4961.375       644.80766      68855.103      82.443917    
     20160   1520.949      -5261.9198     -4960.1417      642.20699      68863.397      82.599845    
     20170   1531.8658     -5262.9313     -4958.9872      586.84893      68872.211      82.762047    
     20180   1538.2106     -5263.1689     -4957.9659      519.14877      68881.667      82.933049    
     20190   1545.4401     -5263.7618     -4957.1244      503.9711       68891.753      83.113847    
     20200   1549.4562     -5263.9307     -4956.4964      558.41385      68902.399      83.302421    
     20210   1533.9852     -5260.4575     -4956.0929      772.25946      68913.664      83.495474    
     20220   1525.4882     -5258.5657     -4955.887       969.19707      68925.815      83.690203    
     20230   1533.2964     -5260.0847     -4955.8567      1072.6268      68939.081      83.886356    
     20240   1542.4602     -5262.0978     -4956.0516      1180.6239      68953.639      84.085806    
     20250   1531.4047     -5260.3894     -4956.5368      1444.4162      68969.754      84.291445    
     20260   1508.2646     -5256.5793     -4957.318       1765.9125      68987.923      84.507338    
     20270   1494.5785     -5254.9427     -4958.397       1913.1075      69008.661      84.737224    
     20280   1501.5101     -5257.7303     -4959.8092      1759.5796      69032.249      84.984386    
     20290   1516.9556     -5262.6449     -4961.6592      1466.4038      69058.502      85.249666    
     20300   1514.4552     -5264.488      -4963.9984      1304.0019      69087.088      85.532232    
     20310   1483.676      -5261.0533     -4966.6708      1409.6809      69117.989      85.832141    
     20320   1444.4927     -5255.8817     -4969.2737      1548.6247      69151.504      86.149709    
     20330   1440.3908     -5257.2708     -4971.4766      1429.6001      69187.816      86.482662    
     20340   1457.9651     -5262.4915     -4973.2103      1162.1081      69226.643      86.828498    
     20350   1461.5647     -5264.532      -4974.5366      1029.1115      69267.434      87.186182    
     20360   1463.0066     -5265.8357     -4975.5542      934.53131      69309.808      87.554248    
     20370   1465.1466     -5267.0548     -4976.3487      833.52025      69353.484      87.930803    
     20380   1476.8103     -5270.0383     -4977.018       684.54818      69398.238      88.315568    
     20390   1476.5998     -5270.6133     -4977.6347      573.64629      69443.958      88.710685    
     20400   1459.0341     -5267.7118     -4978.2185      613.58695      69490.724      89.119315    
     20410   1449.2381     -5266.3059     -4978.7563      586.04482      69538.829      89.544572    
     20420   1445.6947     -5266.0723     -4979.2257      481.63021      69588.459      89.987214    
     20430   1441.8808     -5265.7262     -4979.6364      348.66221      69639.729      90.445893    
     20440   1438.4413     -5265.3896     -4979.9823      238.4211       69692.413      90.915625    
     20450   1429.1972     -5263.8274     -4980.2542      247.2721       69746.03       91.389753    
     20460   1418.4066     -5261.863      -4980.4308      295.5032       69800.177      91.864017    
     20470   1420.0804     -5262.2585     -4980.4943      340.26469      69854.576      92.337493    
     20480   1434.7798     -5265.134      -4980.4532      277.28607      69908.921      92.810044    
     20490   1440.3733     -5266.1521     -4980.3614      331.28793      69962.964      93.280597    
     20500   1430.8379     -5264.1339     -4980.2352      569.23197      70016.89       93.751006    
     20510   1426.6024     -5263.121      -4980.0626      749.16576      70071.178      94.224862    
     20520   1438.0636     -5265.16       -4979.8276      801.4599       70126.082      94.702947    
     20530   1442.6012     -5265.7815     -4979.5488      834.83165      70181.578      95.183907    
     20540   1427.306      -5262.4453     -4979.2474      951.08418      70237.627      95.66697     
     20550   1414.8767     -5259.6138     -4978.882       1017.1608      70294.288      96.151004    
     20560   1432.9519     -5262.7332     -4978.415       722.82531      70351.557      96.632656    
     20570   1459.4551     -5267.4587     -4977.8819      363.0454       70409.205      97.110297    
     20580   1463.1353     -5267.6847     -4977.3777      262.29066      70467.096      97.588357    
     20590   1451.1199     -5264.8528     -4976.9298      370.39743      70525.308      98.07309     
     20600   1455.2189     -5265.2505     -4976.5142      456.63165      70583.869      98.567159    
     20610   1479.4952     -5269.6967     -4976.1436      324.57092      70642.584      99.068679    
     20620   1493.2813     -5272.1788     -4975.8904      233.92731      70701.098      99.574916    
     20630   1484.451      -5270.3657     -4975.8294      317.36532      70759.131      100.08447    
     20640   1465.2494     -5266.6765     -4975.9501      380.83861      70816.668      100.59717    
     20650   1446.2994     -5263.1741     -4976.2076      429.80121      70873.863      101.11356    
     20660   1430.923      -5260.4579     -4976.5423      376.87893      70930.859      101.63358    
     20670   1417.6959     -5258.1954     -4976.9043      272.59226      70987.632      102.15549    
     20680   1404.8313     -5255.9872     -4977.2485      160.90853      71044.016      102.67803    
     20690   1403.9087     -5256.0989     -4977.5433     -36.389426      71099.823      103.20074    
     20700   1407.6059     -5257.0664     -4977.7772     -215.69727      71154.625      103.72109    
     20710   1402.3891     -5256.204      -4977.9499     -302.33891      71207.752      104.23396    
     20720   1385.6489     -5252.9784     -4978.0458     -205.52056      71258.638      104.73465    
     20730   1377.0956     -5251.2642     -4978.0287     -131.9374       71307.21       105.22295    
     20740   1379.0907     -5251.4916     -4977.8602     -178.46018      71353.702      105.70262    
     20750   1378.5343     -5251.0397     -4977.5187     -179.29299      71398.469      106.17811    
     20760   1373.5628     -5249.5228     -4976.9883     -153.08214      71442          106.65248    
     20770   1382.3407     -5250.5068     -4976.2306     -216.34646      71484.745      107.12625    
     20780   1404.5691     -5253.9258     -4975.2392     -386.42683      71526.741      107.59661    
     20790   1430.3847     -5257.8735     -4974.0647     -541.9248       71567.646      108.05936    
     20800   1441.5968     -5258.848      -4972.8146     -594.84149      71607.051      108.51101    
     20810   1437.0505     -5256.7068     -4971.5754     -474.72203      71644.719      108.9488     
     20820   1431.5698     -5254.4249     -4970.381      -360.85253      71680.695      109.37178    
     20830   1426.7722     -5252.3269     -4969.2349     -217.42333      71715.153      109.78117    
     20840   1421.6575     -5250.2186     -4968.1414     -97.898937      71748.44       110.18019    
     20850   1420.495      -5248.9457     -4967.0991     -59.017898      71780.905      110.57116    
     20860   1422.5835     -5248.3696     -4966.1087     -59.728159      71812.732      110.95425    
     20870   1432.2395     -5249.3635     -4965.1867     -135.96609      71843.976      111.32805    
     20880   1448.4165     -5251.7538     -4964.3672     -312.99693      71874.627      111.6906     
     20890   1461.4722     -5253.6812     -4963.7041     -539.81226      71904.484      112.03888    
     20900   1469.7929     -5254.8776     -4963.2496     -612.36465      71933.196      112.37173    
     20910   1462.7945     -5253.2677     -4963.0283     -532.25533      71960.463      112.69129    
     20920   1446.7792     -5250.0784     -4963.0167     -327.52774      71986.188      113.00079    
     20930   1441.5199     -5249.1914     -4963.1732     -203.0568       72010.572      113.30453    
     20940   1449.0465     -5250.9917     -4963.4801     -217.80372      72033.894      113.60736    
     20950   1453.7924     -5252.4185     -4963.9652     -189.92286      72056.351      113.91318    
     20960   1440.8499     -5250.5332     -4964.6479     -20.216113      72078.162      114.22496    
     20970   1408.5344     -5244.9529     -4965.4795      254.11881      72099.621      114.54537    
     20980   1389.4333     -5242.0258     -4966.3423      352.62968      72120.834      114.87402    
     20990   1397.8172     -5244.5471     -4967.2002      213.93568      72141.565      115.20658    
     21000   1402.2498     -5246.3079     -4968.0814      56.126567      72161.669      115.53878    
     21010   1397.8389     -5246.3401     -4968.9888      4.0875167      72181.274      115.86785    
     21020   1397.2116     -5247.1458     -4969.919      -113.88719      72200.794      116.19472    
     21030   1411.3982     -5250.9104     -4970.8688     -384.13783      72220.267      116.51938    
     21040   1430.2913     -5255.6854     -4971.8951     -699.91544      72239.059      116.83715    
     21050   1435.009      -5257.7545     -4973.0282     -854.16264      72256.574      117.14423    
     21060   1433.4895     -5258.7008     -4974.276      -930.85335      72272.669      117.4404     
     21070   1426.0963     -5258.5452     -4975.5872     -820.479        72287.609      117.72814    
     21080   1402.2775     -5255.0933     -4976.8613     -553.94747      72301.971      118.01168    
     21090   1385.9598     -5252.985      -4977.9907     -344.95538      72316.352      118.2955     
     21100   1376.7042     -5252.0673     -4978.9094     -205.00513      72331.123      118.58394    
     21110   1369.63       -5251.3594     -4979.6052     -89.660342      72346.429      118.87821    
     21120   1367.6377     -5251.4561     -4980.0972     -13.64734       72362.271      119.17565    
     21130   1370.0262     -5252.2639     -4980.4311      6.4370978      72378.583      119.47224    
     21140   1379.0953     -5254.2927     -4980.6605     -149.72825      72395.328      119.76672    
     21150   1388.0513     -5256.2556     -4980.8464     -298.18659      72412.43       120.06045    
     21160   1395.3022     -5257.8728     -4981.0249     -415.08959      72429.869      120.35608    
     21170   1404.4332     -5259.8976     -4981.2379     -532.31557      72447.538      120.65403    
     21180   1407.4753     -5260.778      -4981.5147     -656.65576      72465.138      120.95232    
     21190   1401.7974     -5260.0038     -4981.8671     -742.87219      72482.557      121.25089    
     21200   1398.2971     -5259.7328     -4982.2906     -846.31736      72499.994      121.55097    
     21210   1393.6527     -5259.2911     -4982.7705     -903.03455      72517.768      121.8522     
     21220   1395.095      -5260.1111     -4983.3043     -978.40247      72536.185      122.15346    
     21230   1402.3582     -5262.156      -4983.908      -1094.6939      72555.36       122.45385    
     21240   1401.312      -5262.6434     -4984.6031     -1132.5673      72575.113      122.75173    
     21250   1404.7798     -5264.12       -4985.3916     -1213.2716      72595.136      123.04505    
     21260   1408.3809     -5265.7339     -4986.2909     -1230.8244      72615.239      123.33311    
     21270   1397.4352     -5264.569      -4987.2978     -1121.071       72635.239      123.61619    
     21280   1375.2574     -5261.2357     -4988.365      -867.3728       72655.09       123.89709    
     21290   1351.3789     -5257.5304     -4989.3975     -590.80416      72674.976      124.1797     
     21300   1342.9196     -5256.7808     -4990.3263     -440.57446      72695.069      124.46459    
     21310   1351.5996     -5259.3215     -4991.1448     -486.35323      72715.44       124.75013    
     21320   1362.8062     -5262.297      -4991.8967     -624.84495      72736.05       125.03572    
     21330   1360.4802     -5262.5405     -4992.6018     -744.2178       72756.883      125.32214    
     21340   1363.4463     -5263.801      -4993.2738     -937.5646       72777.906      125.61054    
     21350   1369.5212     -5265.665      -4993.9324     -1149.5817      72798.752      125.9018     
     21360   1366.6532     -5265.7533     -4994.5897     -1267.1091      72818.748      126.19371    
     21370   1346.1619     -5262.3322     -4995.2344     -1187.3404      72837.359      126.48175    
     21380   1318.3433     -5257.3854     -4995.8072     -976.08795      72854.472      126.76234    
     21390   1299.7088     -5254.1111     -4996.2302     -775.01877      72870.382      127.03461    
     21400   1299.2947     -5254.2645     -4996.4658     -770.26241      72885.563      127.29953    
     21410   1325.1172     -5259.457      -4996.5348     -989.53536      72900.298      127.55709    
     21420   1354.3477     -5265.2307     -4996.5087     -1290.7156      72914.462      127.80705    
     21430   1364.4309     -5267.2104     -4996.4878     -1452.3361      72927.672      128.04969    
     21440   1357.1742     -5265.7939     -4996.5111     -1468.8427      72939.74       128.28574    
     21450   1344.7772     -5263.389      -4996.566      -1362.8131      72950.773      128.51677    
     21460   1334.5511     -5261.4089     -4996.6149     -1287.1453      72960.944      128.74372    
     21470   1322.8091     -5259.0894     -4996.6251     -1124.474       72970.318      128.96456    
     21480   1309.1462     -5256.304      -4996.5506     -962.78326      72978.984      129.17535    
     21490   1314.4356     -5257.1642     -4996.3613     -959.63449      72987.097      129.37334    
     21500   1325.9236     -5259.141      -4996.0588     -952.34204      72994.769      129.55987    
     21510   1316.1376     -5256.7877     -4995.6472     -825.68288      73002.04       129.73813    
     21520   1313.5965     -5255.7426     -4995.1062     -730.75438      73009.055      129.91072    
     21530   1336.3905     -5259.5643     -4994.4053     -910.8254       73015.862      130.08025    
     21540   1358.8781     -5263.1902     -4993.5693     -1233.6909      73022.111      130.24828    
     21550   1368.463      -5264.1892     -4992.6665     -1428.8962      73027.044      130.4107     
     21560   1374.1141     -5264.3826     -4991.7386     -1569.3815      73029.807      130.55872    
     21570   1388.9118     -5266.403      -4990.823      -1733.7528      73029.777      130.6844     
     21580   1395.4436     -5266.8402     -4989.9642     -1715.7473      73026.739      130.784      
     21590   1374.9587     -5262.0209     -4989.2094     -1408.3961      73020.985      130.85825    
     21600   1339.5661     -5254.3004     -4988.5113     -940.02946      73013.134      130.91118    
     21610   1331.001      -5251.8552     -4987.7656     -677.31683      73003.899      130.94837    
     21620   1354.6969     -5255.7023     -4986.911      -633.74865      72993.712      130.97393    
     21630   1376.5092     -5259.1227     -4986.0035     -646.242        72982.681      130.98927    
     21640   1382.7621     -5259.4933     -4985.1335     -569.67365      72970.857      130.99517    
     21650   1382.7928     -5258.7264     -4984.3605     -490.85031      72958.561      130.99525    
     21660   1384.8826     -5258.4946     -4983.7141     -488.45935      72946.136      130.99375    
     21670   1386.6316     -5258.3383     -4983.2107     -537.34623      72933.631      130.99166    
     21680   1387.2795     -5258.1442     -4982.888      -653.2105       72920.839      130.98693    
     21690   1393.3784     -5259.2406     -4982.7744     -775.06016      72907.582      130.97776    
     21700   1396.7841     -5260.0657     -4982.9237     -907.09765      72893.889      130.96584    
     21710   1375.0878     -5256.2043     -4983.3672     -822.21838      72879.923      130.95529    
     21720   1346.9663     -5251.3165     -4984.0591     -721.77582      72866.082      130.95149    
     21730   1346.5573     -5252.1259     -4984.9496     -787.39869      72852.655      130.95681    
     21740   1360.2143     -5255.948      -4986.062      -1044.2882      72839.345      130.96658    
     21750   1362.3144     -5257.7355     -4987.4328     -1204.1991      72825.358      130.97131    
     21760   1361.2902     -5259.145      -4989.0456     -1324.8107      72809.966      130.96428    
     21770   1351.0594     -5258.8986     -4990.829      -1313.3739      72792.805      130.94331    
     21780   1333.2099     -5257.1591     -4992.6311     -1201.699       72774.021      130.90931    
     21790   1318.7556     -5255.967      -4994.307      -1064.394       72753.937      130.86442    
     21800   1306.7882     -5255.042      -4995.7565     -962.0032       72732.687      130.8095     
     21810   1306.529      -5256.1959     -4996.9619     -954.22728      72710.359      130.74571    
     21820   1311.4848     -5258.1786     -4997.9612     -1074.6636      72687.049      130.67563    
     21830   1306.1063     -5257.9482     -4998.7981     -1072.098       72662.772      130.60137    
     21840   1290.2366     -5255.4913     -4999.4899     -1008.9608      72637.665      130.52695    
     21850   1286.7182     -5255.3361     -5000.0327     -1061.2763      72611.988      130.45655    
     21860   1292.3567     -5256.8815     -5000.4594     -1215.56        72586.001      130.3906     
     21870   1290.2245     -5256.7928     -5000.7938     -1327.4969      72559.945      130.32767    
     21880   1282.5911     -5255.5415     -5001.0571     -1335.6809      72534.113      130.26714    
     21890   1271.9256     -5253.5995     -5001.2312     -1279.3226      72508.69       130.20737    
     21900   1279.5256     -5255.1914     -5001.3152     -1298.9959      72483.532      130.14385    
     21910   1297.1603     -5258.7125     -5001.3373     -1361.5669      72458.013      130.07006    
     21920   1306.6403     -5260.611      -5001.3548     -1299.7563      72431.458      129.97999    
     21930   1304.544      -5260.2404     -5001.4001     -1084.052       72403.468      129.8692     
     21940   1298.6857     -5259.145      -5001.4672     -857.4574       72373.859      129.73564    
     21950   1303.8321     -5260.2521     -5001.5531     -778.7382       72342.753      129.58121    
     21960   1317.0888     -5262.9983     -5001.669      -799.91291      72310.571      129.41296    
     21970   1328.5305     -5265.4629     -5001.8634     -881.88972      72277.724      129.23877    
     21980   1338.5769     -5267.788      -5002.1951     -1011.0872      72244.363      129.06215    
     21990   1350.5242     -5270.6821     -5002.7188     -1185.477       72210.347      128.88263    
     22000   1354.2085     -5272.1876     -5003.4933     -1388.2569      72175.307      128.69835    
     22010   1347.2549     -5271.8525     -5004.5379     -1479.4227      72138.798      128.50632    
     22020   1331.281      -5269.96       -5005.8147     -1466.6176      72100.567      128.30372    
     22030   1309.097      -5266.9746     -5007.231      -1375.9205      72060.609      128.08776    
     22040   1290.6635     -5264.7462     -5008.6601     -1307.1186      72019.038      127.8545     
     22050   1285.5635     -5265.0978     -5010.0236     -1320.2844      71975.849      127.60022    
     22060   1284.5141     -5266.1451     -5011.2791     -1396.3022      71930.891      127.32432    
     22070   1288.0031     -5267.9718     -5012.4135     -1468.3352      71883.968      127.02864    
     22080   1293.7733     -5270.1453     -5013.4421     -1489.001       71834.979      126.71653    
     22090   1286.295      -5269.5941     -5014.3748     -1400.9145      71784.017      126.39139    
     22100   1285.9056     -5270.3566     -5015.2145     -1356.801       71731.061      126.05319    
     22110   1295.99       -5273.1321     -5015.9891     -1305.1825      71675.886      125.70053    
     22120   1297.6203     -5274.1934     -5016.7269     -1113.3304      71618.414      125.33335    
     22130   1289.8566     -5273.3606     -5017.4346     -805.36819      71559.054      124.95492    
     22140   1282.4789     -5272.5553     -5018.0931     -577.20097      71498.521      124.56964    
     22150   1275.5856     -5271.7822     -5018.6878     -410.76405      71437.544      124.18152    
     22160   1272.9617     -5271.7969     -5019.223      -339.09901      71376.716      123.79414    
     22170   1273.6422     -5272.4154     -5019.7065     -373.29265      71316.344      123.41069    
     22180   1276.1248     -5273.3676     -5020.1661     -482.48515      71256.488      123.03467    
     22190   1283.1493     -5275.2158     -5020.6206     -614.79365      71197.013      122.66778    
     22200   1293.3802     -5277.7357     -5021.1106     -796.00408      71137.59       122.30884    
     22210   1295.6181     -5278.7377     -5021.6685     -901.94528      71077.834      121.95498    
     22220   1291.2423     -5278.5        -5022.299      -922.52642      71017.573      121.60285    
     22230   1281.3871     -5277.2241     -5022.9786     -787.88684      70956.977      121.25126    
     22240   1268.625      -5275.3737     -5023.6603     -561.54225      70896.636      120.90453    
     22250   1258.5548     -5274.0271     -5024.3118     -345.16622      70837.202      120.56932    
     22260   1252.6879     -5273.4635     -5024.9123     -218.75188      70779.083      120.25043    
     22270   1253.7077     -5274.215      -5025.4614     -207.0013       70722.384      119.94879    
     22280   1264.2472     -5276.8213     -5025.9765     -342.03269      70666.962      119.66111    
     22290   1280.5202     -5280.5779     -5026.5043     -549.15791      70612.592      119.38174    
     22300   1288.0218     -5282.6565     -5027.0945     -719.07492      70559.159      119.10663    
     22310   1285.1069     -5282.7491     -5027.7655     -837.47222      70506.692      118.83384    
     22320   1283.9448     -5283.2732     -5028.5202     -955.18424      70455.241      118.56327    
     22330   1280.0183     -5283.323      -5029.349      -1067.3741      70404.752      118.29603    
     22340   1270.5916     -5282.3412     -5030.2376     -1095.2753      70354.839      118.02956    
     22350   1258.807      -5280.91       -5031.1447     -1127.6583      70304.983      117.75878    
     22360   1246.0012     -5279.243      -5032.0186     -1138.9677      70254.822      117.48185    
     22370   1238.2432     -5278.496      -5032.8108     -1128.3731      70204.379      117.2013     
     22380   1236.4814     -5278.8365     -5033.5009     -1094.21        70153.939      116.92052    
     22390   1228.5379     -5277.8408     -5034.0813     -892.16434      70103.828      116.6408     
     22400   1212.2795     -5275.0686     -5034.535      -614.92982      70054.312      116.36188    
     22410   1203.033      -5273.528      -5034.829      -324.50887      70005.569      116.08239    
     22420   1212.4891     -5275.5388     -5034.9636     -262.90297      69957.866      115.80324    
     22430   1229.9133     -5279.0112     -5034.9788     -415.32599      69911.448      115.52712    
     22440   1251.2432     -5283.2238     -5034.9592     -688.17117      69866.165      115.25423    
     22450   1263.3626     -5285.6411     -5034.9719     -952.65157      69821.494      114.9825     
     22460   1264.3052     -5285.9125     -5035.0562     -1142.8275      69776.927      114.71031    
     22470   1264.3234     -5286.0817     -5035.2218     -1269.7556      69732.066      114.43695    
     22480   1263.5268     -5286.1652     -5035.4633     -1379.2775      69686.586      114.16262    
     22490   1262.8206     -5286.3351     -5035.7734     -1379.4109      69640.271      113.88748    
     22500   1259.1185     -5285.967      -5036.1399     -1206.1688      69593.109      113.61086    
     22510   1255.065      -5285.5635     -5036.5406     -994.05261      69545.386      113.33312    
     22520   1260.3024     -5287.0334     -5036.9714     -842.77911      69497.444      113.05583    
     22530   1270.3619     -5289.5123     -5037.4543     -772.9306       69449.464      112.78175    
     22540   1275.2514     -5291.0431     -5038.0149     -700.34453      69401.415      112.51412    
     22550   1275.6401     -5291.7689     -5038.6636     -617.49793      69353.15       112.25557    
     22560   1272.1421     -5291.7979     -5039.3866     -506.9898       69304.573      112.00722    
     22570   1265.6909     -5291.2819     -5040.1506     -445.68873      69255.812      111.76827    
     22580   1258.8701     -5290.6937     -5040.9159     -394.43447      69207.181      111.53737    
     22590   1249.4233     -5289.5581     -5041.6546     -286.78808      69158.98       111.31418    
     22600   1231.1932     -5286.616      -5042.3296     -126.00079      69111.359      111.09734    
     22610   1215.6982     -5284.106      -5042.894       10.032831      69064.415      110.88416    
     22620   1214.1865     -5284.2612     -5043.3492      26.450705      69018.151      110.67199    
     22630   1213.949      -5284.563      -5043.6981      32.782346      68972.329      110.45889    
     22640   1221.2834     -5286.2992     -5043.9791      5.871461       68926.676      110.24424    
     22650   1237.5388     -5289.7815     -5044.2361     -106.62145      68880.891      110.02788    
     22660   1253.8488     -5293.314      -5044.5324     -313.34621      68834.584      109.80933    
     22670   1260.6828     -5295.0553     -5044.9178     -446.3288       68787.463      109.58812    
     22680   1260.9551     -5295.6035     -5045.412      -556.18772      68739.437      109.3644     
     22690   1258.5209     -5295.7244     -5046.0158     -572.97466      68690.504      109.13927    
     22700   1247.4419     -5294.2255     -5046.7151     -523.94695      68640.751      108.91378    
     22710   1228.8041     -5291.2738     -5047.4615     -385.36368      68590.381      108.68745    
     22720   1200.7421     -5286.4178     -5048.1734     -157.72356      68539.836      108.45975    
     22730   1184.2183     -5283.7368     -5048.7709     -35.94134       68489.803      108.2317     
     22740   1194.6504     -5286.2853     -5049.2495     -155.3855       68440.649      108.0056     
     22750   1212.8978     -5290.3191     -5049.6628     -362.20958      68392.156      107.78244    
     22760   1220.8362     -5292.3007     -5050.0693     -475.13826      68343.927      107.56108    
     22770   1224.4992     -5293.4568     -5050.4986     -541.07079      68295.746      107.34138    
     22780   1235.3702     -5296.0891     -5050.974      -669.40004      68247.618      107.1254     
     22790   1250.1905     -5299.6014     -5051.5457     -817.42748      68199.451      106.91372    
     22800   1257.6565     -5301.7983     -5052.2613     -849.45853      68151.052      106.70442    
     22810   1255.6925     -5302.2898     -5053.1424     -790.96148      68102.357      106.49483    
     22820   1249.0934     -5302.0027     -5054.1647     -626.14671      68053.51       106.28296    
     22830   1230.2743     -5299.3748     -5055.2707     -386.71131      68004.899      106.0692     
     22840   1208.0341     -5296.0419     -5056.3506     -152.89044      67957.228      105.85729    
     22850   1212.5041     -5297.9319     -5057.3537     -182.53259      67911.183      105.65115    
     22860   1229.5319     -5302.2689     -5058.3122     -364.40966      67866.83       105.45218    
     22870   1232.8364     -5303.8751     -5059.2627     -465.10615      67823.685      105.25796    
     22880   1226.5167     -5303.5562     -5060.1977     -437.79189      67781.307      105.06586    
     22890   1219.5892     -5303.0728     -5061.0888     -379.92989      67739.457      104.87496    
     22900   1216.3371     -5303.2533     -5061.9146     -275.95198      67698.082      104.68606    
     22910   1217.6926     -5304.2856     -5062.678      -233.87581      67657.288      104.50084    
     22920   1214.1199     -5304.2948     -5063.396      -115.96602      67617.135      104.32042    
     22930   1206.0381     -5303.358      -5064.0628      46.900546      67577.701      104.14627    
     22940   1203.5111     -5303.473      -5064.6792      108.74066      67539.052      103.98066    
     22950   1207.3701     -5304.8196     -5065.2601      109.3179       67501.156      103.82634    
     22960   1212.0393     -5306.3156     -5065.8296      61.113158      67463.961      103.68597    
     22970   1222.6174     -5309.0068     -5066.422      -99.159025      67427.348      103.56046    
     22980   1240.9665     -5313.3208     -5067.0953     -315.76329      67391.062      103.44803    
     22990   1253.7189     -5316.6687     -5067.9129     -445.27294      67354.764      103.34423    
     23000   1248.0326     -5316.5215     -5068.894      -424.12977      67318.11       103.24204    
     23010   1232.0725     -5314.4597     -5069.9989     -226.686        67280.986      103.13461    
     23020   1215.7687     -5312.3694     -5071.1435     -42.672128      67243.456      103.0174     
     23030   1207.9497     -5311.9464     -5072.2719      5.3208249      67205.608      102.88866    
     23040   1206.3192     -5312.71       -5073.359      -69.652256      67167.525      102.75142    
     23050   1203.0033     -5313.0894     -5074.3963     -160.07138      67129.338      102.61165    
     23060   1199.8383     -5313.4482     -5075.3831     -299.01778      67091.141      102.47311    
     23070   1195.3367     -5313.4973     -5076.3254     -455.83007      67052.742      102.33534    
     23080   1182.6149     -5311.8647     -5077.217      -537.68547      67013.735      102.1957     
     23090   1165.4177     -5309.2599     -5078.0243     -501.39281      66973.764      102.05171    
     23100   1151.7928     -5307.245      -5078.7128     -502.74351      66932.643      101.90021    
     23110   1153.6572     -5308.1748     -5079.2727     -523.7676       66890.347      101.73724    
     23120   1170.191      -5311.9252     -5079.7425     -572.68039      66847.042      101.56279    
     23130   1177.8107     -5313.865      -5080.1705     -513.69831      66803.068      101.383      
     23140   1169.0498     -5312.5375     -5080.5813     -261.21867      66758.953      101.20533    
     23150   1164.5243     -5312.0193     -5080.961      -14.36883       66715.211      101.03344    
     23160   1174.5983     -5314.377      -5081.3198      87.389552      66672.161      100.86603    
     23170   1181.689      -5316.1567     -5081.6927      155.54884      66629.902      100.69844    
     23180   1179.6299     -5316.1597     -5082.1042      328.85878      66588.524      100.52716    
     23190   1173.4169     -5315.3767     -5082.554       508.7146       66548.115      100.3535     
     23200   1171.8337     -5315.5426     -5083.034       585.68455      66508.592      100.17929    
     23210   1174.0763     -5316.5032     -5083.5496      557.10977      66469.678      100.00396    
     23220   1178.346      -5317.9127     -5084.112       460.88414      66431.051      99.825665    
     23230   1187.6398     -5320.3846     -5084.7399      260.87039      66392.525      99.642596    
     23240   1198.685      -5323.314      -5085.4777      11.55086       66353.887      99.453794    
     23250   1199.5562     -5324.3679     -5086.3588     -98.266505      66314.823      99.259466    
     23260   1192.4075     -5323.9662     -5087.3755     -118.37422      66275.158      99.061994    
     23270   1171.72       -5320.9563     -5088.4703     -6.6589869      66234.885      98.865483    
     23280   1155.0358     -5318.7169     -5089.5413      77.554469      66194.165      98.67376     
     23290   1158.8561     -5320.4813     -5090.5477      15.32328       66153.099      98.487863    
     23300   1163.2936     -5322.3135     -5091.4994     -31.446951      66111.558      98.305589    
     23310   1153.0346     -5321.1643     -5092.3857      113.80994      66069.393      98.123988    
     23320   1141.8218     -5319.7218     -5093.168       269.44327      66026.774      97.94167     
     23330   1145.2321     -5321.0676     -5093.8372      284.41627      65983.906      97.756606    
     23340   1157.3207     -5324.0526     -5094.4236      238.76777      65940.9        97.56541     
     23350   1161.9677     -5325.5134     -5094.9624      215.21031      65897.966      97.365039    
     23360   1155.7983     -5324.8041     -5095.4771      281.53674      65855.463      97.154791    
     23370   1150.7102     -5324.2635     -5095.9462      339.23376      65813.924      96.938464    
     23380   1164.8971     -5327.5239     -5096.3917      163.82008      65773.808      96.721768    
     23390   1184.0514     -5331.8068     -5096.874      -28.403622      65734.914      96.507953    
     23400   1185.8297     -5332.7355     -5097.4499     -105.71449      65696.61       96.297339    
     23410   1174.9275     -5331.245      -5098.1226     -89.929687      65658.334      96.089581    
     23420   1162.671      -5329.5337     -5098.8431     -62.774161      65619.659      95.884475    
     23430   1156.3771     -5329.0173     -5099.5756     -86.700173      65580.275      95.682027    
     23440   1153.3813     -5329.147      -5100.2996     -115.51827      65539.96       95.482164    
     23450   1148.8665     -5328.9558     -5101.0042     -144.41182      65498.541      95.284588    
     23460   1144.3169     -5328.7317     -5101.6828     -96.42956       65455.988      95.088964    
     23470   1135.7692     -5327.666      -5102.3131     -45.592999      65412.56       94.894958    
     23480   1124.7839     -5326.0455     -5102.8723      48.75872       65368.625      94.700926    
     23490   1122.6215     -5326.0961     -5103.3519      118.02001      65324.49       94.505931    
     23500   1126.5051     -5327.2701     -5103.7554      130.24391      65280.367      94.311501    
     23510   1132.5797     -5328.8342     -5104.1142      127.29733      65236.356      94.11971     
     23520   1130.2941     -5328.7178     -5104.4512      211.86603      65192.468      93.931522    
     23530   1119.1837     -5326.8157     -5104.7536      344.07058      65148.812      93.74751     
     23540   1116.49       -5326.5359     -5105.0083      437.48324      65105.626      93.567606    
     23550   1121.5672     -5327.7484     -5105.2134      472.54554      65063.116      93.391062    
     23560   1119.479      -5327.5096     -5105.389       501.96533      65021.356      93.216274    
     23570   1113.8959     -5326.5443     -5105.5314      564.97254      64980.342      93.040772    
     23580   1114.3934     -5326.7494     -5105.6378      566.34102      64940.058      92.863241    
     23590   1116.3728     -5327.2196     -5105.7153      562.77846      64900.41       92.683664    
     23600   1117.082      -5327.4177     -5105.7727      560.50569      64861.26       92.50212     
     23610   1113.0479     -5326.6564     -5105.8117      658.34025      64822.412      92.320154    
     23620   1106.5146     -5325.3739     -5105.8255      749.3263       64783.704      92.14196     
     23630   1106.2019     -5325.2823     -5105.796       846.53947      64745.166      91.97215     
     23640   1107.6783     -5325.4893     -5105.71        880.94841      64707.152      91.813082    
     23650   1114.1437     -5326.6359     -5105.5738      884.81504      64670.22       91.666619    
     23660   1127.0481     -5329.0397     -5105.4172      864.32731      64634.769      91.534547    
     23670   1129.8184     -5329.4498     -5105.2777      910.42811      64600.737      91.414827    
     23680   1119.5369     -5327.3126     -5105.1805      1016.5106      64567.881      91.302987    
     23690   1108.8153     -5325.0963     -5105.0915      1124.2373      64536.067      91.196328    
     23700   1111.8128     -5325.5801     -5104.9805      1089.1785      64505.306      91.093699    
     23710   1121.3844     -5327.3496     -5104.8509      1068.4581      64475.611      90.994288    
     23720   1123.031      -5327.5455     -5104.7201      1091.337       64446.987      90.897548    
     23730   1131.2178     -5329.0679     -5104.6181      1052.4738      64419.314      90.801649    
     23740   1141.0678     -5330.9824     -5104.5782      924.74778      64392.272      90.705342    
     23750   1144.8062     -5331.8002     -5104.6542      827.88881      64365.502      90.607789    
     23760   1148.6033     -5332.801      -5104.9017      732.33994      64338.863      90.509123    
     23770   1147.5285     -5333.049      -5105.3629      676.8829       64312.405      90.41205     
     23780   1139.3003     -5332.1239     -5106.0704      693.53291      64286.245      90.320193    
     23790   1135.3235     -5332.2869     -5107.0224      655.53464      64260.453      90.235666    
     23800   1131.5944     -5332.7271     -5108.2025      646.36178      64234.884      90.15726     
     23810   1114.3091     -5330.6338     -5109.5389      779.67319      64209.44       90.082194    
     23820   1093.8749     -5327.9476     -5110.9072      932.81417      64184.222      90.008575    
     23830   1077.3709     -5325.9474     -5112.1816      1150.554       64159.375      89.936473    
     23840   1064.3831     -5324.4719     -5113.2831      1244.6656      64134.973      89.86645     
     23850   1054.4199     -5323.381      -5114.169       1306.7195      64111.018      89.798228    
     23860   1055.2091     -5324.2126     -5114.8441      1163.2481      64087.492      89.732363    
     23870   1067.5926     -5327.1779     -5115.3522      864.46444      64064.231      89.66886     
     23880   1082.5941     -5330.5569     -5115.7547      516.24251      64040.876      89.606718    
     23890   1088.7999     -5332.1393     -5116.1058      351.52521      64017.023      89.545587    
     23900   1083.4813     -5331.4076     -5116.4294      401.56017      63992.532      89.485201    
     23910   1082.0076     -5331.4021     -5116.7163      425.25362      63967.434      89.423434    
     23920   1097.131      -5334.6727     -5116.9862      332.69642      63941.636      89.356702    
     23930   1118.1876     -5339.1617     -5117.2973      199.63662      63914.788      89.281539    
     23940   1133.7797     -5342.6803     -5117.7222      202.61454      63886.461      89.195226    
     23950   1135.0769     -5343.5325     -5118.3169      356.16885      63856.444      89.097061    
     23960   1123.1511     -5341.9288     -5119.0796      713.5461       63824.747      88.988536    
     23970   1107.6143     -5339.7268     -5119.9603      1050.3792      63791.482      88.872448    
     23980   1095.5097     -5338.2627     -5120.8979      1204.4251      63756.706      88.750445    
     23990   1095.8074     -5339.2767     -5121.8529      1169.4516      63720.352      88.620548    
     24000   1106.1919     -5342.3086     -5122.8243      925.19109      63682.44       88.47827     
     24010   1115.2125     -5345.1035     -5123.8294      699.95013      63643.124      88.320207    
     24020   1125.4068     -5348.1877     -5124.8909      505.74851      63602.626      88.145942    
     24030   1132.1642     -5350.6615     -5126.0239      403.73169      63561.022      87.957004    
     24040   1123.1452     -5350.0573     -5127.2091      537.62945      63518.283      87.75499     
     24050   1102.649      -5347.1433     -5128.362       752.23334      63474.484      87.542093    
     24060   1088.1792     -5345.3218     -5129.4114      855.55187      63429.799      87.321046    
     24070   1090.1232     -5346.6383     -5130.3422      808.95211      63384.382      87.093931    
     24080   1100.3425     -5349.5098     -5131.1861      641.04176      63338.309      86.862375    
     24090   1115.2533     -5353.296      -5132.0138      418.06991      63291.582      86.628115    
     24100   1121.8916     -5355.4852     -5132.8859      311.83253      63244.104      86.392276    
     24110   1118.255      -5355.6932     -5133.8154      392.29641      63195.783      86.155095    
     24120   1115.9406     -5356.2151     -5134.7965      478.78541      63146.651      85.91659     
     24130   1116.0377     -5357.261      -5135.8231      550.5954       63096.855      85.677301    
     24140   1111.2146     -5357.3654     -5136.8845      602.59312      63046.683      85.438536    
     24150   1112.2397     -5358.6577     -5137.9734      659.92398      62996.429      85.201429    
     24160   1118.69       -5361.0703     -5139.1062      689.92489      62946.234      84.967266    
     24170   1110.5886     -5360.6404     -5140.2837      804.17842      62896.105      84.738486    
     24180   1094.0562     -5358.5391     -5141.4627      955.73496      62846.052      84.516646    
     24190   1078.0232     -5356.4806     -5142.5853      1099.4412      62796.11       84.301629    
     24200   1066.03       -5355.1274     -5143.6118      1214.65        62746.373      84.093491    
     24210   1063.6268     -5355.5779     -5144.5391      1199.7642      62696.917      83.892638    
     24220   1072.5608     -5358.2084     -5145.397       1047.4931      62647.717      83.700039    
     24230   1082.8514     -5361.0879     -5146.2347      868.37798      62598.702      83.5172      
     24240   1090.1839     -5363.4122     -5147.1041      678.6051       62549.747      83.344847    
     24250   1094.4527     -5365.1906     -5148.0355      482.71398      62500.695      83.182041    
     24260   1087.4908     -5364.809      -5149.0352      417.03114      62451.395      83.026521    
     24270   1069.6824     -5362.2997     -5150.0594      472.85492      62401.761      82.875695    
     24280   1062.662      -5361.9038     -5151.0564      499.85953      62351.884      82.728532    
     24290   1068.4404     -5364.0154     -5152.0215      392.21475      62301.859      82.584261    
     24300   1066.8704     -5364.6552     -5152.9728      405.15912      62251.726      82.44087     
     24310   1051.1295     -5362.4517     -5153.8925      655.03155      62201.619      82.295029    
     24320   1035.8334     -5360.2526     -5154.7284      962.48156      62151.854      82.144225    
     24330   1037.8208     -5361.3827     -5155.4642      1094.2789      62102.747      81.989234    
     24340   1051.8425     -5364.8434     -5156.1428      1094.2219      62054.452      81.833835    
     24350   1060.7254     -5367.2761     -5156.813       1079.5274      62006.907      81.682382    
     24360   1059.2287     -5367.6698     -5157.5037      1141.0163      61959.959      81.537026    
     24370   1055.9704     -5367.7365     -5158.2168      1141.3758      61913.583      81.397279    
     24380   1056.1796     -5368.5026     -5158.9414      1071.5363      61867.932      81.261502    
     24390   1053.0335     -5368.6165     -5159.6795      975.2235       61823.192      81.127281    
     24400   1047.3084     -5368.2257     -5160.4247      847.6636       61779.482      80.992534    
     24410   1044.6245     -5368.4319     -5161.1634      735.18557      61736.787      80.856421    
     24420   1040.9889     -5368.4374     -5161.8903      635.51467      61695.05       80.71891     
     24430   1033.8775     -5367.7328     -5162.5967      614.1565       61654.137      80.579802    
     24440   1028.3919     -5367.3135     -5163.2658      611.04695      61613.77       80.439447    
     24450   1030.7526     -5368.4154     -5163.8993      581.89919      61573.584      80.298417    
     24460   1034.6854     -5369.8052     -5164.5088      534.75624      61533.198      80.156922    
     24470   1030.3289     -5369.5345     -5165.1025      633.07471      61492.4        80.015202    
     24480   1021.1122     -5368.27       -5165.6667      815.15265      61451.234      79.874626    
     24490   1013.789      -5367.3325     -5166.1823      940.0112       61409.774      79.735681    
     24500   1012.9731     -5367.6262     -5166.6378      999.71531      61367.972      79.596388    
     24510   1018.5224     -5369.1306     -5167.0412      963.42564      61325.78       79.453172    
     24520   1026.3248     -5371.0518     -5167.4142      868.59908      61283.223      79.302955    
     24530   1034.7739     -5373.1055     -5167.7915      698.01723      61240.329      79.144244    
     24540   1044.7253     -5375.4972     -5168.2087      515.52393      61197.027      78.978194    
     24550   1049.782      -5376.9994     -5168.7076      392.00122      61153.226      78.809054    
     24560   1044.2965     -5376.4977     -5169.2943      382.31726      61108.878      78.640901    
     24570   1032.8694     -5374.886      -5169.9499      518.7438       61064.075      78.476524    
     24580   1022.7716     -5373.5654     -5170.6329      626.26042      61019.073      78.318188    
     24590   1019.8345     -5373.6709     -5171.3211      694.88822      60974.078      78.167108    
     24600   1025.6876     -5375.5184     -5172.0073      753.38633      60929.13       78.023695    
     24610   1037.3052     -5378.5437     -5172.7275      766.09771      60884.159      77.887529    
     24620   1041.7027     -5380.1957     -5173.507       876.96971      60839.029      77.756204    
     24630   1034.9296     -5379.6819     -5174.337       1128.6094      60793.744      77.626155    
     24640   1027.5863     -5379.0743     -5175.1865      1412.1061      60748.518      77.494593    
     24650   1023.5686     -5379.1088     -5176.0181      1619.8863      60703.591      77.359898    
     24660   1026.077      -5380.4092     -5176.8208      1700.6445      60659.066      77.220943    
     24670   1029.3403     -5381.8359     -5177.6001      1782.7746      60614.935      77.078424    
     24680   1027.2045     -5382.1589     -5178.3468      1932.1484      60571.289      76.934466    
     24690   1025.208      -5382.4651     -5179.0491      2070.1741      60528.371      76.790756    
     24700   1025.9827     -5383.2755     -5179.7058      2172.6103      60486.469      76.648642    
     24710   1023.806      -5383.4637     -5180.326       2251.2927      60445.771      76.509192    
     24720   1012.5479     -5381.8004     -5180.8964      2351.8674      60406.296      76.372947    
     24730   1002.0179     -5380.2118     -5181.3971      2436.7702      60368.058      76.241121    
     24740   1007.0466     -5381.6407     -5181.8283      2265.2072      60330.99       76.116126    
     24750   1025.9578     -5385.7998     -5182.2351      1936.9346      60294.792      75.998712    
     24760   1034.9353     -5388.0267     -5182.6807      1691.435       60259.028      75.885951    
     24770   1032.3138     -5388.0154     -5183.1895      1615.1679      60223.342      75.774308    
     24780   1030.182      -5388.1527     -5183.7498      1668.6871      60187.623      75.662872    
     24790   1033.1569     -5389.3561     -5184.363       1692.5518      60151.972      75.553376    
     24800   1034.6059     -5390.3152     -5185.0346      1746.6237      60116.512      75.44828     
     24810   1023.3902     -5388.8167     -5185.7614      1931.2068      60081.42       75.349523    
     24820   1009.3616     -5386.7622     -5186.4904      2070.8633      60046.955      75.25864     
     24830   1007.8537     -5387.1705     -5187.1979      2020.2043      60013.298      75.176286    
     24840   1014.9484     -5389.2729     -5187.8927      1782.2196      59980.404      75.101669    
     24850   1022.1348     -5391.4091     -5188.6029      1505.6807      59948.016      75.031661    
     24860   1026.4207     -5393.0145     -5189.358       1279.5687      59915.781      74.962134    
     24870   1021.3436     -5392.8124     -5190.1632      1174.4537      59883.337      74.889901    
     24880   1005.455      -5390.4778     -5190.9811      1329.0994      59850.464      74.813878    
     24890   989.4326      -5388.0732     -5191.7556      1531.2925      59817.213      74.734897    
     24900   984.40609     -5387.7726     -5192.4523      1612.3578      59783.69       74.654888    
     24910   988.99227     -5389.3114     -5193.0812      1643.66        59749.866      74.576013    
     24920   993.41871     -5390.7748     -5193.6663      1732.4678      59715.657      74.499111    
     24930   990.9397      -5390.8444     -5194.2277      1882.6536      59681.085      74.423382    
     24940   987.3805      -5390.6774     -5194.7669      2048.7175      59646.268      74.34805     
     24950   985.65367     -5390.8502     -5195.2824      2124.7363      59611.352      74.273052    
     24960   982.97385     -5390.8118     -5195.7757      2189.2384      59576.401      74.199945    
     24970   978.99569     -5390.495      -5196.2482      2267.0274      59541.429      74.131021    
     24980   976.54699     -5390.4584     -5196.6975      2274.0876      59506.427      74.067512    
     24990   978.99901     -5391.3754     -5197.1279      2220.1129      59471.34       74.008745    
     25000   983.31242     -5392.6545     -5197.5513      2117.654       59436.108      73.953461    
     25010   985.29636     -5393.4833     -5197.9864      2023.2577      59400.773      73.901367    
     25020   989.30626     -5394.7343     -5198.4417      1971.4835      59365.48       73.852788    
     25030   990.09183     -5395.3846     -5198.9362      1968.4286      59330.366      73.807695    
     25040   980.76461     -5394.0656     -5199.4678      2099.6833      59295.504      73.764265    
     25050   970.68262     -5392.604      -5200.0067      2318.5244      59261.037      73.719687    
     25060   971.67726     -5393.3225     -5200.5278      2383.9475      59227.213      73.672434    
     25070   985.09843     -5396.514      -5201.0564      2321.0675      59194.083      73.622633    
     25080   996.91632     -5399.4349     -5201.6325      2216.8837      59161.481      73.572527    
     25090   996.9743      -5400.1055     -5202.2915      2166.4833      59129.192      73.52508     
     25100   988.3962      -5399.1343     -5203.0223      2250.1906      59097.08       73.482624    
     25110   981.28597     -5398.485      -5203.7838      2260.8228      59065.151      73.446966    
     25120   980.37346     -5399.0739     -5204.5537      2195.9267      59033.403      73.419423    
     25130   979.13058     -5399.5869     -5205.3134      2092.9207      59001.797      73.401074    
     25140   979.85159     -5400.4735     -5206.0569      1950.499       58970.304      73.390821    
     25150   983.41685     -5401.908      -5206.784       1834.2731      58938.878      73.385711    
     25160   980.69768     -5402.0782     -5207.4938      1831.4619      58907.477      73.382091    
     25170   974.08668     -5401.4429     -5208.1701      1917.4979      58876.146      73.376048    
     25180   970.33636     -5401.3271     -5208.7985      1994.0781      58845.015      73.364855    
     25190   967.59979     -5401.3583     -5209.3726      2071.3767      58814.259      73.348279    
     25200   961.69933     -5400.7101     -5209.8952      2215.6225      58784.058      73.32703     
     25210   954.83542     -5399.8103     -5210.3573      2443.1537      58754.578      73.301252    
     25220   953.736       -5399.9912     -5210.7563      2582.4289      58726.015      73.270628    
     25230   968.32704     -5403.2509     -5211.1209      2566.1478      58698.496      73.234313    
     25240   990.49794     -5408.0435     -5211.5145      2475.0317      58671.941      73.191253    
     25250   1002.4511     -5410.9083     -5212.0077      2439.278       58646.131      73.140685    
     25260   998.47235     -5410.7406     -5212.6294      2543.1237      58620.94       73.082751    
     25270   989.44873     -5409.676      -5213.3552      2671.0341      58596.367      73.018789    
     25280   981.51181     -5408.8876     -5214.1416      2747.1938      58572.442      72.95039     
     25290   977.67302     -5408.9484     -5214.964       2757.858       58549.085      72.877618    
     25300   977.17805     -5409.6921     -5215.806       2701.3649      58526.124      72.799729    
     25310   972.23947     -5409.5614     -5216.6552      2587.3192      58503.302      72.717465    
     25320   966.87405     -5409.3325     -5217.4909      2498.0256      58480.348      72.633923    
     25330   962.71464     -5409.3164     -5218.3         2504.0204      58457.115      72.554342    
     25340   949.67073     -5407.4861     -5219.0578      2603.4538      58433.664      72.485012    
     25350   936.51929     -5405.5525     -5219.7337      2773.6563      58410.274      72.430137    
     25360   938.96797     -5406.6211     -5220.3164      2834.5099      58387.318      72.390613    
     25370   950.75997     -5409.4933     -5220.8489      2770.444       58365.032      72.364336    
     25380   958.94316     -5411.6459     -5221.3778      2753.2393      58343.437      72.34742     
     25390   957.68575     -5411.9509     -5221.9324      2773.911       58322.48       72.335534    
     25400   952.79032     -5411.5631     -5222.5159      2829.1949      58302.149      72.324       
     25410   944.60882     -5410.5377     -5223.1138      2897.5377      58282.414      72.308401    
     25420   934.96102     -5409.2084     -5223.6987      2913.3672      58263.262      72.285604    
     25430   928.52592     -5408.4847     -5224.2519      2937.8502      58244.68       72.255074    
     25440   926.11189     -5408.5159     -5224.762       2934.487       58226.596      72.21921     
     25450   926.46738     -5409.0634     -5225.239       2881.8999      58208.92       72.180657    
     25460   923.06767     -5408.8345     -5225.6846      2898.3117      58191.567      72.140686    
     25470   916.52364     -5407.9402     -5226.0888      2993.5303      58174.502      72.10178     
     25480   918.75933     -5408.7495     -5226.4545      3022.351       58157.689      72.066814    
     25490   928.67051     -5411.0544     -5226.7929      2943.815       58140.934      72.036843    
     25500   939.38334     -5413.5363     -5227.1491      2860.5066      58124          72.012739    
     25510   949.76227     -5416.0078     -5227.5614      2737.4         58106.657      71.995084    
     25520   958.09092     -5418.1619     -5228.0629      2589.8403      58088.73       71.98405     
     25530   963.1677      -5419.7963     -5228.69        2474.6826      58070.176      71.979776    
     25540   959.89777     -5419.9021     -5229.4446      2430.4997      58051.092      71.982048    
     25550   948.76457     -5418.5424     -5230.2939      2508.9712      58031.734      71.990572    
     25560   939.566       -5417.6056     -5231.1822      2600.7452      58012.513      72.005242    
     25570   939.70745     -5418.5156     -5232.0642      2635.538       57993.867      72.02583     
     25580   948.39123     -5421.1143     -5232.9399      2568.2159      57975.989      72.05095     
     25590   958.00702     -5423.9077     -5233.8254      2526.8807      57958.802      72.078532    
     25600   958.08872     -5424.8236     -5234.7251      2596.0734      57942.189      72.10744     
     25610   947.99435     -5423.7122     -5235.6165      2723.0898      57926.134      72.137659    
     25620   940.54443     -5423.0775     -5236.46        2804.9903      57910.637      72.169255    
     25630   937.14121     -5423.1888     -5237.2466      2795.6949      57895.614      72.199796    
     25640   933.2644      -5423.1515     -5237.9785      2741.2829      57880.953      72.224428    
     25650   928.79361     -5422.9534     -5238.6674      2681.7879      57866.619      72.241076    
     25660   920.29651     -5421.9119     -5239.3119      2750.8341      57852.634      72.25193     
     25670   914.7591      -5421.4135     -5239.9121      2862.9002      57839.076      72.260275    
     25680   913.20866     -5421.6617     -5240.4681      2958.2723      57825.97       72.268092    
     25690   912.00216     -5421.9551     -5241.0008      3108.1569      57813.281      72.275998    
     25700   910.83996     -5422.2378     -5241.5141      3261.5765      57801.012      72.284645    
     25710   906.39415     -5421.8573     -5242.0157      3400.0149      57789.226      72.294735    
     25720   899.01416     -5420.8715     -5242.4942      3514.604       57777.969      72.306782    
     25730   894.47707     -5420.4243     -5242.9473      3496.7113      57767.223      72.320412    
     25740   889.1227      -5419.7772     -5243.3625      3390.507       57756.92       72.333865    
     25750   879.82285     -5418.3025     -5243.733       3339.2601      57746.952      72.346062    
     25760   870.24532     -5416.7047     -5244.0356      3259.5676      57737.216      72.358718    
     25770   867.33241     -5416.3455     -5244.2543      3051.1625      57727.613      72.374763    
     25780   875.79434     -5418.1655     -5244.3954      2785.0303      57718.027      72.395523    
     25790   884.9385      -5420.0673     -5244.4828      2488.1296      57708.411      72.419981    
     25800   889.9381      -5421.123      -5244.5466      2313.9904      57698.724      72.446462    
     25810   892.34736     -5421.6647     -5244.6102      2234.4535      57688.888      72.474186    
     25820   891.62681     -5421.594      -5244.6825      2284.201       57678.817      72.503282    
     25830   888.24207     -5421.0037     -5244.7637      2446.8376      57668.543      72.53365     
     25840   885.04134     -5420.4547     -5244.8498      2612.8773      57658.191      72.563326    
     25850   886.20506     -5420.7682     -5244.9324      2763.828       57647.904      72.588546    
     25860   889.31624     -5421.4761     -5245.023       2877.9156      57637.823      72.605863    
     25870   890.99063     -5421.9126     -5245.1273      2916.3883      57628.081      72.614894    
     25880   895.00368     -5422.8479     -5245.2664      2922.6818      57618.773      72.616633    
     25890   900.85873     -5424.2003     -5245.457       2822.9444      57609.867      72.610687    
     25900   908.11144     -5425.9171     -5245.7348      2682.525       57601.22       72.596131    
     25910   909.72463     -5426.6257     -5246.1233      2575.7144      57592.745      72.574106    
     25920   905.63962     -5426.3309     -5246.6391      2520.9149      57584.463      72.547163    
     25930   906.19369     -5427.085      -5247.2832      2421.2797      57576.396      72.518106    
     25940   904.97255     -5427.6156     -5248.0561      2323.7212      57568.518      72.490706    
     25950   896.65385     -5426.8466     -5248.9376      2358.4988      57560.787      72.469018    
     25960   884.61825     -5425.3865     -5249.8655      2484.2124      57553.236      72.455991    
     25970   876.31078     -5424.6453     -5250.7727      2584.2009      57545.924      72.452912    
     25980   876.62943     -5425.552      -5251.6162      2608.6135      57538.837      72.45858     
     25990   880.22167     -5427.0311     -5252.3825      2582.8393      57531.953      72.469292    
     26000   884.52563     -5428.5879     -5253.0853      2649.9844      57525.234      72.481273    
     26010   885.42403     -5429.4126     -5253.7318      2785.8282      57518.659      72.492901    
     26020   881.21533     -5429.1694     -5254.3237      2921.3798      57512.229      72.504451    
     26030   885.78124     -5430.6193     -5254.8676      2957.4079      57505.887      72.516811    
     26040   900.50612     -5434.0745     -5255.4012      2878.8503      57499.4        72.531897    
     26050   905.71617     -5435.6781     -5255.971       2827.5348      57492.406      72.551867    
     26060   892.97624     -5433.7573     -5256.578       2971.5215      57484.654      72.576393    
     26070   873.1279      -5430.4178     -5257.1768      3174.4144      57476.169      72.6024      
     26080   865.67488     -5429.4858     -5257.7235      3151.5427      57467.069      72.62664     
     26090   875.62139     -5431.9611     -5258.2252      2861.1025      57457.319      72.647568    
     26100   891.55599     -5435.632      -5258.7345      2451.4038      57446.71       72.664449    
     26110   897.87151     -5437.4502     -5259.2996      2133.2881      57434.986      72.67722     
     26120   890.68196     -5436.6617     -5259.9377      1995.9705      57421.957      72.686609    
     26130   877.53178     -5434.7296     -5260.6147      1990.1836      57407.549      72.693528    
     26140   868.48909     -5433.6101     -5261.2894      2030.1077      57391.72       72.69946     
     26150   861.77368     -5432.9282     -5261.94        2147.0081      57374.399      72.706742    
     26160   855.04312     -5432.2024     -5262.5496      2341.0584      57355.583      72.717792    
     26170   855.54165     -5432.8612     -5263.1095      2519.0698      57335.442      72.732917    
     26180   863.36948     -5434.9409     -5263.636       2631.9149      57314.256      72.749919    
     26190   870.95319     -5436.9734     -5264.1638      2749.1577      57292.341      72.766328    
     26200   871.7675      -5437.6868     -5264.7156      2911.92        57269.996      72.780797    
     26210   865.16766     -5436.951      -5265.2894      3119.1144      57247.527      72.793338    
     26220   860.81575     -5436.6643     -5265.8661      3223.0898      57225.285      72.804446    
     26230   861.76751     -5437.4301     -5266.443       3194.7467      57203.543      72.813716    
     26240   862.25192     -5438.1105     -5267.0273      3082.7139      57182.415      72.81935     
     26250   861.96388     -5438.6488     -5267.6228      2919.5583      57161.869      72.819273    
     26260   861.88472     -5439.241      -5268.2307      2744.7445      57141.799      72.812662    
     26270   860.49809     -5439.5812     -5268.846       2563.7646      57122.146      72.79965     
     26280   856.81043     -5439.4684     -5269.4649      2512.1581      57102.918      72.780548    
     26290   853.88622     -5439.4977     -5270.0744      2444.1929      57084.201      72.756084    
     26300   853.35125     -5439.9946     -5270.6775      2408.9777      57066.02       72.727362    
     26310   849.91491     -5439.9005     -5271.2652      2483.2252      57048.332      72.696226    
     26320   838.09616     -5438.1171     -5271.8268      2688.8591      57031.056      72.664999    
     26330   823.56818     -5435.7385     -5272.3308      3020.3806      57014.157      72.635707    
     26340   813.9432      -5434.2385     -5272.7405      3296.8268      56997.738      72.609543    
     26350   813.42618     -5434.4524     -5273.057       3492.5416      56981.977      72.587345    
     26360   820.7275      -5436.1381     -5273.294       3613.6858      56967.028      72.57013     
     26370   828.67794     -5437.9025     -5273.4809      3615.2087      56953.025      72.559101    
     26380   841.372       -5440.5952     -5273.655       3520.2806      56940.049      72.555238    
     26390   859.06233     -5444.3167     -5273.8664      3343.1106      56928.036      72.55819     
     26400   870.37347     -5446.8688     -5274.1742      3205.4219      56916.844      72.565292    
     26410   871.31294     -5447.4899     -5274.6089      3137.4756      56906.409      72.573193    
     26420   865.99223     -5447.0017     -5275.1764      3128.8565      56896.721      72.579223    
     26430   859.89968     -5446.4674     -5275.851       3108.5777      56887.677      72.581587    
     26440   855.73351     -5446.3942     -5276.6044      3031.9803      56879.089      72.579981    
     26450   854.12803     -5446.8761     -5277.4049      2949.9672      56870.731      72.574604    
     26460   849.36915     -5446.7472     -5278.2202      2894.4987      56862.394      72.56501     
     26470   840.34227     -5445.7504     -5279.0144      2834.1467      56853.935      72.551041    
     26480   834.57982     -5445.338      -5279.7454      2760.5907      56845.173      72.53359     
     26490   836.06347     -5446.2964     -5280.4094      2640.6119      56835.906      72.512866    
     26500   842.20996     -5448.1326     -5281.026       2418.0818      56825.962      72.487956    
     26510   847.66471     -5449.8091     -5281.6203      2239.5165      56815.238      72.457305    
     26520   846.83259     -5450.2434     -5282.2197      2167.2078      56803.774      72.419987    
     26530   840.57807     -5449.5992     -5282.8165      2172.6513      56791.724      72.376522    
     26540   835.84885     -5449.2517     -5283.4073      2219.8515      56779.278      72.328666    
     26550   837.10664     -5450.0834     -5283.9894      2202.0085      56766.626      72.278559    
     26560   839.24032     -5451.0956     -5284.5783      2201.342       56753.886      72.228114    
     26570   835.9129      -5451.0417     -5285.1847      2286.2936      56741.16       72.179962    
     26580   827.57746     -5450.001      -5285.7978      2453.6117      56728.599      72.137664    
     26590   820.98663     -5449.292      -5286.3965      2614.2889      56716.307      72.103553    
     26600   816.53681     -5448.9884     -5286.9758      2708.1401      56704.243      72.076226    
     26610   808.00332     -5447.844      -5287.5246      2748.8948      56692.213      72.051749    
     26620   799.3014      -5446.6168     -5288.024       2752.6943      56679.991      72.027119    
     26630   796.95742     -5446.5974     -5288.4696      2698.5774      56667.424      72.002039    
     26640   797.18776     -5447.0394     -5288.866       2623.0969      56654.412      71.978233    
     26650   800.67803     -5448.0905     -5289.2245      2506.1078      56640.815      71.957354    
     26660   808.36877     -5449.9622     -5289.5702      2356.9221      56626.47       71.939626    
     26670   818.82198     -5452.3982     -5289.9322      2175.3248      56611.281      71.924071    
     26680   827.74946     -5454.5837     -5290.3464      2081.8064      56595.251      71.909136    
     26690   831.53458     -5455.8369     -5290.8485      2128.8493      56578.484      71.89339     
     26700   830.28964     -5456.1801     -5291.4387      2289.7612      56561.213      71.874599    
     26710   825.42156     -5455.8787     -5292.1032      2493.0128      56543.832      71.850133    
     26720   820.15351     -5455.5505     -5292.8203      2594.0166      56526.73       71.817738    
     26730   820.07314     -5456.2811     -5293.5669      2626.0031      56510.072      71.776423    
     26740   821.89333     -5457.4098     -5294.3344      2604.1641      56493.822      71.727875    
     26750   818.50712     -5457.5153     -5295.1117      2616.1717      56477.832      71.674368    
     26760   811.02048     -5456.7883     -5295.8703      2692.828       56462.017      71.617945    
     26770   801.30273     -5455.5696     -5296.5796      2777.6793      56446.443      71.562671    
     26780   791.90084     -5454.3373     -5297.2128      2915.7351      56431.246      71.513712    
     26790   784.44236     -5453.4078     -5297.7632      3012.5222      56416.542      71.475268    
     26800   779.96107     -5452.986      -5298.2305      3040.2319      56402.291      71.447779    
     26810   780.75923     -5453.5408     -5298.627       2983.1207      56388.336      71.427772    
     26820   785.60182     -5454.8496     -5298.975       2871.6981      56374.514      71.410521    
     26830   789.77571     -5456.0028     -5299.3         2812.0969      56360.783      71.393023    
     26840   792.30955     -5456.8282     -5299.6227      2772.1093      56347.252      71.375454    
     26850   794.44072     -5457.5867     -5299.9583      2795.6652      56334.049      71.359976    
     26860   791.79785     -5457.4197     -5300.3156      2862.0753      56321.226      71.349169    
     26870   786.7461      -5456.7968     -5300.6951      2998.2058      56308.779      71.345149    
     26880   785.18187     -5456.8744     -5301.0831      3108.4583      56296.716      71.349261    
     26890   784.11447     -5457.0586     -5301.4791      3193.5069      56285.084      71.361979    
     26900   784.81951     -5457.6042     -5301.8848      3263.9147      56273.954      71.38324     
     26910   787.75717     -5458.6099     -5302.3076      3272.2813      56263.472      71.412313    
     26920   789.19432     -5459.3489     -5302.7614      3255.6093      56253.768      71.446751    
     26930   786.99493     -5459.3947     -5303.2436      3239.501       56244.931      71.483442    
     26940   782.89302     -5459.0845     -5303.7473      3229.8446      56237.017      71.520452    
     26950   779.74245     -5458.975      -5304.2629      3194.9249      56230.026      71.556663    
     26960   776.36131     -5458.819      -5304.7778      3188.0125      56223.818      71.589794    
     26970   775.97737     -5459.2485     -5305.2835      3106.3461      56218.145      71.617519    
     26980   778.98651     -5460.349      -5305.7869      3030.325       56212.694      71.639089    
     26990   778.50743     -5460.7551     -5306.2881      2997.8794      56207.216      71.655833    
     27000   772.69046     -5460.0978     -5306.7849      3016.674       56201.577      71.670059    
     27010   766.92172     -5459.4276     -5307.2594      3047.211       56195.757      71.683494    
     27020   766.10075     -5459.7074     -5307.702       3032.8452      56189.786      71.696791    
     27030   771.63988     -5461.2217     -5308.1173      2963.9485      56183.712      71.709303    
     27040   781.83764     -5463.6606     -5308.5329      2799.0252      56177.557      71.720012    
     27050   789.83165     -5465.6975     -5308.9836      2714.8929      56171.308      71.728757    
     27060   788.02958     -5465.8396     -5309.4832      2777.5111      56165.03       71.736119    
     27070   778.41976     -5464.4641     -5310.0145      2935.5311      56158.895      71.742122    
     27080   771.04257     -5463.5347     -5310.5488      3096.3531      56153.094      71.746153    
     27090   769.95227     -5463.8317     -5311.0621      3155.0674      56147.77       71.747695    
     27100   770.74934     -5464.4894     -5311.5617      3186.3955      56142.99       71.74728     
     27110   771.89381     -5465.2031     -5312.0483      3197.3882      56138.854      71.746319    
     27120   776.44558     -5466.5918     -5312.5339      3171.6688      56135.48       71.746408    
     27130   780.73935     -5467.9442     -5313.0343      3129.6097      56132.884      71.749784    
     27140   779.63512     -5468.2507     -5313.56        3107.6265      56130.99       71.759808    
     27150   773.95211     -5467.6681     -5314.1049      3110.4948      56129.767      71.77961     
     27160   765.74637     -5466.5812     -5314.6461      3109.7708      56129.289      71.810103    
     27170   756.08845     -5465.1793     -5315.1605      3078.6318      56129.651      71.849643    
     27180   745.16925     -5463.4779     -5315.6257      3042.1167      56130.857      71.895133    
     27190   732.31423     -5461.3257     -5316.0241      2980.2465      56132.838      71.943223    
     27200   720.8275      -5459.3569     -5316.3344      2945.7957      56135.47       71.990895    
     27210   715.16966     -5458.4447     -5316.5448      2860.5628      56138.601      72.035933    
     27220   717.57912     -5459.0387     -5316.6607      2712.4554      56141.972      72.076598    
     27230   725.78585     -5460.7075     -5316.7012      2535.7599      56145.188      72.11132     
     27240   737.67013     -5463.0593     -5316.695       2340.6407      56147.804      72.139579    
     27250   755.69571     -5466.631      -5316.6901      2122.6142      56149.432      72.162246    
     27260   773.30777     -5470.1726     -5316.7373      1972.7259      56149.763      72.181917    
     27270   779.80654     -5471.625      -5316.9002      1981.8301      56148.657      72.202175    
     27280   776.1337      -5471.1951     -5317.199       2164.686       56146.16       72.225804    
     27290   769.14129     -5470.2367     -5317.628       2371.229       56142.462      72.253242    
     27300   764.25101     -5469.798      -5318.1596      2537.1733      56137.765      72.281836    
     27310   763.48766     -5470.2675     -5318.7806      2601.6644      56132.209      72.308289    
     27320   764.43132     -5471.1482     -5319.4741      2650.676       56125.897      72.330966    
     27330   762.37888     -5471.4906     -5320.2237      2686.112       56118.921      72.349033    
     27340   755.06543     -5470.8058     -5320.99        2750.1509      56111.331      72.360832    
     27350   746.68972     -5469.8804     -5321.7264      2750.5509      56103.213      72.363992    
     27360   742.2147      -5469.661      -5322.395       2725.6671      56094.651      72.355994    
     27370   744.52371     -5470.723      -5322.9989      2615.6864      56085.707      72.334943    
     27380   749.84382     -5472.3351     -5323.5553      2442.0666      56076.344      72.300763    
     27390   752.5351      -5473.4066     -5324.0929      2329.4446      56066.453      72.255991    
     27400   750.7366      -5473.5806     -5324.6237      2296.9464      56056.029      72.204207    
     27410   746.35378     -5473.2389     -5325.1516      2300.8307      56045.166      72.147825    
     27420   742.14703     -5472.928      -5325.6754      2315.0397      56033.942      72.088427    
     27430   735.19841     -5472.0623     -5326.1884      2345.3859      56022.36       72.028773    
     27440   726.75139     -5470.8761     -5326.6782      2376.7875      56010.381      71.973443    
     27450   722.7068      -5470.5359     -5327.1405      2354.3377      55997.963      71.92649     
     27460   721.40379     -5470.7076     -5327.5708      2273.7746      55985.055      71.889341    
     27470   717.98742     -5470.437      -5327.978       2236.0407      55971.612      71.861434    
     27480   714.10992     -5470.0474     -5328.3577      2227.2232      55957.617      71.841375    
     27490   713.91785     -5470.366      -5328.7144      2196.8974      55943.07       71.827522    
     27500   717.97127     -5471.5126     -5329.0568      2169.6642      55927.966      71.817443    
     27510   721.62179     -5472.5819     -5329.4018      2211.9188      55912.362      71.80796     
     27520   722.50655     -5473.1191     -5329.7635      2257.6636      55896.391      71.795984    
     27530   723.26255     -5473.6542     -5330.1485      2324.7692      55880.149      71.779472    
     27540   723.92726     -5474.2042     -5330.5667      2420.1603      55863.703      71.757573    
     27550   722.42537     -5474.3536     -5331.0141      2530.5176      55847.144      71.730242    
     27560   717.98926     -5473.9453     -5331.486       2695.0494      55830.575      71.697834    
     27570   714.82707     -5473.8025     -5331.9706      2811.2603      55814.101      71.660556    
     27580   716.0347      -5474.5334     -5332.4619      2845.7104      55797.743      71.618286    
     27590   723.89431     -5476.5996     -5332.9686      2785.865       55781.428      71.570815    
     27600   736.57294     -5479.6692     -5333.5226      2680.0221      55765.035      71.518672    
[...]
     48200   467.57401     -5600.6331     -5507.8597     -189.06441      53500.028      77.211585    
     48210   473.16985     -5601.3109     -5507.4272     -191.74106      53477.631      77.16957     
     48220   476.83266     -5601.7679     -5507.1575     -183.92696      53454.016      77.125203    
     48230   476.86604     -5601.6548     -5507.0377     -124.66765      53429.314      77.079402    
     48240   472.14505     -5600.7231     -5507.0428      39.978502      53404.148      77.033691    
     48250   464.12338     -5599.2184     -5507.1297      232.97717      53379.893      76.990385    
     48260   455.80829     -5597.688      -5507.2491      429.00254      53358.218      76.951941    
     48270   449.52369     -5596.5677     -5507.3758      591.46897      53340.782      76.920512    
     48280   446.9238      -5596.1627     -5507.4866      674.28521      53328.872      76.8977      
     48290   448.69376     -5596.6044     -5507.5771      672.29422      53323.09       76.884325    
     48300   453.66776     -5597.6733     -5507.6592      575.53262      53323.285      76.880067    
     48310   458.86724     -5598.7969     -5507.751       448.06187      53328.566      76.883427    
     48320   461.8775      -5599.515      -5507.8719      342.05968      53337.737      76.892166    
     48330   461.87863     -5599.6776     -5508.0343      245.31044      53349.738      76.904017    
     48340   459.75672     -5599.463      -5508.2407      190.27076      53363.692      76.917289    
     48350   457.60814     -5599.2715     -5508.4755      151.70937      53379.063      76.930965    
     48360   456.58633     -5599.3293     -5508.7361      136.21029      53395.523      76.944609    
     48370   456.73816     -5599.6447     -5509.0213      109.83423      53412.885      76.958439    
     48380   456.65175     -5599.9321     -5509.3259      78.940732      53430.902      76.972858    
     48390   455.49658     -5600.0281     -5509.651       70.938572      53449.309      76.988256    
     48400   453.45115     -5599.9625     -5509.9913      41.77461       53467.995      77.004977    
     48410   451.63298     -5599.942      -5510.3316     -7.474035       53486.718      77.022901    
     48420   451.28444     -5600.2083     -5510.667      -71.654421      53505.046      77.041619    
     48430   453.02536     -5600.8788     -5510.9921     -183.52316      53522.393      77.060454    
     48440   455.7403      -5601.7394     -5511.314      -306.72817      53537.826      77.078196    
     48450   457.24432     -5602.3638     -5511.6399     -383.28685      53550.315      77.093337    
     48460   456.50243     -5602.5494     -5511.9728     -420.83237      53559.186      77.104742    
     48470   454.23292     -5602.4319     -5512.3056     -414.55064      53564.181      77.111788    
     48480   452.50132     -5602.4099     -5512.6272     -406.96337      53565.387      77.114266    
     48490   452.54749     -5602.7238     -5512.9319     -389.39941      53562.942      77.111962    
     48500   453.75614     -5603.2504     -5513.2186     -387.84806      53557.042      77.104799    
     48510   454.63886     -5603.6957     -5513.4888     -384.48329      53547.81       77.09288     
     48520   453.814       -5603.7924     -5513.7492     -370.02189      53535.308      77.076514    
     48530   450.56595     -5603.3906     -5513.9919     -282.38819      53519.753      77.056209    
     48540   445.9771      -5602.6941     -5514.2058     -153.51729      53501.924      77.032997    
     48550   442.01534     -5602.0759     -5514.3738     -66.875056      53482.937      77.008259    
     48560   439.58477     -5601.7156     -5514.4957     -9.726386       53463.623      76.98323     
     48570   438.12582     -5601.494      -5514.5636      39.530077      53444.514      76.958804    
     48580   436.90787     -5601.2695     -5514.5808      91.463866      53426.061      76.935448    
     48590   435.28414     -5600.9154     -5514.5488      137.58503      53408.685      76.913166    
     48600   432.98704     -5600.376      -5514.4651      205.71592      53392.801      76.891544    
     48610   430.46317     -5599.7355     -5514.3254      272.99053      53378.964      76.870289    
     48620   429.02114     -5599.2499     -5514.1259      326.02708      53367.733      76.849437    
     48630   430.1161      -5599.2129     -5513.8717      352.41612      53359.546      76.829432    
     48640   434.30849     -5599.7362     -5513.5632      323.1715       53354.563      76.810828    
     48650   440.50082     -5600.6283     -5513.2266      256.18937      53352.487      76.793938    
     48660   446.6488      -5601.5079     -5512.8864      183.1753       53352.7        76.778959    
     48670   451.01537     -5602.0518     -5512.5638      136.4895       53354.542      76.765988    
     48680   452.78176     -5602.1213     -5512.283       137.08033      53357.599      76.755471    
     48690   452.96478     -5601.9232     -5512.0485      146.85069      53361.842      76.748452    
     48700   452.63563     -5601.6606     -5511.8513      137.47772      53367.341      76.745943    
     48710   452.52285     -5601.4768     -5511.6898      129.80857      53374.018      76.748615    
     48720   453.02402     -5601.4424     -5511.5559      111.06173      53381.771      76.757026    
     48730   454.05665     -5601.5394     -5511.4481      99.333079      53390.444      76.771859    
     48740   454.81219     -5601.6083     -5511.367       78.121668      53399.9        76.793823    
     48750   454.88609     -5601.5676     -5511.3117      76.671809      53409.972      76.823316    
     48760   454.79576     -5601.5182     -5511.2802      67.229701      53420.614      76.860509    
     48770   454.75597     -5601.5006     -5511.2705      39.722787      53431.709      76.905148    
     48780   454.60441     -5601.479      -5511.279       19.243334      53443.049      76.956384    
     48790   454.15434     -5601.4142     -5511.3035      1.7544084      53454.486      77.012757    
     48800   453.82587     -5601.3864     -5511.3408     -28.883651      53465.83       77.072273    
     48810   454.05726     -5601.483      -5511.3916     -81.62477       53476.8        77.132732    
     48820   454.61329     -5601.6603     -5511.4585     -154.00606      53486.948      77.192209    
     48830   454.70487     -5601.761      -5511.541      -214.51983      53495.649      77.249323    
     48840   453.60953     -5601.6409     -5511.6382     -235.74563      53502.399      77.303171    
     48850   451.52988     -5601.3409     -5511.7509     -255.53769      53506.983      77.352989    
     48860   449.20183     -5600.9996     -5511.8716     -275.54084      53509.232      77.397603    
     48870   447.54732     -5600.7894     -5511.9896     -287.35938      53509.007      77.435655    
     48880   446.65275     -5600.7231     -5512.1008     -285.92608      53506.232      77.465961    
     48890   445.8132      -5600.6587     -5512.203      -261.48636      53500.936      77.487839    
     48900   444.87429     -5600.5602     -5512.2907     -220.04626      53493.343      77.501342    
     48910   443.7276      -5600.4023     -5512.3604     -175.05345      53483.846      77.507133    
     48920   442.59893     -5600.2251     -5512.4071     -147.90199      53472.841      77.50623     
     48930   442.03444     -5600.1365     -5512.4305     -92.249044      53460.621      77.499557    
     48940   443.12527     -5600.3419     -5512.4195     -71.437725      53447.614      77.488108    
     48950   447.09656     -5601.0908     -5512.3805     -104.85625      53434.007      77.472253    
     48960   453.502       -5602.3041     -5512.3228     -146.13379      53419.552      77.451649    
     48970   459.57415     -5603.4518     -5512.2657     -177.91833      53403.889      77.425732    
     48980   462.71211     -5604.0487     -5512.24       -165.58181      53386.77       77.394248    
     48990   462.31684     -5603.9982     -5512.2679     -78.139433      53368.332      77.357805    
     49000   459.1657      -5603.4639     -5512.3588      14.417891      53349.272      77.317977    
     49010   454.74063     -5602.7424     -5512.5154      140.14801      53330.472      77.276626    
     49020   450.36245     -5602.0873     -5512.7289      247.51685      53313.015      77.235767    
     49030   445.68883     -5601.4208     -5512.9897      332.51504      53297.828      77.197234    
     49040   440.41975     -5600.6554     -5513.2698      426.02362      53285.69       77.162578    
     49050   436.14912     -5600.0881     -5513.5499      492.19681      53277.376      77.133072    
     49060   434.46254     -5600.005      -5513.8014      500.56877      53273.438      77.109704    
     49070   436.0125      -5600.5258     -5514.0146      402.58909      53273.877      77.093035    
     49080   439.73083     -5601.4402     -5514.1913      265.35153      53277.87       77.083143    
     49090   443.39653     -5602.3147     -5514.3385      125.4833       53284.223      77.079835    
     49100   444.88231     -5602.7358     -5514.4648      24.825646      53291.713      77.082656    
     49110   443.83761     -5602.6458     -5514.582      -26.056486      53299.432      77.090862    
     49120   441.48038     -5602.2715     -5514.6755     -41.681691      53306.927      77.103533    
     49130   439.51384     -5601.9489     -5514.743      -57.399798      53314.023      77.119766    
     49140   439.26588     -5601.9302     -5514.7735     -59.859047      53320.618      77.138669    
     49150   441.19116     -5602.3033     -5514.7647     -79.969989      53326.653      77.159295    
     49160   444.99452     -5603.0116     -5514.7183     -126.94805      53331.925      77.180521    
     49170   448.93579     -5603.7264     -5514.6511     -182.85186      53336.047      77.2007      
     49180   451.42455     -5604.1421     -5514.573      -232.04435      53338.538      77.217928    
     49190   451.59151     -5604.0974     -5514.4952     -250.32492      53338.978      77.230408    
     49200   449.31926     -5603.5686     -5514.4172     -242.81729      53337.201      77.236899    
     49210   445.71784     -5602.7677     -5514.3309     -184.54357      53333.298      77.236768    
     49220   442.40486     -5602.002      -5514.2225     -106.71189      53327.76       77.230187    
     49230   440.65633     -5601.5105     -5514.078      -21.323868      53321.275      77.217892    
     49240   441.05476     -5601.3984     -5513.8869      30.792807      53314.588      77.200992    
     49250   443.44506     -5601.6299     -5513.644       64.57888       53308.164      77.180241    
     49260   446.69665     -5601.9928     -5513.3618      87.084362      53302.279      77.15645     
     49270   450.28262     -5602.3879     -5513.0454      118.3832       53297.175      77.130825    
     49280   454.01913     -5602.7963     -5512.7124      127.37048      53293.105      77.104897    
     49290   457.02136     -5603.061      -5512.3815      129.15019      53290.16       77.080149    
     49300   458.50974     -5603.0424     -5512.0675      100.94409      53288.319      77.057717    
     49310   459.06406     -5602.8618     -5511.7769      121.76241      53287.428      77.03818     
     49320   459.00296     -5602.5897     -5511.517       138.36454      53287.602      77.022286    
     49330   458.02307     -5602.1649     -5511.2866      158.74413      53289.02       77.010609    
     49340   455.81307     -5601.524      -5511.0842      177.57372      53291.857      77.003738    
     49350   452.41759     -5600.6671     -5510.901       188.61283      53296.286      77.002193    
     49360   448.88369     -5599.7882     -5510.7233      184.23129      53302.411      77.006336    
     49370   446.89261     -5599.203      -5510.5331      172.98449      53310.196      77.01619     
     49380   447.19851     -5599.0573     -5510.3267      151.3137       53319.548      77.031629    
     49390   449.11338     -5599.2056     -5510.095       146.73157      53330.314      77.052556    
     49400   452.10777     -5599.5538     -5509.8492      156.27064      53342.466      77.078947    
     49410   455.23431     -5599.9186     -5509.5936      150.6851       53356.071      77.110512    
     49420   457.86819     -5600.1903     -5509.3427      127.93509      53371.091      77.146425    
     49430   459.80393     -5600.3357     -5509.104       118.45883      53387.357      77.185374    
     49440   461.0896      -5600.3785     -5508.8918      93.601993      53404.757      77.225983    
     49450   462.0547      -5600.3822     -5508.7039      76.022389      53423.107      77.266731    
     49460   462.74563     -5600.3687     -5508.5533      42.800839      53442.227      77.306043    
     49470   462.89305     -5600.283      -5508.4383      0.59696861     53461.86       77.342484    
     49480   462.01254     -5600.0365     -5508.3666     -23.253758      53481.636      77.375097    
     49490   460.45036     -5599.6934     -5508.3334     -19.05143       53501.35       77.403555    
     49500   459.15816     -5599.4469     -5508.3433     -22.499249      53521.012      77.428023    
     49510   459.0875      -5599.4846     -5508.3951     -72.315888      53540.565      77.448976    
     49520   459.75849     -5599.7205     -5508.4978     -132.09401      53559.615      77.466953    
     49530   459.85703     -5599.9065     -5508.6643     -201.50484      53577.599      77.482492    
     49540   458.33818     -5599.8453     -5508.9045     -251.64745      53593.922      77.495743    
     49550   454.86628     -5599.4846     -5509.2326     -308.18906      53608.066      77.506632    
     49560   450.23772     -5598.965      -5509.6314     -373.61693      53619.503      77.514942    
     49570   446.09177     -5598.5984     -5510.0874     -430.30987      53627.667      77.520393    
     49580   443.57469     -5598.5885     -5510.5769     -515.87831      53631.958      77.522611    
     49590   442.91418     -5598.9554     -5511.0749     -595.75414      53631.589      77.52093     
     49600   444.15316     -5599.7003     -5511.574      -649.52326      53625.82       77.514562    
     49610   446.75139     -5600.6993     -5512.0575     -693.35659      53614.1        77.502824    
     49620   449.20201     -5601.6606     -5512.5325     -697.54294      53596.022      77.485313    
     49630   450.03202     -5602.2839     -5512.9911     -663.19097      53571.495      77.462256    
     49640   449.29992     -5602.5787     -5513.4312     -582.55967      53540.793      77.434527    
     49650   447.5917      -5602.6476     -5513.839      -472.96326      53504.589      77.403286    
     49660   445.50077     -5602.6022     -5514.2084     -337.55187      53463.857      77.36966     
     49670   443.39499     -5602.5048     -5514.5288     -211.39841      53419.744      77.334615    
     49680   441.89794     -5602.4758     -5514.7969     -94.013487      53373.395      77.299118    
     49690   440.98234     -5602.511      -5515.0138      45.415733      53325.901      77.264389    
     49700   440.47317     -5602.571      -5515.1749      173.35402      53278.474      77.231808    
     49710   441.22156     -5602.8358     -5515.2911      248.06027      53232.231      77.202513    
     49720   443.55765     -5603.3752     -5515.3671      309.86493      53187.92       77.177015    
     49730   446.59235     -5604.0227     -5515.4124      378.212        53146.128      77.15524     
     49740   449.00352     -5604.5295     -5515.4408      457.63275      53107.481      77.13685     
     49750   450.32664     -5604.8145     -5515.4632      523.37361      53072.688      77.121521    
     49760   450.16635     -5604.8013     -5515.4818      569.04949      53042.342      77.109057    
     49770   448.25069     -5604.4417     -5515.5023      624.97653      53016.896      77.099477    
     49780   446.09147     -5604.0289     -5515.518       659.69489      52996.842      77.093011    
     49790   445.88734     -5603.9945     -5515.5241      678.96417      52982.535      77.08965     
     49800   448.28429     -5604.46       -5515.5139      647.61791      52974.113      77.089225    
     49810   452.17866     -5605.2184     -5515.4997      601.04269      52971.376      77.091698    
     49820   454.97448     -5605.7651     -5515.4917      582.59363      52973.967      77.097258    
     49830   454.86595     -5605.7498     -5515.4978      576.99053      52981.714      77.106308    
     49840   452.57578     -5605.3253     -5515.5278      588.15151      52994.6        77.119168    
     49850   448.9783      -5604.6562     -5515.5725      613.3625       53012.741      77.136199    
     49860   444.686       -5603.8528     -5515.6207      627.5397       53036.389      77.158032    
     49870   440.93467     -5603.1456     -5515.6579      620.76347      53065.707      77.185333    
     49880   439.72422     -5602.9193     -5515.6717      549.26141      53100.623      77.21855     
     49890   441.35847     -5603.2104     -5515.6386      414.41464      53140.544      77.257585    
     49900   444.47353     -5603.7532     -5515.5633      228.92844      53184.31       77.301828    
     49910   448.04989     -5604.3409     -5515.4414      24.891191      53230.321      77.350138    
     49920   451.28192     -5604.817      -5515.2762     -184.59268      53276.773      77.400908    
     49930   453.71368     -5605.0953     -5515.072      -365.38013      53321.84       77.452349    
     49940   454.63298     -5605.0474     -5514.8417     -477.62641      53363.944      77.502673    
     49950   453.6784      -5604.6053     -5514.5891     -565.3103       53401.97       77.550191    
     49960   451.16098     -5603.8308     -5514.314      -595.04097      53435.127      77.593382    
     49970   448.35621     -5602.9746     -5514.0143     -613.83068      53463.062      77.631279    
     49980   446.29746     -5602.2308     -5513.679      -597.41688      53485.636      77.663096    
     49990   444.78648     -5601.5574     -5513.3054     -555.34444      53502.947      77.688589    
     50000   443.46387     -5600.8788     -5512.8892     -514.45323      53515.316      77.708165    
Loop time of 5509.84 on 1 procs for 20000 steps with 1536 atoms

Performance: 0.314 ns/day, 76.526 hours/ns, 3.630 timesteps/s, 5.575 katom-step/s
134.1% CPU use with 1 MPI tasks x 1 OpenMP threads

MPI task timing breakdown:
Section |  min time  |  avg time  |  max time  |%varavg| %total
---------------------------------------------------------------
Pair    | 5430.3     | 5430.3     | 5430.3     |   0.0 | 98.56
Bond    | 0.0097384  | 0.0097384  | 0.0097384  |   0.0 |  0.00
Neigh   | 3.8502     | 3.8502     | 3.8502     |   0.0 |  0.07
Comm    | 0.64305    | 0.64305    | 0.64305    |   0.0 |  0.01
Output  | 73.305     | 73.305     | 73.305     |   0.0 |  1.33
Modify  | 1.5917     | 1.5917     | 1.5917     |   0.0 |  0.03
Other   |            | 0.158      |            |       |  0.00

Nlocal:           1536 ave        1536 max        1536 min
Histogram: 1 0 0 0 0 0 0 0 0 0
Nghost:           2360 ave        2360 max        2360 min
Histogram: 1 0 0 0 0 0 0 0 0 0
Neighs:              0 ave           0 max           0 min
Histogram: 1 0 0 0 0 0 0 0 0 0
FullNghs:        41616 ave       41616 max       41616 min
Histogram: 1 0 0 0 0 0 0 0 0 0

Total # of neighbors = 41616
Ave neighs/atom = 27.09375
Ave special neighs/atom = 0
Neighbor list builds = 1887
Dangerous builds = 955
unfix           3

write_data      structure.end.data
System init for write_data ...
write_restart   structure.end
System init for write_restart ...
                    
Total wall time: 2:18:11
