LAMMPS (29 Sep 2021 - Update 3)
OMP_NUM_THREADS environment is not set. Defaulting to 1 thread. (src/comm.cpp:98)
  using 1 OpenMP thread(s) per MPI task
units	metal
atom_style	full

read_data	structureA.data
Reading data file ...
  orthogonal box = (-0.23984383 -0.30016026 -2.1088637) to (16.931975 16.992292 35.493127)
  2 by 2 by 4 MPI processor grid
  reading atoms ...
  432 atoms
  reading velocities ...
  432 velocities
Finding 1-2 1-3 1-4 neighbors ...
  special bond factors lj:    0        0        0       
  special bond factors coul:  0        0        0       
     0 = max # of 1-2 neighbors
     0 = max # of 1-3 neighbors
     0 = max # of 1-4 neighbors
     1 = max # of special neighbors
  special bonds CPU = 0.005 seconds
  read_data CPU = 0.348 seconds

pair_style	quip
pair_coeff	* * /ocean/projects/cts180021p/wuziqi/clease/mint-PD/PhaseDiagram-Clease/Liquid/GAP_potential/gap_LiKCl.xml "Potential xml_label=GAP_2021_9_27_0_1_17_37_618" 17 19 3

neighbor	0.3 bin
neigh_modify	delay 10

timestep	0.001
compute	msd all msd
thermo_style	custom step temp pe etotal press vol c_msd[4]
thermo	10
dump	1 all custom 10 xyz-melt.dump type id x y z
dump	2 all custom 10 force-melt.dump type id fx fy fz

fix     1 all npt temp 300 2000 $(100.0*dt) z 1.01325 1.01325 $(1000.0*dt) couple none
fix     1 all npt temp 300 2000 0.10000000000000000555 z 1.01325 1.01325 $(1000.0*dt) couple none
fix     1 all npt temp 300 2000 0.10000000000000000555 z 1.01325 1.01325 1 couple none
run     5000
Neighbor list info ...
  update every 1 steps, delay 10 steps, check yes
  max neighbors/atom: 2000, page size: 100000
  master list distance cutoff = 6.22
  ghost atom cutoff = 6.22
  binsize = 3.11, bins = 6 6 13
  1 neighbor lists, perpetual/occasional/extra = 1 0 0
  (1) pair quip, perpetual
      attributes: full, newton on
      pair build: full/bin
      stencil: full/bin/3d
      bin: standard
Per MPI rank memory allocation (min/avg/max) = 8.883 | 8.887 | 8.891 Mbytes
Step Temp PotEng TotEng Press Volume c_msd[4] 
       0    298.40334   -3607.8257   -3591.2013    713.97711    11165.643            0 
      10    292.56096   -3607.4971   -3591.1982    1246.9483    11165.526 0.0045142115 
      20    286.98602   -3607.1724   -3591.1841    1745.4351    11165.526  0.016312002 
      30    279.34463   -3606.7112   -3591.1486    1985.8563    11166.139   0.03163243 
      40    283.52031   -3606.8786   -3591.0834    1692.5045    11167.585  0.046573908 
      50    293.18469   -3607.3161   -3590.9825    916.06408    11169.582  0.059519012 
      60     292.3294   -3607.1342   -3590.8482    126.38466    11171.454  0.070592268 
      70     287.4872   -3606.6996   -3590.6833   -304.96924     11172.53  0.079891306 
      80    299.30358   -3607.1595    -3590.485   -404.79858    11172.497  0.087897259 
      90    307.44792   -3607.3864   -3590.2581   -267.42806    11171.314  0.096747522 
     100    307.48472   -3607.1575   -3590.0272   -41.583493    11168.945   0.10774744 
     110    303.03543   -3606.6885   -3589.8061    104.45373    11165.406   0.12027841 
     120    300.91692   -3606.3627   -3589.5983    456.71703    11160.928   0.13221135 
     130     313.0803   -3606.8427   -3589.4006    848.20929        11156   0.14195812 
     140    327.93334   -3607.4853   -3589.2157    1125.3145    11151.017   0.15041762 
     150    331.68765   -3607.5295   -3589.0508    1343.1704    11146.233   0.15944272 
     160    322.62642   -3606.8766   -3588.9027    1584.8367    11142.005   0.16981467 
     170    314.50879    -3606.278   -3588.7563    1782.7331    11138.802   0.18063564 
     180     317.2313   -3606.2711   -3588.5977    1726.3757    11137.062   0.19085386 
     190    318.47015   -3606.1626   -3588.4202    1801.5664    11136.854   0.20042955 
     200    314.45893   -3605.7433   -3588.2245    1827.2033    11138.148   0.20925751 
     210    313.98316   -3605.4996   -3588.0073    1760.7473    11140.883   0.21679051 
     220    326.75661   -3605.9686   -3587.7647     1645.391    11144.973   0.22277185 
     230    338.27652   -3606.3485   -3587.5027    1368.7605    11150.474   0.22857723 
     240    333.26411   -3605.8061   -3587.2396     1082.395    11157.577   0.23565996 
     250    330.46994   -3605.3899   -3586.9791    437.43097    11166.282   0.24379489 
     260    329.24991   -3605.0508    -3586.708   -280.29364    11176.148   0.25331187 
     270    326.30713   -3604.6045   -3586.4256   -853.21135    11186.603   0.26462526 
     280    329.56583   -3604.4877   -3586.1272   -1306.4107    11197.089   0.27691289 
     290    332.80284   -3604.3536   -3585.8128   -1275.1974    11206.967   0.28879461 
     300    328.39552   -3603.7867   -3585.4914   -675.22551    11215.845   0.29881985 
     310    331.26122   -3603.6204   -3585.1655   -444.04289    11223.703   0.30558272 
     320    352.15257   -3604.4414   -3584.8225   -883.09377    11230.483   0.30965769 
     330    360.08021   -3604.5307   -3584.4702   -1208.7644    11235.934   0.31415799 
     340    351.65554   -3603.7211     -3584.13   -828.44735     11240.05   0.32063179 
     350    348.62808    -3603.219   -3583.7966    13.796002    11243.457   0.32812465 
     360    353.07942   -3603.1243   -3583.4539    655.69824    11246.976   0.33544172 
     370    363.11286   -3603.3261   -3583.0966    1126.0404    11250.995    0.3421661 
     380     366.3057   -3603.1363    -3582.729    1390.9486    11255.433   0.34879471 
     390    362.55337   -3602.5577   -3582.3595    1241.0359    11260.008   0.35561913 
     400    360.58272   -3602.0734    -3581.985    867.02809    11264.308   0.36228439 
     410    367.81019   -3602.0898   -3581.5986    465.55274    11267.876   0.36816283 
     420    376.82392   -3602.1925   -3581.1992    146.54822    11270.496   0.37358824 
     430    376.48532   -3601.7709   -3580.7965     262.8579    11272.285   0.37948751 
     440    384.97923   -3601.8395   -3580.3919    519.11185      11273.4   0.38598276 
     450    401.81041   -3602.3618   -3579.9765    773.95949    11273.627   0.39301409 
     460    405.56589   -3602.1557   -3579.5612    1086.9836    11272.764   0.40039011 
     470     401.3926   -3601.5179   -3579.1559    1334.7065    11271.005   0.40719302 
     480    396.38569   -3600.8369   -3578.7538    1342.7282    11268.718   0.41265546 
     490    393.32942   -3600.2586   -3578.3457    1342.1016    11266.194   0.41655488 
     500    393.56677    -3599.852    -3577.926    1473.8395    11263.605   0.41924156 
     510    395.76384   -3599.5405    -3577.492    1536.9377    11261.188   0.42170648 
     520    397.28377   -3599.1798   -3577.0466    1481.5377      11259.3   0.42472056 
     530     394.6492   -3598.5807   -3576.5943    1566.4408    11258.253   0.42814442 
     540    401.20225   -3598.4868   -3576.1354    1487.7338     11258.06   0.43103277 
     550    411.02031   -3598.5608   -3575.6624    1050.0851    11258.373   0.43328615 
     560     416.3553   -3598.3798   -3575.1842    899.75402    11258.677   0.43565021 
     570    425.93208   -3598.4323   -3574.7031    1187.0401    11258.783   0.43880706 
     580    422.76528    -3597.775   -3574.2223    1673.2873    11258.743   0.44350057 
     590    415.06122   -3596.8719   -3573.7484    1971.4535    11258.742   0.44888367 
     600    424.62353   -3596.9217   -3573.2655    1956.7483    11259.156   0.45354655 
     610    447.07986   -3597.6689   -3572.7616    1645.0745    11260.478   0.45795221 
     620    463.98217   -3598.0973   -3572.2484    1141.7419    11262.851   0.46282748 
     630    472.32994    -3598.057   -3571.7429    718.70826    11265.926   0.46767765 
     640    473.42348   -3597.6285   -3571.2535    633.82931    11269.456    0.4715251 
     650    475.28317   -3597.2533   -3570.7747    832.95227    11273.437   0.47352777 
     660    472.36397   -3596.6178   -3570.3019    1380.3795    11277.934   0.47328121 
     670    471.56718   -3596.1016   -3569.8301    2081.7968    11283.063    0.4714396 
     680    458.02739   -3594.8748   -3569.3576    2651.2599     11288.99   0.47020253 
     690    470.88764   -3595.1078   -3568.8742    2633.6834    11295.899   0.46982408 
     700    489.24427   -3595.6179   -3568.3616    2270.5393    11303.653   0.47103547 
     710    491.22188    -3595.211   -3567.8444    2136.5452    11311.839   0.47436656 
     720    494.95148   -3594.9115   -3567.3372    2328.5265    11320.505   0.47909827 
     730    501.32067   -3594.7658   -3566.8366    2664.9211    11330.229   0.48513011 
     740    502.73688   -3594.3481   -3566.3401    2817.6441    11341.375    0.4926194 
     750    497.99039   -3593.5874   -3565.8438    2245.2706     11353.74   0.50144054 
     760    489.36072   -3592.6016   -3565.3388     1103.624    11366.579   0.51126649 
     770    477.66662   -3591.4301   -3564.8187    99.004562    11378.844   0.52111815 
     780    467.78767   -3590.3446   -3564.2836   -430.48005    11389.791   0.52903334 
     790    492.89494    -3591.182   -3563.7223   -807.06486    11399.251   0.53346391 
     800     521.4319   -3592.1766    -3563.127    -805.3373    11407.355   0.53681052 
     810    525.55736   -3591.8167   -3562.5374   -347.75976    11414.252   0.54184227 
     820    512.91552   -3590.5487   -3561.9736     326.1328    11420.004    0.5482969 
     830    508.35068    -3589.745   -3561.4242     620.6898    11424.717   0.55381069 
     840    512.80795    -3589.435   -3560.8659    580.14061    11428.519   0.55631709 
     850    513.15568   -3588.8865    -3560.298     499.4029    11431.427    0.5560553 
     860    519.63873   -3588.6721   -3559.7224    530.41006    11433.482   0.55525551 
     870    539.63682   -3589.1966   -3559.1328    651.06253    11434.938   0.55556802 
     880    550.95152   -3589.2307   -3558.5365    662.44323    11436.152   0.55714545 
     890    559.85242   -3589.1411   -3557.9511    735.17975    11437.491   0.55902234 
     900    578.39849   -3589.5955   -3557.3723    1042.4354    11439.376   0.56097124 
     910    590.76743   -3589.7191   -3556.8068    1751.3509     11442.14   0.56421509 
     920    593.42898   -3589.3252   -3556.2646    2276.4515    11445.866   0.56944094 
     930    585.06158   -3588.3408   -3555.7463    2212.1698    11450.313    0.5760129 
     940    571.08057   -3587.0569   -3555.2413    2036.1111    11455.064   0.58166884 
     950    582.35814   -3587.1725   -3554.7287    1701.3974      11459.8    0.5849064 
     960    612.49896   -3588.3167   -3554.1937    1295.3835    11464.382   0.58672688 
     970    625.02427   -3588.4803   -3553.6595    1387.2755    11468.798   0.58949247 
     980    611.03573   -3587.1966   -3553.1551    1650.1866    11473.267   0.59522938 
     990    594.16495   -3585.7752   -3552.6736    1896.1374    11478.067   0.60402802 
    1000    591.48268   -3585.1401    -3552.188    1711.3751     11483.31   0.61481446 
    1010    590.97507   -3584.6067   -3551.6828    1598.5617    11488.924   0.62645551 
    1020    599.65167   -3584.5637   -3551.1564    1489.5983     11494.72   0.63757356 
    1030    597.37449   -3583.8908   -3550.6104    1233.9027    11500.418   0.64765423 
    1040    605.39796   -3583.7808   -3550.0534    877.06457    11505.475   0.65587368 
    1050    602.45882   -3583.0452   -3549.4816    807.84786    11509.136   0.66173272 
    1060    621.10696   -3583.5084   -3548.9059    761.69642    11511.109   0.66291796 
    1070    639.48085   -3583.9444   -3548.3182    802.95929    11511.481   0.66097209 
    1080    659.07024    -3584.459   -3547.7415    945.39602    11510.705   0.66013476 
    1090    676.46043   -3584.8699   -3547.1836    1191.0269    11509.298   0.66361413 
    1100     661.7901   -3583.5331    -3546.664    1713.7713    11507.617   0.67209571 
    1110    633.86257   -3581.4911   -3546.1779    2101.9512     11505.87   0.68240464 
    1120    647.95457   -3581.7877   -3545.6894    2006.6389    11503.961   0.69039041 
    1130    682.40454   -3583.1908   -3545.1733    1495.0893      11501.8   0.69643751 
    1140    701.44017     -3583.74    -3544.662    1439.4475    11499.391   0.70327044 
    1150    696.98041   -3583.0122   -3544.1827     2002.084    11497.035   0.71233811 
    1160    693.49548   -3582.3717   -3543.7363     2174.968    11495.464   0.72234446 
    1170    699.37423   -3582.2713   -3543.3084    2076.5676     11494.95   0.73185606 
    1180    702.71733   -3582.0435   -3542.8943    2274.7765    11495.426   0.74190311 
    1190     700.6098   -3581.5282   -3542.4965    2502.0709    11496.968   0.75478651 
    1200    670.46341    -3579.462   -3542.1098     2819.891    11499.676   0.77133106 
    1210     660.0664   -3578.4878   -3541.7148    2770.7704    11503.655   0.78809811 
    1220    677.23583   -3579.0081   -3541.2786    2290.6577    11508.715   0.80220939 
    1230    674.94093   -3578.4089   -3540.8072    2238.6707    11514.373   0.81448034 
    1240    677.61533   -3578.0666   -3540.3159    2548.1561    11520.433   0.82553867 
    1250    690.80727   -3578.2852   -3539.7995     2655.568    11527.018   0.83516146 
    1260    702.60127   -3578.4068   -3539.2641    2679.8734    11533.906    0.8417614 
    1270    707.07474   -3578.1161   -3538.7242    2712.9914    11540.643   0.84581427 
    1280    704.13789   -3577.4139   -3538.1856    2393.5153    11546.736   0.84897789 
    1290    718.03204   -3577.6509   -3537.6486    1956.1063    11551.793   0.85167744 
    1300    722.66465   -3577.3718   -3537.1114     1630.909    11555.528   0.85434392 
    1310    707.71921   -3576.0168    -3536.589    1857.4204    11557.747   0.85732483 
    1320    693.91389   -3574.7301   -3536.0714    1924.4627    11558.928   0.86136866 
    1330    722.21838   -3575.7678   -3535.5322      1540.86    11559.808   0.86616374 
    1340    757.83852   -3577.1891    -3534.969    1251.5407    11561.008    0.8724687 
    1350    770.57263    -3577.352   -3534.4225    1342.6725    11562.712    0.8807764 
    1360    779.74691   -3577.3561   -3533.9156    1836.9541    11564.744   0.88828384 
    1370    803.47379   -3578.2111   -3533.4487    2181.2247    11567.293   0.89497712 
    1380    806.80359   -3577.9824   -3533.0345    2439.2978    11570.731   0.90451406 
    1390    771.03561   -3575.6348   -3532.6795    2581.7861    11575.306   0.91717238 
    1400    731.11909   -3573.0798   -3532.3483    2348.3503    11580.792   0.92931524 
    1410    743.56135   -3573.4145   -3531.9898    1641.0205    11586.719   0.93850912 
    1420     755.5218   -3573.6791   -3531.5882     1079.882    11592.688   0.94858006 
    1430    748.46162   -3572.8593   -3531.1617    1135.6414    11598.303   0.96329816 
    1440    741.12159   -3572.0035   -3530.7148    1369.7436     11603.24   0.98204908 
    1450    732.05286   -3571.0206   -3530.2371    1707.1585    11607.577    1.0021689 
    1460    741.70414   -3571.0451    -3529.724    1761.4177     11611.79    1.0222107 
    1470    772.19742   -3572.1905   -3529.1705    1580.7868    11616.281    1.0435975 
    1480    766.39654   -3571.2995   -3528.6027    1762.8261    11620.864     1.066942 
    1490    737.88177    -3569.153   -3528.0448    1961.1399     11625.21    1.0883235 
    1500    744.95729   -3568.9749   -3527.4725    1770.1456    11629.392    1.1046933 
    1510    779.29689   -3570.2819   -3526.8664    1741.0011    11633.747    1.1175324 
    1520    796.97491     -3570.65   -3526.2496    1907.7388    11638.845    1.1317781 
    1530    826.02084   -3571.6758   -3525.6573     1385.301    11645.396    1.1501324 
    1540    848.15789   -3572.3462   -3525.0944    736.99736    11653.526    1.1734721 
    1550    819.67555   -3570.2512   -3524.5861    853.24663    11662.592    1.2017865 
    1560    823.98784   -3570.0222   -3524.1169    940.68283        11672    1.2309981 
    1570    780.54709   -3567.1407   -3523.6555    1390.5608    11681.359    1.2610641 
    1580    772.15644   -3566.2131   -3523.1954    1772.2677    11690.845    1.2911079 
    1590    789.25269   -3566.6642   -3522.6941    1789.4361    11701.381    1.3238414 
    1600    782.26344   -3565.7343   -3522.1535    1452.0095    11713.379    1.3595288 
    1610    814.36498   -3566.9497   -3521.5805    849.36982    11726.102     1.391948 
    1620    849.62854   -3568.3072   -3520.9734    520.37369    11738.765    1.4210127 
    1630    854.75087   -3568.0148   -3520.3957    684.13386    11751.318    1.4522821 
    1640    838.24559   -3566.5682   -3519.8686    1037.8903    11764.535    1.4900946 
    1650    827.88114   -3565.4962    -3519.374    1358.9104    11779.352    1.5347677 
    1660    867.21905   -3567.1918   -3518.8781    636.66214    11796.222     1.585625 
    1670    869.43592   -3566.8194   -3518.3822    266.20004    11814.819     1.644166 
    1680    847.46232   -3565.1238   -3517.9107    794.54718    11834.474    1.7060873 
    1690     838.7033   -3564.1705   -3517.4454    967.14365    11854.816    1.7661281 
    1700    844.25135   -3563.9965   -3516.9623    382.47581    11875.774    1.8246868 
    1710    866.25805   -3564.7009   -3516.4407   -679.28814    11896.618    1.8813405 
    1720    864.37144   -3564.0546   -3515.8995     -1215.99    11915.982    1.9373599 
    1730    838.80356   -3562.0941   -3515.3634   -1539.2965    11932.887    1.9931962 
    1740     843.2846   -3561.8011   -3514.8208   -1850.2063     11947.15    2.0454937 
    1750    875.53295   -3563.0398   -3514.2629   -2206.9491    11959.247    2.0924481 
    1760    855.94647   -3561.3898   -3513.7041   -1925.3562    11969.889    2.1386464 
    1770    848.25239   -3560.4151    -3513.158   -1512.0494    11979.729    2.1859693 
    1780    847.77044   -3559.8237   -3512.5934   -1193.8752    11989.093      2.23409 
    1790    831.81213   -3558.3545   -3512.0133   -1122.8254    11998.158    2.2830994 
    1800     841.2811   -3558.2714   -3511.4027   -1428.1797    12006.641    2.3288396 
    1810     871.3538   -3559.3012   -3510.7571   -1244.8207    12013.819    2.3674808 
    1820    892.01593   -3559.7965   -3510.1012   -610.48912    12018.981    2.4043835 
    1830    904.46815   -3559.8628   -3509.4738     85.58143    12021.922    2.4449218 
    1840      887.758   -3558.3381   -3508.8802     980.6535    12022.957    2.4855114 
    1850     911.7545   -3559.1082   -3508.3133    931.04935    12022.285    2.5160086 
    1860     934.3791   -3559.8095   -3507.7542    228.85408    12019.865    2.5349236 
    1870    958.21726   -3560.6126   -3507.2293   -135.44084    12015.927    2.5488497 
    1880    965.90078   -3560.5612   -3506.7498    161.96603    12011.062    2.5632052 
    1890    968.64465    -3560.291   -3506.3267    705.11646    12005.907    2.5780776 
    1900    934.60796   -3558.0157   -3505.9477    1627.7423    12000.972    2.5939899 
    1910    901.24127   -3555.7913   -3505.5821    2189.6969    11996.769    2.6104304 
    1920    926.58525   -3556.8137   -3505.1926    2440.6264    11993.269    2.6261006 
    1930    918.57979    -3555.943   -3504.7679     3341.973    11990.251    2.6416002 
    1940    916.16454   -3555.3665    -3504.326    3374.1653    11988.356    2.6544042 
    1950    900.09875   -3553.9938   -3503.8483    3293.0027    11988.233    2.6641049 
    1960    918.33024   -3554.5041   -3503.3429    2867.7356    11990.227    2.6692208 
    1970    898.36282   -3552.8424   -3502.7936    2952.8941     11994.03    2.6760943 
    1980    885.40248   -3551.5486   -3502.2218    2738.4942    11999.085     2.692233 
    1990    925.12674   -3553.1368   -3501.5969    2057.2108     12004.59    2.7202562 
    2000     946.3496   -3553.6605   -3500.9383    1851.7567    12009.921    2.7552043 
    2010    956.37048   -3553.5781   -3500.2976    1627.9345    12015.142    2.7876908 
    2020     963.7669   -3553.3751   -3499.6825    1251.4243    12020.214    2.8126921 
    2030    961.85729   -3552.6831   -3499.0969    947.59727    12024.812    2.8266381 
    2040    962.89683   -3552.1812   -3498.5372    548.00569     12028.37    2.8315963 
    2050    958.28516   -3551.3784   -3497.9913    635.64335    12030.383    2.8333935 
    2060     978.8979   -3551.9892   -3497.4537    605.63188    12030.556    2.8340445 
    2070    1001.9844   -3552.7465   -3496.9248     599.0655    12028.531    2.8340271 
    2080    1007.1675   -3552.5373   -3496.4268    848.84546     12024.35    2.8348529 
    2090    1003.4024   -3551.8579   -3495.9572      900.257    12018.666    2.8347191 
    2100    1007.3008   -3551.6218   -3495.5039    803.11032    12012.887    2.8325232 
    2110    1015.6702   -3551.6498   -3495.0657    637.87389    12007.707    2.8301034 
    2120    1025.9987   -3551.8049   -3494.6454    802.04922     12002.53     2.829031 
    2130    1031.3985   -3551.7088   -3494.2484    1413.0782    11996.615     2.828503 
    2140    1016.5359   -3550.5044   -3493.8721    1929.0938    11989.886    2.8278491 
    2150    1015.9541   -3550.1006   -3493.5007     1803.664    11982.493    2.8269865 
    2160    1045.0672   -3551.3348   -3493.1129    1684.5038    11975.038    2.8292325 
    2170    1051.5684   -3551.3172   -3492.7332     2244.136    11968.539    2.8394877 
    2180    1038.6262   -3550.2401   -3492.3771    2949.5991    11963.886    2.8601903 
    2190    1014.5875   -3548.5537   -3492.0299    3430.5187    11962.151    2.8931773 
    2200    1023.0952   -3548.6766   -3491.6788    3032.3811    11963.946    2.9359431 
    2210    1009.2039   -3547.5244   -3491.3005    2703.9256    11968.835    2.9831606 
    2220    1043.8874    -3549.049   -3490.8929    2724.6836    11975.779    3.0278857 
    2230    1070.8394   -3550.1194   -3490.4618     3236.297    11983.886    3.0709898 
    2240    1037.3635   -3547.8511   -3490.0584    4007.5953    11993.803    3.1189032 
    2250    1057.9738   -3548.6144   -3489.6735     3595.515    12007.099    3.1749756 
    2260    1101.5428   -3550.6447   -3489.2765    2443.8572    12023.761    3.2423981 
    2270    1072.9849   -3548.6784   -3488.9012      1570.87    12042.739    3.3214989 
    2280    1065.0914   -3547.8718   -3488.5344    683.45807    12062.802    3.4069711 
    2290    1051.2283   -3546.7128   -3488.1477     625.5848    12082.512    3.4950175 
    2300    1047.4581   -3546.1005   -3487.7454    1268.8421    12101.171    3.5806332 
    2310    1058.4624   -3546.2933   -3487.3252    1235.7391    12118.796    3.6596493 
    2320    1054.0905   -3545.6049   -3486.8804     705.6223    12135.666    3.7328246 
    2330    1049.1462    -3544.878   -3486.4289    265.12429     12152.07    3.7990823 
    2340    1036.4176   -3543.6942   -3485.9542    21.098089    12168.598    3.8664607 
    2350    1069.1988   -3545.0137   -3485.4475    -390.4549    12185.517    3.9445381 
    2360    1071.3476   -3544.5875   -3484.9015   -548.38107    12202.093    4.0393553 
    2370    1068.7651   -3543.9012   -3484.3591   -562.22812    12217.448    4.1459806 
    2380    1085.7254   -3544.3021   -3483.8151   -257.95484    12231.214    4.2511857 
    2390    1098.5807     -3544.49   -3483.2869    146.51835    12243.267    4.3439098 
    2400    1061.5873   -3541.9315   -3482.7893    527.94333    12253.734    4.4274137 
    2410    1053.9162   -3541.0212   -3482.3063    566.61521    12263.067    4.5061062 
    2420    1096.0281   -3542.8682   -3481.8073    732.83661    12271.676    4.5736502 
    2430    1114.8182   -3543.4228   -3481.3151    1577.8751    12279.724    4.6326979 
    2440    1068.6774   -3540.3992    -3480.862    2877.4279     12287.72    4.6967495 
    2450    1087.8978   -3541.0355   -3480.4275    3009.1162    12296.682    4.7705677 
    2460    1127.5141   -3542.7975   -3479.9824    2815.5699    12307.249    4.8539563 
    2470    1109.3978   -3541.3712   -3479.5654    2569.9029    12319.593    4.9397669 
    2480    1115.3301   -3541.3036   -3479.1673    1797.3772    12333.366    5.0142868 
    2490    1145.4683   -3542.5827   -3478.7674     1136.332    12347.635    5.0707671 
    2500    1113.4492   -3540.4161   -3478.3846    1878.0524    12361.529    5.1184506 
    2510    1106.1782   -3539.6448   -3478.0183    2523.9288    12375.032    5.1731401 
    2520    1140.2638   -3541.1595   -3477.6341    1720.4458    12388.264    5.2418062 
    2530    1120.0719   -3539.6381   -3477.2377    1051.7581    12400.825    5.3185894 
    2540    1127.1693   -3539.6429    -3476.847     733.2315    12412.266    5.3894474 
    2550    1114.1288   -3538.5085   -3476.4391    538.01618    12422.542    5.4502126 
    2560    1101.2186   -3537.3695   -3476.0194    425.92231    12432.135      5.50646 
    2570    1107.3445   -3537.2605   -3475.5691    584.76191    12441.907    5.5633464 
    2580    1128.5853   -3537.9673   -3475.0926    263.90974    12453.167    5.6234847 
    2590    1162.8644    -3539.379   -3474.5945   -216.03502    12466.237    5.6929696 
    2600    1151.8574   -3538.2648   -3474.0936   -278.26875    12480.386    5.7795974 
    2610    1160.7552   -3538.2705   -3473.6035   -750.58013    12494.331    5.8770088 
    2620    1160.2688   -3537.7538   -3473.1139   -1282.9267     12506.56    5.9693392 
    2630     1151.312   -3536.7821   -3472.6413   -1713.8359    12516.251    6.0428018 
    2640    1161.0834   -3536.8579   -3472.1726   -2544.8523    12522.931    6.1002168 
    2650    1208.2361   -3539.0281   -3471.7159   -2705.7626    12526.294    6.1532738 
    2660    1193.5263    -3537.792   -3471.2994   -2058.8506    12526.293    6.2088899 
    2670    1193.6789   -3537.4294   -3470.9282   -1837.8993    12523.086    6.2622071 
    2680    1211.4047    -3538.066   -3470.5773   -1856.1039    12516.957    6.3073662 
    2690    1208.3348   -3537.5799   -3470.2622   -1835.1457    12508.042    6.3421777 
    2700     1184.825    -3535.988   -3469.9801   -1370.3055    12495.754    6.3567752 
    2710    1178.3526   -3535.3568   -3469.7094   -670.47199    12479.555    6.3486579 
    2720     1155.312   -3533.7758   -3469.4121    290.92624    12459.749    6.3343935 
    2730    1152.1641   -3533.2448   -3469.0564    552.78654    12437.519    6.3184267 
    2740    1179.5651   -3534.3468   -3468.6319    445.10246    12414.181    6.2892331 
    2750    1211.6718   -3535.6628   -3468.1592    444.35529    12390.689    6.2431446 
    2760    1223.1048   -3535.8143   -3467.6738    972.78058    12367.674    6.1898706 
    2770    1252.5583   -3536.9791   -3467.1976    1882.0579     12345.76    6.1433523 
    2780     1276.523   -3537.8662   -3466.7497    2803.5356    12325.782    6.1199106 
    2790    1242.7455   -3535.5876   -3466.3529    4047.7461     12308.52     6.128029 
    2800    1213.2607   -3533.5783   -3465.9862    4663.1037    12294.736    6.1631444 
    2810    1189.2317   -3531.8707   -3465.6173    4544.9974    12285.059    6.2097368 
    2820    1203.9511    -3532.302   -3465.2285    4259.0537    12279.926     6.246148 
    2830    1255.0857   -3534.7444   -3464.8222    4066.9636    12279.811     6.268578 
    2840    1291.6607   -3536.3995   -3464.4397    3636.5496    12284.764    6.2965094 
    2850    1279.8831   -3535.4158    -3464.112    3419.9064    12293.751    6.3440599 
    2860    1255.8661   -3533.8057     -3463.84    2755.2513     12306.43    6.4096697 
    2870    1241.2777   -3532.7298   -3463.5768    1834.0964    12322.578    6.4870346 
    2880    1249.4503   -3532.9004   -3463.2921    1621.4534    12341.209    6.5749187 
    2890     1278.745   -3534.2144   -3462.9741    1082.4861      12360.7    6.6769617 
    2900    1240.1599    -3531.735   -3462.6443     1211.397    12379.478    6.7931686 
    2910      1215.88   -3530.0391   -3462.3011    1179.7415    12396.836    6.9141522 
    2920    1216.4599   -3529.6785   -3461.9082    863.84049     12412.49    7.0337204 
    2930    1205.1564   -3528.6018   -3461.4612    615.76683    12426.068    7.1549988 
    2940    1207.9954   -3528.2634   -3460.9646    580.45006    12437.062    7.2699604 
    2950    1236.5981   -3529.3148   -3460.4225    877.51212    12445.527    7.3666621 
    2960    1275.3575   -3530.9149   -3459.8633    1166.4764    12452.189    7.4457692 
    2970    1303.8509   -3531.9639   -3459.3249    882.58422    12458.135    7.5110266 
    2980    1320.7292   -3532.4247   -3458.8454      662.717    12464.182    7.5718498 
    2990     1319.962   -3531.9694   -3458.4328    554.90243    12470.277    7.6393254 
    3000    1273.8866   -3529.0443   -3458.0746    359.17838     12475.21    7.7178061 
    3010    1262.2272   -3528.0563   -3457.7362    72.777582    12477.945    7.8013169 
    3020    1280.2934   -3528.7138   -3457.3872    665.04758    12478.272    7.8775554 
    3030    1303.5374   -3529.6626   -3457.0411     1238.957    12477.015    7.9403757 
    3040    1280.6847   -3528.0465   -3456.6981    1895.1086    12475.513    7.9973472 
    3050     1300.408   -3528.8035   -3456.3563    1733.1463    12474.615    8.0660044 
    3060    1334.2991    -3530.347   -3456.0117    1633.5993    12474.158    8.1431578 
    3070    1337.6488   -3530.2095   -3455.6876    1657.9442    12474.112    8.2226127 
    3080    1335.8477   -3529.8145    -3455.393    1753.5224    12474.673    8.3022729 
    3090    1317.0323    -3528.486   -3455.1126    1586.6192    12476.145     8.380345 
    3100    1292.7911   -3526.8464   -3454.8235    1143.7194    12478.991    8.4580539 
    3110    1313.6396   -3527.6906   -3454.5063    92.091245    12483.439    8.5393464 
    3120    1324.9211   -3527.9663   -3454.1535   -754.36299    12488.682    8.6253898 
    3130    1308.7272   -3526.6925   -3453.7818   -1437.0969    12494.156    8.7059072 
    3140    1281.0952   -3524.7459   -3453.3747   -1419.5873    12499.274    8.7634533 
    3150    1298.4784   -3525.2535   -3452.9138   -1404.8717    12503.101    8.7902048 
    3160    1328.7471   -3526.4236   -3452.3976   -2054.4769    12505.146    8.7993035 
    3170    1311.6112   -3524.9271   -3451.8558   -1695.5875    12505.002    8.8127934 
    3180    1334.2111   -3525.6332   -3451.3028   -490.33841    12502.714    8.8416086 
    3190    1342.4818   -3525.5157   -3450.7245    835.61208    12499.689    8.8857014 
    3200    1364.8507   -3526.1913   -3450.1539    1037.2027    12498.038    8.9391692 
    3210    1362.5879     -3525.51   -3449.5987    587.58257    12498.506    8.9922347 
    3220    1354.2344   -3524.5236   -3449.0776    402.41509    12500.194    9.0337315 
    3230    1321.4657   -3522.1909   -3448.5705    743.96417    12502.357    9.0725314 
    3240    1331.6156   -3522.2425   -3448.0567    1269.8538    12504.987    9.1245429 
    3250    1333.5729   -3521.8222   -3447.5274    1915.6847    12508.993    9.1928914 
    3260    1343.4928   -3521.8414   -3446.9939    1837.0525     12515.29    9.2714392 
    3270    1386.7635   -3523.7111    -3446.453    1183.1282    12523.099     9.346727 
    3280    1377.1809   -3522.6611   -3445.9368     1535.617    12531.627    9.4218426 
    3290    1370.5931   -3521.8268   -3445.4695     1845.344    12541.985    9.5023756 
    3300    1367.3416   -3521.2042   -3445.0281     1937.665    12555.619    9.5862553 
    3310    1420.9113   -3523.7685   -3444.6079    1744.3656    12573.315    9.6770894 
    3320    1415.1507    -3523.053   -3444.2133    947.38728     12594.91    9.7846154 
    3330    1421.9426   -3523.0558   -3443.8378   -142.92468    12619.263    9.9050885 
    3340    1417.3547   -3522.4121   -3443.4497   -841.12285    12644.335    10.055816 
    3350    1385.3666   -3520.2345   -3443.0542    -1040.381    12668.252    10.255691 
    3360     1418.085   -3521.6461    -3442.643   -1522.0371    12690.109    10.482745 
    3370     1424.688   -3521.5873   -3442.2163   -1047.1293    12709.251    10.693244 
    3380    1415.3662   -3520.6448   -3441.7931   -469.08177    12724.834    10.858095 
    3390    1441.8782   -3521.7106    -3441.382   -361.42723    12736.592    10.976046 
    3400    1425.9926    -3520.432   -3440.9884    211.86026    12745.904    11.070769 
    3410    1377.5616   -3517.3445    -3440.599    742.33314    12755.245    11.174088 
    3420    1405.1938   -3518.4524   -3440.1675    72.562484     12765.68     11.29068 
    3430    1437.0665   -3519.7275   -3439.6669   -1303.0657    12776.068    11.408931 
    3440    1485.6641   -3521.9124   -3439.1444   -2162.5652    12784.162    11.513698 
    3450    1512.9777   -3522.9448   -3438.6551   -2126.2293    12788.463    11.595344 
    3460     1484.722   -3520.9517   -3438.2361   -1572.2217     12788.97    11.662997 
    3470    1441.2442   -3518.1638   -3437.8704   -1431.7884    12785.773    11.729855 
    3480    1433.4413   -3517.3681   -3437.5095   -1756.4594    12778.113    11.799779 
    3490    1450.5709    -3517.941   -3437.1281   -1835.2615    12765.408    11.859834 
    3500    1424.4886   -3516.0667   -3436.7069   -772.25716     12748.76    11.903856 
    3510     1470.659   -3518.1675   -3436.2354   -354.89638    12730.437    11.936568 
    3520    1486.9107    -3518.565   -3435.7275   -551.66978    12711.732    11.972248 
    3530    1461.7616   -3516.6663   -3435.2299    66.907759    12693.163    12.012341 
    3540    1442.6984   -3515.0955   -3434.7212    1189.2782    12675.417    12.043057 
    3550    1472.8349   -3516.2404   -3434.1871    1035.2276    12658.963    12.065623 
    3560    1510.9969   -3517.8261   -3433.6467     630.0134    12643.641    12.092741 
    3570    1508.4695   -3517.1766   -3433.1381    1607.9898    12629.164    12.113194 
    3580    1531.4438   -3517.9825   -3432.6641    3058.8559    12615.641    12.116573 
    3590    1600.2895   -3521.3934   -3432.2395    3282.0863    12604.045    12.130202 
    3600    1593.0774   -3520.6689   -3431.9167    3286.0784    12595.457    12.187669 
    3610    1544.5165   -3517.7576   -3431.7108    2863.8557    12589.996    12.286022 
    3620    1516.0146    -3516.015   -3431.5561    2217.4167     12587.25    12.393672 
    3630    1531.1801   -3516.7198    -3431.416    1181.1791    12586.523    12.481984 
    3640    1502.0858   -3514.9538   -3431.2709    861.32911    12587.119    12.559923 
    3650    1480.3267    -3513.582   -3431.1114     630.4523    12588.785    12.645507 
    3660    1483.5761   -3513.5584   -3430.9067    470.59378    12590.572    12.757403 
    3670    1495.4743   -3513.9592   -3430.6447    645.24745    12591.828    12.899765 
    3680    1503.4926   -3514.1279   -3430.3667    1597.8064    12593.441    13.058586 
    3690    1508.8898   -3514.1232   -3430.0613    2214.1516    12597.628    13.225656 
    3700      1559.67   -3516.6436   -3429.7526    1490.5073    12605.714    13.409574 
    3710    1531.7915   -3514.7859   -3429.4481    683.21575    12616.861    13.613258 
    3720    1543.2559   -3515.1277   -3429.1512    119.05777    12629.373    13.828054 
    3730    1512.4978   -3513.1001   -3428.8372    722.01255    12642.007    14.052247 
    3740    1504.9798   -3512.3568   -3428.5127    1467.8139    12654.863    14.272573 
    3750    1540.3859   -3513.9712   -3428.1546    1189.1278    12667.978    14.483349 
    3760    1523.8316   -3512.6668   -3427.7724    553.43815    12680.399     14.68472 
    3770    1547.3896   -3513.5926   -3427.3858   -3.6857862    12691.565    14.852784 
    3780    1543.8174   -3513.0039   -3426.9961   -275.92737    12701.097    14.969107 
    3790    1569.2018    -3514.036   -3426.6141   -650.31028    12708.567    15.032023 
    3800    1596.6424   -3515.2007   -3426.2499   -1115.9709    12713.148    15.064937 
    3810    1570.5779   -3513.4361   -3425.9374   -811.31791    12713.798     15.11446 
    3820    1550.8184   -3512.0496   -3425.6518    -450.7879     12711.18    15.193723 
    3830    1530.6743   -3510.6267   -3425.3511   -254.74489    12706.845    15.293853 
    3840    1526.0573   -3510.0383   -3425.0199    297.76448    12702.059    15.382122 
    3850    1513.9521   -3508.9845   -3424.6405    1140.0266    12698.064    15.447982 
    3860     1501.334   -3507.8606   -3424.2196    1411.5884    12696.119    15.522368 
    3870    1513.4171   -3508.0613   -3423.7471    1104.9815    12696.195    15.617411 
    3880    1512.7245   -3507.4923   -3423.2167    696.15984    12697.328    15.714106 
    3890    1571.8639   -3510.2243    -3422.654   -404.70976    12698.392    15.804348 
    3900    1620.6771   -3512.3801   -3422.0903   -592.73486    12698.147    15.891728 
    3910    1590.4252   -3510.1779   -3421.5735   -226.97618    12696.629    15.972652 
    3920    1578.0096   -3509.0126      -3421.1    -675.8767    12693.791    16.036997 
    3930    1576.2728   -3508.4492   -3420.6333   -1011.2737    12689.191    16.105956 
    3940    1591.6503   -3508.8198   -3420.1471   -1104.0158    12683.325    16.202461 
    3950    1633.8782   -3510.6947   -3419.6695   -1954.2767     12677.03    16.327464 
    3960    1598.4794   -3508.2715   -3419.2184   -1803.4515    12670.158    16.455142 
    3970    1590.2956   -3507.3727   -3418.7755    -995.6849    12662.831    16.556174 
    3980    1626.2002   -3508.9105   -3418.3131   -422.62356    12655.263    16.621965 
    3990    1627.1446   -3508.4997   -3417.8497    322.66151    12647.853    16.677838 
    4000    1587.3418   -3505.8194   -3417.3868    766.01411    12641.587    16.753566 
    4010    1576.6891   -3504.7357   -3416.8966    921.64813     12637.49    16.848946 
    4020    1596.9309   -3505.3344   -3416.3676    1017.1351    12636.112    16.947203 
    4030    1583.3237   -3504.0077    -3415.799    1180.5277    12637.091    17.050394 
    4040    1575.1857   -3502.9411   -3415.1857    933.91714    12639.856    17.159643 
    4050    1670.1807   -3507.5681   -3414.5204    223.44155    12643.465    17.275767 
    4060    1726.4566   -3510.0469    -3413.864    61.240676    12646.489    17.409256 
    4070    1702.7153   -3508.1586   -3413.2984    632.53669    12648.757    17.558674 
    4080    1670.9379   -3505.9006   -3412.8108    919.03992    12651.397    17.737587 
    4090    1671.2446   -3505.4612   -3412.3543    396.97074     12654.34    17.940429 
    4100    1666.6611   -3504.7644   -3411.9129    378.17235    12656.418    18.131604 
    4110    1660.1561   -3503.9658   -3411.4767    894.01452    12658.288    18.302763 
    4120    1647.3597   -3502.8128   -3411.0366     1180.546    12661.301    18.465362 
    4130    1676.8583    -3504.001   -3410.5813    309.47765    12665.957     18.62996 
    4140    1693.2466   -3504.4444   -3410.1118    193.52495    12671.268    18.802288 
    4150    1694.5216   -3504.0579   -3409.6542    505.71201    12676.999    18.978192 
    4160    1763.4479   -3507.4646   -3409.2209   -148.99891    12683.875    19.156463 
    4170    1729.7868   -3505.2155   -3408.8472    260.51312    12691.929    19.350285 
    4180    1638.1412   -3499.7849   -3408.5222    1349.2969    12701.903    19.551582 
    4190    1639.3117   -3499.5021   -3408.1742    1392.8082    12715.305    19.757181 
    4200    1677.5975   -3501.2333   -3407.7725    1819.1339    12733.084    19.962434 
    4210    1762.3549   -3505.5428     -3407.36    2360.1647    12756.009    20.172744 
    4220    1766.1649   -3505.3793   -3406.9843    2581.6516    12784.386    20.417285 
    4230    1727.7973   -3502.9122   -3406.6547    2415.3397      12817.3    20.709053 
    4240    1711.5071   -3501.6845   -3406.3346    2003.7745    12853.462    21.044888 
    4250    1693.1339   -3500.3094    -3405.983    668.39725      12892.3    21.407632 
    4260    1638.4243    -3496.827   -3405.5485   -680.43123    12932.238    21.760218 
    4270    1600.0965   -3494.1228   -3404.9797      -1653.8    12970.944    22.090434 
    4280    1573.5314   -3491.9278   -3404.2646   -2456.8844    13005.847    22.416244 
    4290    1555.7427    -3490.105   -3403.4328   -2908.5452    13035.774    22.750344 
    4300    1634.5981   -3493.5635   -3402.4982   -4165.9793    13060.772    23.088226 
    4310    1714.2779   -3497.0073   -3401.5029    -4572.277    13080.676    23.405399 
    4320    1743.1663   -3497.7013   -3400.5875   -3487.0122    13096.118    23.685578 
    4330    1780.1667   -3498.9797   -3399.8046   -2848.6446    13108.278    23.936561 
    4340    1750.2678   -3496.6596   -3399.1502   -2214.7986    13116.259    24.179499 
    4350    1758.0998   -3496.5792   -3398.6335   -2185.8123    13119.444    24.410389 
    4360     1739.809    -3495.111   -3398.1843    -1809.772    13118.946    24.601377 
    4370    1758.2832   -3495.7449    -3397.789   -1387.4368    13116.218    24.750136 
    4380    1776.9081   -3496.4072   -3397.4137   -1203.4677    13111.734    24.863527 
    4390    1803.9666   -3497.5997   -3397.0987   -1153.4501    13105.249    24.942797 
    4400    1791.3551   -3496.6242   -3396.8258   -701.39773    13096.395    24.998438 
    4410    1835.9044    -3498.875   -3396.5947   -494.90003    13086.096    25.041409 
    4420    1810.1037    -3497.233   -3396.3901    610.36586    13075.168    25.100283 
    4430    1826.9112   -3497.9981   -3396.2188    1351.9212    13064.255    25.171533 
    4440    1867.3659   -3500.0999   -3396.0669    566.92926    13054.209    25.253426 
    4450    1916.6133   -3502.7697   -3395.9931   -299.55064    13045.143    25.349716 
    4460    1863.1137   -3499.8132   -3396.0171    330.27978    13036.759    25.436285 
    4470     1840.823    -3498.668   -3396.1136   -200.53482    13029.691    25.486187 
    4480    1856.3017   -3499.6492   -3396.2325    -907.0146    13023.869    25.512823 
    4490    1843.1856   -3499.0734   -3396.3874   -535.11822    13019.416    25.550438 
    4500     1759.397   -3494.5664   -3396.5484    316.79349    13017.544    25.634833 
    4510    1711.0307   -3491.9638   -3396.6404   -17.462925    13018.873    25.757916 
    4520    1728.1215   -3492.8924   -3396.6168   -1332.5728    13022.407    25.919216 
    4530      1706.23   -3491.5168   -3396.4608   -1763.7191    13026.221    26.122474 
    4540    1745.2359   -3493.4015   -3396.1724   -1676.2614     13029.85    26.326578 
    4550    1794.9949   -3495.7443   -3395.7431   -1347.0602    13033.375    26.498094 
    4560    1813.6724   -3496.2565   -3395.2148   -879.46699     13036.27    26.661753 
    4570    1789.5485   -3494.3098   -3394.6121    133.89629    13038.569    26.847031 
    4580    1767.2777   -3492.3771     -3393.92     966.2325    13040.594    27.051883 
    4590    1796.1609   -3493.1672   -3393.1011    1021.7346    13042.529     27.23762 
    4600    1824.1027   -3493.7785   -3392.1557     1237.318    13044.695    27.385414 
    4610    1796.2046   -3491.2081   -3391.1396    2009.1605    13047.198    27.511394 
    4620    1852.9998   -3493.2999   -3390.0672    1428.1392    13049.963    27.609629 
    4630    1890.7883    -3494.303    -3388.965    1110.8989    13052.745    27.681457 
    4640    1966.1482   -3497.4524   -3387.9161    437.01784    13056.535    27.747832 
    4650    1971.2832    -3496.856   -3387.0336    809.64667     13062.32     27.85775 
    4660    1974.2339   -3496.3189   -3386.3321    1179.9957    13070.653    28.020836 
    4670     2006.291   -3497.5841   -3385.8114     1593.964    13080.949    28.234453 
    4680    1947.4474   -3493.9346   -3385.4401    2236.5897    13092.346      28.4969 
    4690    1989.6795   -3496.0565   -3385.2092    1700.6868    13104.629    28.776748 
    4700    1941.4484   -3493.2465   -3385.0863    1971.4697    13117.661    29.038139 
    4710    1876.4761   -3489.5892   -3385.0486    1858.3093    13132.627    29.294309 
    4720     1870.007   -3489.1786   -3384.9985    261.33524    13150.693    29.534117 
    4730    1832.7731   -3486.9991   -3384.8933    176.76591    13170.328    29.720041 
    4740    1837.4134   -3487.0999   -3384.7356    166.14922    13190.828     29.87809 
    4750    1861.7222   -3488.2081   -3384.4894     -209.718    13211.658    30.064173 
    4760    1907.9447   -3490.4969   -3384.2032   -1100.5489    13232.139    30.265521 
    4770    1935.1525   -3491.7198   -3383.9103   -1370.8679    13251.268    30.449568 
    4780    1902.7756   -3489.6521   -3383.6464    -2133.544    13268.572    30.597524 
    4790    1863.1312   -3487.1803   -3383.3831   -2491.3326    13284.426    30.732555 
    4800    1859.2819   -3486.6453   -3383.0627   -2493.2743     13298.33    30.878076 
    4810    1931.1164   -3490.2812   -3382.6965   -2708.3668    13308.558    31.035294 
    4820    1925.3223   -3489.5931   -3382.3312   -2784.6701    13313.669    31.154002 
    4830    1912.6267   -3488.5606    -3382.006   -2792.5207    13312.182    31.214818 
    4840    1950.2205   -3490.3673   -3381.7183   -2800.8237    13302.502    31.226401 
    4850    1960.5689    -3490.693   -3381.4675   -3108.1756    13284.748    31.194521 
    4860    1907.0158   -3487.4802   -3381.2382   -2715.7658    13260.728     31.13728 
    4870    1931.3773   -3488.5886   -3380.9894   -2873.7714    13232.191    31.068879 
    4880    1995.3305   -3491.8912   -3380.7291   -2662.0347    13199.758    31.022332 
    4890    1986.0853   -3491.1236   -3380.4765   -1384.5035     13164.37    30.987103 
    4900    1987.5064   -3490.9253   -3380.1991    254.57051    13128.777    30.936457 
    4910    2026.7164   -3492.8423   -3379.9316    1460.6059    13095.867    30.891114 
    4920    1988.4404   -3490.5072   -3379.7289    2597.6402    13066.586    30.879231 
    4930    1909.8465    -3485.969   -3379.5694    3454.0036    13040.422    30.883366 
    4940    1877.0944   -3483.9517   -3379.3767    3338.9535    13016.569    30.883417 
    4950    1908.9255   -3485.4482   -3379.0998     2411.437    12994.604    30.910814 
    4960    1939.0491   -3486.7852   -3378.7586    1923.9139    12974.184    30.978442 
    4970    1952.5646   -3487.1605   -3378.3809    1788.6611    12955.327    31.040442 
    4980    2015.7221   -3490.2981   -3377.9999    1369.1021    12937.949    31.054508 
    4990    2017.3506   -3490.0486   -3377.6598    933.96438    12921.328    31.051951 
    5000    2002.2239   -3488.9184   -3377.3722    462.32164    12904.703    31.089909 
Loop time of 2029.37 on 16 procs for 5000 steps with 432 atoms

Performance: 0.213 ns/day, 112.743 hours/ns, 2.464 timesteps/s
97.4% CPU use with 16 MPI tasks x 1 OpenMP threads

MPI task timing breakdown:
Section |  min time  |  avg time  |  max time  |%varavg| %total
---------------------------------------------------------------
Pair    | 1470.3     | 1735.3     | 2014.1     | 289.8 | 85.51
Bond    | 0.00041676 | 0.0011726  | 0.0023999  |   1.5 |  0.00
Neigh   | 0.029288   | 0.036272   | 0.049641   |   2.6 |  0.00
Comm    | 13.721     | 266.14     | 552.57     | 799.3 | 13.11
Output  | 0.24272    | 0.24766    | 0.31755    |   3.6 |  0.01
Modify  | 0.55784    | 27.635     | 102.54     | 823.7 |  1.36
Other   |            | 0.02269    |            |       |  0.00

Nlocal:        27.0000 ave          32 max          19 min
Histogram: 1 0 0 3 3 1 2 1 1 4
Nghost:        318.500 ave         336 max         300 min
Histogram: 1 2 1 0 3 4 1 1 1 2
Neighs:         0.00000 ave           0 max           0 min
Histogram: 16 0 0 0 0 0 0 0 0 0
FullNghs:      886.875 ave        1119 max         563 min
Histogram: 1 0 1 2 2 3 1 1 3 2

Total # of neighbors = 14190
Ave neighs/atom = 32.847222
Ave special neighs/atom = 0.0000000
Neighbor list builds = 500
Dangerous builds = 500
unfix   1

fix     2 all npt temp 2000 2000 $(100.0*dt) z 1.01325 1.01325 $(1000.0*dt) couple none
fix     2 all npt temp 2000 2000 0.10000000000000000555 z 1.01325 1.01325 $(1000.0*dt) couple none
fix     2 all npt temp 2000 2000 0.10000000000000000555 z 1.01325 1.01325 1 couple none
run     2000
Per MPI rank memory allocation (min/avg/max) = 8.884 | 8.888 | 8.892 Mbytes
Step Temp PotEng TotEng Press Volume c_msd[4] 
    5000    2002.2239   -3488.9184   -3377.3722    462.32164    12904.703    31.089909 
    5010    2044.1378   -3491.2649   -3377.3837   -345.67329    12904.742    31.258086 
    5020    2026.5732    -3490.337   -3377.4343   -724.08374    12904.907     31.47638 
    5030    1958.1793   -3486.5955   -3377.5031   -1132.2109    12905.179    31.703844 
    5040    1978.2153   -3487.7603   -3377.5517   -1788.9203    12905.381    31.859959 
    5050    1940.7959   -3485.6801   -3377.5562   -823.92952    12905.423    31.938315 
    5060    1923.9079   -3484.6873   -3377.5042   -21.395704    12905.548     32.00262 
    5070    1962.7236   -3486.7131   -3377.3675   -290.21087    12905.918    32.120418 
    5080    2007.8134   -3489.0324   -3377.1749   -180.36031    12906.335    32.303558 
    5090    2046.9389   -3491.0058   -3376.9686    480.88012    12906.762    32.528614 
    5100    2020.6114   -3489.3465    -3376.776    1151.2401    12907.382    32.774608 
    5110    1997.1755   -3487.8705   -3376.6056    1088.2194     12908.34     33.00183 
    5120    1947.1712   -3484.8743   -3376.3952    1268.5656    12909.659    33.161927 
    5130    1940.4697   -3484.2099   -3376.1042    1308.7825    12911.159    33.257344 
    5140    1965.4938   -3485.1813   -3375.6815    1399.4565    12912.703    33.346707 
    5150    2048.1116   -3489.2332   -3375.1306    1384.8677    12914.581    33.479039 
    5160    2073.4265   -3490.0245   -3374.5116    1544.1973    12917.034    33.676496 
    5170    2050.0534   -3488.0692   -3373.8584    1831.0745    12920.038    33.895394 
    5180    2086.1462   -3489.4057   -3373.1841    2250.5715    12923.555    34.115786 
    5190    2135.3087   -3491.4316   -3372.4712    2809.7754     12927.59    34.349666 
    5200    2143.9882   -3491.2725   -3371.8285    3359.9585    12932.186    34.608357 
    5210    2079.3562   -3487.1065   -3371.2632    3686.8723    12937.313    34.882201 
    5220    2042.6259   -3484.5422   -3370.7452    3111.1805    12942.844    35.133391 
    5230    2070.3197   -3485.5742   -3370.2343    1418.1276    12948.675    35.347093 
    5240    2078.8064   -3485.5512   -3369.7386     216.0106    12954.619     35.54779 
    5250    2034.9003   -3482.6423   -3369.2757    94.074891    12960.496     35.75117 
    5260    2003.6273   -3480.4483    -3368.824    980.29114     12966.31    35.918639 
    5270    2008.9656   -3480.2774   -3368.3556    2038.2115    12972.213    36.026314 
    5280    1977.9781   -3478.0442   -3367.8488    2987.6451    12978.436    36.135141 
    5290    2029.2493   -3480.3611   -3367.3093    2242.2232    12985.296    36.290439 
    5300    1994.8999   -3477.8479   -3366.7097    2137.4684    12992.741    36.481709 
    5310    2071.5887    -3481.503   -3366.0925    1791.7859    13000.481    36.669647 
    5320    2111.0901   -3483.0807   -3365.4695     1473.783    13008.348    36.892335 
    5330    2099.9203   -3481.9206   -3364.9317    1435.3843    13016.277    37.175946 
    5340    2134.9021   -3483.4364   -3364.4986    809.75159    13024.317    37.502075 
    5350    2098.2051   -3481.0759   -3364.1825    1497.9032    13032.531    37.810827 
    5360    2100.2522   -3481.0119   -3364.0045    1978.5893    13041.096    38.050157 
    5370    2069.8102   -3479.2373   -3363.9258    2085.0192    13050.222    38.250207 
    5380    1985.2759   -3474.4942   -3363.8922    2355.2467    13059.984     38.47042 
    5390    2063.5736   -3478.8542   -3363.8902    2449.1417    13070.273    38.751162 
    5400    2108.9829   -3481.4219   -3363.9281    1400.7165    13080.958    39.092009 
    5410    2132.0782   -3482.8848   -3364.1043   -356.55194    13091.931    39.421506 
    5420    2113.1283   -3482.1715   -3364.4467    -1279.224    13102.872    39.707763 
    5430    2074.0652   -3480.5095    -3364.961   -1563.5224    13113.637    39.952147 
    5440    2018.7007   -3478.0651   -3365.6011   -2127.7513    13124.331     40.16457 
    5450    2057.3285   -3480.9692   -3366.3532   -3316.4854    13134.905    40.347791 
    5460    2042.4247   -3481.0089   -3367.2231   -3217.0459    13145.122    40.500422 
    5470    2024.6997   -3481.0322   -3368.2339   -2306.3055    13155.045    40.621475 
    5480    2000.5322   -3480.7635   -3369.3116   -2339.5099    13164.843    40.749679 
    5490    1997.6758     -3481.74   -3370.4473   -3063.1486    13174.465    40.917441 
    5500    1904.4051   -3477.6419   -3371.5453   -3125.5587    13183.785    41.131821 
    5510    1901.6501   -3478.4614   -3372.5183   -3716.1398     13192.72    41.376272 
    5520    1912.3693    -3479.907   -3373.3668   -4086.9909    13201.139    41.595828 
    5530    1954.4322   -3482.9937   -3374.1101   -4282.4347     13208.93    41.788527 
    5540    1996.3522   -3486.0001    -3374.781   -3743.9474    13216.038    41.991156 
    5550    2013.6534   -3487.6059    -3375.423   -2878.9986    13222.552    42.188299 
    5560    1987.0501   -3486.7547   -3376.0539   -2306.7394    13228.744    42.366878 
    5570    1923.1272   -3483.7668   -3376.6272   -2476.4817    13234.784    42.526424 
    5580    1885.5417    -3482.123   -3377.0774   -2808.4546     13240.65    42.663074 
    5590     1903.733   -3483.4393   -3377.3802   -3558.7596    13246.395    42.817633 
    5600    1957.1316   -3486.6298   -3377.5958   -3727.4402    13252.029    43.017077 
    5610    1886.5669   -3482.8312   -3377.7284   -2732.5337    13257.517     43.23224 
    5620    1868.4252     -3481.84    -3377.748   -2526.7704    13262.901    43.433938 
    5630    1929.2276   -3485.1105   -3377.6311   -2285.5375    13268.186    43.635137 
    5640     1975.505   -3487.4953   -3377.4377   -2326.1729    13273.385     43.85897 
    5650    1970.1476   -3486.9815   -3377.2223   -2279.5116    13278.584    44.082521 
    5660     1955.383   -3485.9064   -3376.9698   -2047.0587    13283.756    44.283227 
    5670    1936.7132   -3484.5615   -3376.6651   -2338.3981    13288.819    44.454006 
    5680    1928.2783   -3483.7214   -3376.2949   -2851.4466    13293.579    44.583562 
    5690     1945.592    -3484.231   -3375.8398   -3269.3681    13297.823     44.68641 
    5700    1996.3862   -3486.5341   -3375.3131   -3754.7943    13301.421    44.806013 
    5710     2003.467   -3486.3705   -3374.7551   -4102.9527    13304.389    44.970285 
    5720    1980.1269   -3484.5074   -3374.1923   -4032.4497    13306.814    45.162499 
    5730    1947.1968   -3482.0689   -3373.5884   -4241.2315    13308.732    45.351961 
    5740    1959.4731   -3482.0896   -3372.9252   -5024.3074    13310.214    45.571424 
    5750    1977.4357   -3482.3091   -3372.1439   -5935.0267    13311.246    45.846964 
    5760     1969.483     -3481.02   -3371.2979   -6482.3551    13311.591    46.127491 
    5770    1941.4381   -3478.5201   -3370.3604   -5929.7768    13311.075    46.354936 
    5780    1893.4843   -3474.7998   -3369.3116   -4581.6601    13309.756    46.546548 
    5790    1967.3138    -3477.701   -3368.0997   -4847.1358    13307.719    46.733248 
    5800    1971.8176    -3476.606   -3366.7538   -4485.3468    13304.859    46.928032 
    5810    2017.7465   -3477.7906   -3365.3797   -4317.4038    13301.168    47.125857 
    5820    2036.0274   -3477.4553   -3364.0259   -4188.9671    13296.588     47.30516 
    5830    2045.9135   -3476.8214   -3362.8412   -4407.9545    13291.074    47.478019 
    5840    2086.2141   -3478.0727   -3361.8474   -4464.2303    13284.824    47.647518 
    5850     2074.386   -3476.6783    -3361.112   -3971.5994    13277.964    47.805347 
    5860    2043.4298   -3474.4678    -3360.626    -3891.476    13270.557    47.949488 
    5870    2066.7981   -3475.4661   -3360.3224   -4323.2443    13262.641    48.067476 
    5880    2060.0103   -3474.9216   -3360.1561   -4011.3152    13254.222    48.167713 
    5890    2088.4418   -3476.4621   -3360.1126   -3705.7132    13245.314    48.254766 
    5900    2083.5522   -3476.2379   -3360.1609   -1909.6183    13235.956    48.334115 
    5910    2067.0236   -3475.4241   -3360.2679    85.947678    13226.416    48.402711 
    5920     2165.009   -3481.0653   -3360.4502    905.20472    13217.081    48.469825 
    5930    2183.4462   -3482.4148   -3360.7726    1020.2749    13208.289    48.560473 
    5940    2106.5495   -3478.6096   -3361.2514    1326.6859    13199.987    48.680025 
    5950    2062.3262   -3476.7007   -3361.8062    1279.4491    13192.029     48.78525 
    5960    2166.0794   -3483.1288   -3362.4541    971.30503    13184.428    48.866716 
    5970     2160.741   -3483.6182   -3363.2409    1846.7353    13177.158    48.936053 
    5980    2166.0384   -3484.8451   -3364.1727    865.89663    13170.291    49.024291 
    5990    2154.2976   -3485.3141   -3365.2958   -356.32045    13163.645     49.13786 
    6000    2029.2834   -3479.5127    -3366.459    10.332163     13157.06    49.239946 
    6010    2004.9273   -3479.2605   -3367.5637   -368.74234    13150.608    49.320367 
    6020    1939.1066    -3476.585   -3368.5552   -159.15705     13144.27    49.397553 
    6030    1971.0869   -3479.2226   -3369.4111   -404.92315    13138.006    49.456956 
    6040    2031.4154   -3483.3834    -3370.211    -1146.688    13131.737    49.480445 
    6050    2006.2519   -3482.7321   -3370.9615   -312.05808    13125.403    49.469795 
    6060    2070.2169   -3487.0455   -3371.7114   -408.63328    13119.125    49.440602 
    6070    2064.5208   -3487.4986   -3372.4819   -236.19416    13112.907    49.424459 
    6080    2018.6526   -3485.7414     -3373.28    729.96452    13106.689    49.447074 
    6090     1975.127    -3484.072   -3374.0354    2227.2512    13100.476    49.536415 
    6100    1967.2341   -3484.3107   -3374.7139    3496.7426     13094.39    49.693621 
    6110    2016.1478   -3487.6411   -3375.3193    3674.3866    13088.595    49.865535 
    6120    2058.5506   -3490.6227   -3375.9386    2478.0134    13083.241    50.015358 
    6130    2037.2914   -3490.0879   -3376.5881    1207.0418    13078.377     50.16959 
    6140     2034.251   -3490.5962   -3377.2657    599.96489     13073.89     50.32404 
    6150    1994.7546   -3489.0793   -3377.9493     1143.354    13069.639    50.460946 
    6160     1953.521   -3487.4177   -3378.5848    1427.5577    13065.585    50.582892 
    6170     1954.264   -3488.0177   -3379.1434    1444.1363    13061.785    50.710759 
    6180    1957.5857   -3488.6996   -3379.6404     1023.173    13058.315    50.812971 
    6190    1969.3891   -3489.8048    -3380.088    421.13622    13055.124    50.886527 
    6200    1981.2232   -3490.8659   -3380.4897    513.66583    13052.239    50.969267 
    6210    1996.2591   -3492.0863   -3380.8724    307.21582    13049.759    51.062329 
    6220    1970.6883   -3491.0246   -3381.2354   -309.38754    13047.537    51.182814 
    6230    1930.0811   -3489.0975   -3381.5705   -612.61598    13045.256    51.355459 
    6240    1880.8416   -3486.6034   -3381.8196   -326.65259    13042.793    51.541581 
    6250    1921.5589   -3489.0104   -3381.9581   -272.92056    13040.179    51.682936 
    6260    1935.8507   -3489.8688   -3382.0203   -102.57554    13037.463    51.783777 
    6270    1883.4592   -3486.9164   -3381.9868    360.84719    13034.641    51.875882 
    6280    1932.7035    -3489.519   -3381.8459    174.44401     13031.71    51.951093 
    6290    2011.3338   -3493.6868   -3381.6331   -598.60507     13028.59    52.009883 
    6300    1977.9996   -3491.5831   -3381.3865   -781.85817    13025.127    52.085224 
    6310    1943.7758   -3489.3973   -3381.1074   -1026.3711    13021.189    52.226087 
    6320    1914.6433    -3487.401   -3380.7341   -770.87548    13016.796    52.424504 
    6330    1956.0764   -3489.2194   -3380.2442   -1558.0038    13012.041    52.617141 
    6340    1969.2106   -3489.3327   -3379.6257   -2215.9635    13006.752    52.773004 
    6350    1912.4586    -3485.436   -3378.8907   -1261.5618    13000.716    52.900931 
    6360    1964.7517   -3487.4479   -3377.9894     -635.622    12994.008    53.004774 
    6370    1964.8993   -3486.3654   -3376.8987    258.16461    12986.767    53.091908 
    6380    1934.2736   -3483.4211   -3375.6606    711.31975    12979.148    53.139377 
    6390    1965.8248   -3483.8091   -3374.2908    241.18822    12971.148     53.18645 
    6400    2009.0614   -3484.7456   -3372.8185   -626.07274    12962.716    53.280906 
    6410     2050.017   -3485.5742   -3371.3654   -719.15408    12953.727    53.417629 
    6420    2089.7139   -3486.4503     -3370.03   -424.33897    12944.248    53.559384 
    6430    2115.8761   -3486.7953   -3368.9175    385.31067    12934.533    53.672837 
    6440    2042.2634   -3481.8409   -3368.0641    1782.0911    12924.627    53.734317 
    6450    2039.4007   -3481.0283    -3367.411    2732.1829    12914.579    53.756792 
    6460    2017.6533   -3479.2851   -3366.8794    3071.2444    12904.554    53.807652 
    6470    2022.7993    -3479.144   -3366.4516    2327.0578    12894.739    53.906018 
    6480    2021.8782   -3478.7519   -3366.1108    1527.7592    12885.272    53.991227 
    6490    2004.0027   -3477.4724   -3365.8271    1682.7865    12876.175    54.064924 
    6500     2076.303   -3481.2851   -3365.6119    1972.8547    12867.422    54.134888 
    6510     2092.217   -3482.0456   -3365.4859    2776.6884    12858.944    54.218741 
    6520     2060.568   -3480.2605    -3365.464    3367.5536    12850.737    54.320502 
    6530      2096.38   -3482.3368   -3365.5452    2716.9598    12842.722     54.43572 
    6540    2093.1212   -3482.3321   -3365.7219    1908.7945    12834.658    54.570469 
    6550    2044.8108   -3479.9034   -3365.9847    909.99573    12826.279    54.692325 
    6560    1987.7366   -3477.0161   -3366.2771    447.35657    12817.456    54.775101 
    6570      1979.33   -3476.8146   -3366.5439    745.73656     12808.31    54.850337 
    6580    1967.2821   -3476.3541   -3366.7546    2179.2513    12799.033      54.9576 
    6590    2060.7187   -3481.7535   -3366.9485    2771.4444    12789.821    55.054836 
    6600    2098.3906   -3484.0856   -3367.1819    3777.9684    12780.897    55.143645 
    6610    2122.7598   -3485.7807   -3367.5194    4218.9132    12772.465    55.266242 
    6620    2165.6593   -3488.6758   -3368.0245    3546.3647    12764.688    55.404011 
    6630       2118.6   -3486.7175   -3368.6879     3296.857    12757.661    55.517717 
    6640    2108.4523   -3486.9629   -3369.4987     2813.051    12751.454     55.59179 
    6650    2050.9216   -3484.6558   -3370.3967     2753.362    12746.062    55.657078 
    6660    2008.9652   -3483.2459   -3371.3242    2762.3824    12741.403    55.745975 
    6670     1978.544   -3482.4243   -3372.1973    2653.9142    12737.302    55.834422 
    6680     2046.965   -3487.0811   -3373.0424     1742.133    12733.557    55.876466 
    6690     2044.997   -3487.8176   -3373.8885    1630.4825      12729.9    55.903553 
    6700    1980.6878   -3485.0392   -3374.6929    2375.1118    12726.337    55.977696 
    6710    1998.3544    -3486.735   -3375.4044    2508.0541    12723.022    56.128857 
    6720    2015.0134   -3488.2954   -3376.0367    1865.9374    12720.111    56.311975 
    6730    2022.9814   -3489.3159   -3376.6133    2134.7572    12717.757    56.462521 
    6740    2068.8491   -3492.4392   -3377.1813    1794.6191    12715.955     56.57415 
    6750    1979.2669   -3487.9806   -3377.7134    2377.0208    12714.526    56.665441 
    6760    1984.2541   -3488.7147   -3378.1696      2349.93    12713.382    56.756907 
    6770    1994.5732   -3489.6681   -3378.5482    1588.0809    12712.456    56.884356 
    6780    1973.0627   -3488.7744   -3378.8529    1065.3422    12711.604    57.051158 
    6790    1999.7308   -3490.5185   -3379.1112    481.35258    12710.704    57.241814 
    6800    1976.9738   -3489.4514   -3379.3119    1056.9496    12709.745    57.402252 
    6810    1969.1342   -3489.1877    -3379.485    1832.1902    12708.852    57.478359 
    6820    1881.4034   -3484.3908   -3379.5757     2088.457    12708.071    57.454067 
    6830    1923.3836   -3486.7238   -3379.5699    1440.3879     12707.37    57.409024 
    6840    1954.6542   -3488.3659   -3379.4699    1669.7379     12706.69    57.421556 
    6850    2000.0035   -3490.7595    -3379.337    1589.1469    12706.061    57.477385 
    6860    2005.8167   -3490.9547   -3379.2084    1163.0691     12705.56    57.512236 
    6870    1959.5759   -3488.2592    -3379.089    1148.2993    12705.178    57.520942 
    6880    1916.9168    -3485.734   -3378.9404    1565.0976     12704.86    57.549499 
    6890    1960.5204   -3487.9348    -3378.712    1623.2579    12704.574    57.631451 
    6900    2014.9577   -3490.6985    -3378.443    1398.4277    12704.242    57.783597 
    6910    2083.0134   -3494.2622   -3378.2152     411.1214    12703.744    57.950321 
    6920    2074.8531   -3493.6563   -3378.0639    1008.8422    12703.014    58.119148 
    6930    2019.6879   -3490.5223   -3378.0032    2374.4456    12702.197    58.276467 
    6940    1995.3335   -3489.1371   -3377.9748    2712.6406    12701.585    58.385156 
    6950    1993.0609   -3488.9757     -3377.94    2292.0442    12701.417    58.470042 
    6960    1996.9071   -3489.1472   -3377.8972    1915.6414    12701.664    58.606304 
    6970    1990.3026   -3488.7321   -3377.8501    1193.2121    12702.201    58.835241 
    6980    1930.5781   -3485.3366   -3377.7819    1691.7281    12702.979    59.121703 
    6990    1885.9631   -3482.7113   -3377.6422    3217.9149    12704.027    59.393726 
    7000    1893.9896   -3482.9095   -3377.3932    3959.2315    12705.478    59.637129 
Loop time of 767.357 on 16 procs for 2000 steps with 432 atoms

Performance: 0.225 ns/day, 106.577 hours/ns, 2.606 timesteps/s
97.4% CPU use with 16 MPI tasks x 1 OpenMP threads

MPI task timing breakdown:
Section |  min time  |  avg time  |  max time  |%varavg| %total
---------------------------------------------------------------
Pair    | 582.99     | 690.03     | 749.65     | 139.2 | 89.92
Bond    | 0.00015664 | 0.00053209 | 0.001435   |   0.0 |  0.00
Neigh   | 0.011844   | 0.013925   | 0.016272   |   0.8 |  0.00
Comm    | 16.81      | 74.745     | 181.77     | 416.0 |  9.74
Output  | 0.094507   | 0.096424   | 0.12437    |   2.3 |  0.01
Modify  | 0.74394    | 2.467      | 5.7979     | 130.0 |  0.32
Other   |            | 0.008955   |            |       |  0.00

Nlocal:        27.0000 ave          33 max          20 min
Histogram: 1 2 1 0 3 0 6 0 2 1
Nghost:        315.125 ave         331 max         298 min
Histogram: 3 0 0 0 3 3 5 0 1 1
Neighs:         0.00000 ave           0 max           0 min
Histogram: 16 0 0 0 0 0 0 0 0 0
FullNghs:      910.125 ave        1163 max         554 min
Histogram: 1 0 1 2 1 3 4 1 1 2

Total # of neighbors = 14562
Ave neighs/atom = 33.708333
Ave special neighs/atom = 0.0000000
Neighbor list builds = 200
Dangerous builds = 200
unfix   2

fix     3 all npt temp 2000 300 $(100.0*dt) z 1.01325 1.01325 $(1000.0*dt) couple none
fix     3 all npt temp 2000 300 0.10000000000000000555 z 1.01325 1.01325 $(1000.0*dt) couple none
fix     3 all npt temp 2000 300 0.10000000000000000555 z 1.01325 1.01325 1 couple none
run     10000
Per MPI rank memory allocation (min/avg/max) = 8.884 | 8.888 | 8.892 Mbytes
Step Temp PotEng TotEng Press Volume c_msd[4] 
    7000    1893.9896   -3482.9095   -3377.3932    3959.2315    12705.478    59.637129 
    7010    1903.3711   -3483.3583   -3377.3194    4235.3312    12705.771    59.824408 
    7020    2006.0831   -3488.9369   -3377.1758    3170.6441     12706.77    59.901428 
    7030      1971.04   -3486.8073   -3376.9985    3277.0966    12708.481    59.907801 
    7040    2034.2574   -3490.1575   -3376.8267    2846.8885    12710.902    59.882824 
    7050    2060.6864   -3491.4756   -3376.6725    2990.0063    12713.999     59.89119 
    7060    2072.1768   -3492.0368   -3376.5935    3346.3114    12717.666    60.001061 
    7070    2092.8123   -3493.2048   -3376.6119    3726.3048    12721.861    60.224831 
    7080    2115.6545   -3494.6285    -3376.763    3537.8018    12726.663    60.505491 
    7090    2123.3973   -3495.3911   -3377.0943    3066.1869     12731.99    60.747042 
    7100    2053.3452   -3491.9866   -3377.5924     3247.432    12737.687    60.945337 
    7110    2055.4773   -3492.7679    -3378.255    3119.6579    12743.743    61.119822 
    7120    2042.3294   -3492.8717   -3379.0912    3844.5543    12750.256    61.316168 
    7130    1985.6276   -3490.7302   -3380.1086    5244.5269    12757.513    61.585239 
    7140    1877.2148   -3485.7677    -3381.186    6904.4287    12765.771    61.914486 
    7150    1893.2336   -3487.7439   -3382.2697     6308.832    12775.018    62.235977 
    7160    1883.5276   -3488.2711   -3383.3377    4765.1494    12784.895    62.488754 
    7170    1844.7572   -3487.1115    -3384.338    2990.6048    12795.226    62.664557 
    7180    1886.6274   -3490.3645   -3385.2583    1449.5384    12805.898    62.754818 
    7190    1907.2369     -3492.37   -3386.1157    690.63125    12816.772    62.841837 
    7200    1943.5115   -3495.2266   -3386.9514     394.3678    12827.776    62.980994 
    7210    1892.5041   -3493.1813   -3387.7478    1305.5678     12838.83    63.145786 
    7220    1923.5397   -3495.6312   -3388.4686    841.38714    12849.852     63.31725 
    7230    2008.9156   -3501.1012   -3389.1823   -51.626563    12860.642    63.485863 
    7240    1979.5976   -3500.2265   -3389.9409    56.827621    12871.143    63.659836 
    7250    1901.6702   -3496.6389   -3390.6947    -264.1564    12881.414     63.84668 
    7260    1852.8782   -3494.5713   -3391.3454   -1232.4162    12891.356    64.049445 
    7270    1819.2355   -3493.2112   -3391.8595   -2888.7774    12900.794    64.284769 
    7280    1727.0993   -3488.4038   -3392.1851   -3064.0144    12909.536    64.565287 
    7290    1719.5116   -3488.0984   -3392.3025   -2723.8623    12917.549    64.880811 
    7300    1761.5538   -3490.3361    -3392.198   -2052.6525    12924.962    65.178608 
    7310    1842.3365   -3494.5468   -3391.9082   -1348.7924    12931.832    65.385565 
    7320    1852.0858   -3494.6674   -3391.4857   -175.53817    12938.211    65.520716 
    7330     1880.685    -3495.754   -3390.9789    184.18187    12944.276    65.659105 
    7340    1911.9844   -3496.8995   -3390.3807   -546.03708    12950.144    65.843698 
    7350    1894.8207     -3495.29   -3389.7274   -1443.9279    12955.566    66.082199 
    7360    1905.9082   -3495.2109   -3389.0306   -1700.5855    12960.319    66.355666 
    7370    1913.9256   -3494.9233   -3388.2964   -1037.3361    12964.551    66.585241 
    7380    1917.0307    -3494.339   -3387.5391    317.78994    12968.635    66.698281 
    7390    1918.4699   -3493.6485   -3386.7684     818.4464    12972.895    66.721799 
    7400    1898.3847    -3491.751   -3385.9899    635.53772    12977.373    66.756533 
    7410    1923.7368   -3492.3709   -3385.1973    360.27367    12982.032    66.848621 
    7420    1928.3627   -3491.8555   -3384.4242    128.89032    12986.996     66.97523 
    7430     1945.726   -3492.1014   -3383.7028   -865.95766      12992.3    67.125056 
    7440     1920.925   -3490.0648    -3383.048    -1434.533    12997.725    67.298613 
    7450    1876.5813   -3487.0227   -3382.4763   -1327.3715    13003.026     67.47499 
    7460    1872.6547    -3486.279   -3381.9513   -1580.0898    13007.993    67.634081 
    7470    1921.3686   -3488.5285   -3381.4869   -1881.8766    13012.411    67.780352 
    7480    1904.0279   -3487.1999   -3381.1243   -1115.5362    13016.328    67.944481 
    7490    1893.2007   -3486.3297   -3380.8574   -722.05563    13020.031    68.124972 
    7500    1879.5266   -3485.3439   -3380.6334     309.3876    13023.559    68.289406 
    7510    1941.4551   -3488.6254   -3380.4648      509.828    13026.909    68.420233 
    7520    1933.3981   -3488.0543   -3380.3425    831.59318    13030.242     68.53424 
    7530    1932.6006   -3487.9411   -3380.2738    898.36268    13033.704    68.659242 
    7540    1898.6706   -3486.0093   -3380.2322    226.38484    13037.191    68.773649 
    7550    1901.3636   -3486.1183   -3380.1912     -503.911    13040.557    68.862979 
    7560    1939.7202   -3488.2104   -3380.1464   -1099.7681    13043.806    68.937283 
    7570    1943.9543   -3488.4439   -3380.1441   -316.61568    13046.877    69.020836 
    7580    1897.0586   -3485.8597   -3380.1725     1314.471    13049.749    69.134325 
    7590    1894.5494   -3485.7637   -3380.2162    1558.3056    13052.626    69.266546 
    7600    1913.8807   -3486.8746   -3380.2501    1586.2329    13055.699    69.387528 
    7610    1990.7991   -3491.2262   -3380.3165    1278.3383    13059.065    69.485553 
    7620     1981.625   -3490.8711   -3380.4725    803.00012    13062.664    69.573675 
    7630     1954.121   -3489.5929   -3380.7267    101.43569    13066.369    69.675977 
    7640    1973.7092   -3491.0301   -3381.0725   -595.69295    13070.144     69.76319 
    7650    2014.1468   -3493.7474   -3381.5371   -628.49173    13074.059    69.812391 
    7660    1973.7234   -3492.1094   -3382.1511    -579.7588    13078.144    69.881546 
    7670    1883.7747   -3487.7926   -3382.8454   -559.14502    13082.405    70.050213 
    7680    1848.2111   -3486.4988   -3383.5329   -1835.3116    13086.618    70.316028 
    7690    1798.8375   -3484.3636   -3384.1483   -3088.5336    13090.285    70.610498 
    7700    1821.9716   -3486.2001   -3384.6961   -4148.6118    13093.078     70.84385 
    7710    1838.6688   -3487.6222   -3385.1879   -4588.0948    13094.927    70.997784 
    7720     1832.429   -3487.7278   -3385.6411   -4136.5876     13096.04    71.099642 
    7730    1808.5877   -3486.8006   -3386.0421   -3218.5745    13096.742    71.199156 
    7740    1835.9925   -3488.6767   -3386.3915   -3276.0815    13097.216    71.350358 
    7750     1832.817    -3488.802   -3386.6937   -3469.1431    13097.383    71.581664 
    7760     1836.439   -3489.2779   -3386.9678   -3569.3201    13097.148    71.866111 
    7770    1868.1598    -3491.295   -3387.2178   -3450.9016    13096.491     72.12773 
    7780    1860.5659   -3491.1335   -3387.4793   -2777.1185    13095.436    72.245415 
    7790    1815.6488   -3488.8761   -3387.7243   -2300.0324     13094.04    72.163712 
    7800    1857.2301   -3491.4209   -3387.9526    -2505.017    13092.396     72.01631 
    7810    1876.0343   -3492.6862   -3388.1702    -2842.785    13090.501    71.961813 
    7820    1893.5419   -3493.9212   -3388.4299   -3002.5433    13088.274    72.051635 
    7830    1906.9476   -3494.9891   -3388.7509   -2337.3805    13085.695    72.229141 
    7840    1910.7099   -3495.6095   -3389.1617    -1200.429     13082.89    72.432115 
    7850    1882.5289   -3494.5264   -3389.6486     181.4069    13080.036    72.629134 
    7860    1883.7341   -3495.1698   -3390.2248    698.47141     13077.28    72.812876 
    7870    1846.5803   -3493.7384   -3390.8634    866.04945    13074.554    72.993847 
    7880     1863.145   -3495.3696   -3391.5717   -454.18267    13071.754    73.212648 
    7890    1853.7275   -3495.6054   -3392.3322    -1022.513     13068.71     73.48667 
    7900    1868.3685   -3497.2731   -3393.1842   -2023.5338    13065.297    73.769066 
    7910     1820.748   -3495.5367   -3394.1008   -1596.5849     13061.41     74.00929 
    7920    1787.2273   -3494.5756   -3395.0071   -696.07514    13057.044    74.188392 
    7930    1762.3099   -3494.0552   -3395.8749    390.49455    13052.381    74.304565 
    7940    1703.3777   -3491.5385   -3396.6415    1103.6815    13047.701    74.400637 
    7950     1706.456   -3492.3466    -3397.278     671.6088    13043.083    74.472141 
    7960    1720.2939   -3493.6165    -3397.777    1.1977805     13038.52    74.518712 
    7970    1730.3127   -3494.5639   -3398.1662   -869.92715    13034.008     74.56222 
    7980    1685.4497   -3492.3334   -3398.4351   -1624.2132    13029.462    74.638902 
    7990    1717.3985   -3494.2601   -3398.5819   -2272.4536    13024.807    74.773873 
    8000    1714.4727   -3494.1136   -3398.5984   -2212.5136    13019.921    74.921435 
    8010    1719.9152   -3494.3148   -3398.4964   -2067.7571    13014.786    75.037413 
    8020    1725.8251   -3494.4108   -3398.2632   -1990.0263     13009.49    75.152679 
    8030    1781.9265   -3497.1814   -3397.9082   -1616.3109    13004.058    75.266887 
    8040    1825.0991   -3499.1152   -3397.4369   -763.59075    12998.569    75.378884 
    8050    1821.6086   -3498.3795   -3396.8956    98.657168    12993.172     75.49437 
    8060    1810.3985   -3497.1486   -3396.2893   -407.98057    12987.946    75.608173 
    8070    1787.7854    -3495.174   -3395.5745   -675.25353    12982.757    75.750421 
    8080      1771.97   -3493.4453   -3394.7268   -639.39391    12977.542    75.938666 
    8090     1771.012   -3492.3521   -3393.6871   -459.46683    12972.428    76.135891 
    8100     1783.974    -3491.826   -3392.4388   -114.12035    12967.567    76.306557 
    8110    1798.1653    -3491.191   -3391.0132    520.32616    12962.998    76.463192 
    8120    1826.9821   -3491.2592    -3389.476     660.9664    12958.674    76.617881 
    8130    1867.4227   -3491.9869   -3387.9506    651.51446    12954.461    76.769345 
    8140    1850.9873   -3489.6966    -3386.576    1330.1848    12950.284    76.885152 
    8150    1812.8149   -3486.4119   -3385.4179     2277.887    12946.232     76.92372 
    8160    1868.0621   -3488.5403   -3384.4685    2099.6889    12942.398     76.90272 
    8170     1907.201   -3489.9764   -3383.7241    1924.0966    12938.739     76.86662 
    8180    1860.8487   -3486.8787   -3383.2088    1940.5884    12935.281    76.889607 
    8190    1912.5265    -3489.437    -3382.888    972.16874     12931.94    76.960551 
    8200    1942.5044   -3490.9558   -3382.7367   -27.247604    12928.383    77.032947 
    8210    1987.9585   -3493.5347   -3382.7832   -416.15697    12924.463    77.057007 
    8220     2000.639    -3494.492   -3383.0341    460.36599    12920.339    76.996685 
    8230    1974.5317   -3493.4919   -3383.4885    1002.3955    12916.177    76.915311 
    8240    1973.3961   -3494.0497   -3384.1095    123.67319    12912.083    76.865312 
    8250    1951.8752   -3493.6247   -3384.8835    -259.0094    12908.089    76.831449 
    8260    1922.0645   -3492.8366   -3385.7563    516.44938     12904.23    76.811492 
    8270    1935.7161   -3494.5667   -3386.7258    650.34112    12900.561    76.852162 
    8280    1886.1026   -3492.8087   -3387.7318    369.05623    12896.991    76.941927 
    8290    1850.8461    -3491.858   -3388.7453    464.15722    12893.374    77.007466 
    8300    1813.2483   -3490.7142   -3389.6961    131.96378    12889.733    77.073483 
    8310    1813.6962   -3491.6077   -3390.5646   -643.94489     12886.17    77.140246 
    8320    1766.5457   -3489.7754   -3391.3591   -196.94981    12882.662    77.190391 
    8330    1747.1206   -3489.3641     -3392.03      657.821    12879.208    77.202299 
    8340     1802.037   -3493.0312   -3392.6376    1052.2138    12875.884    77.153552 
    8350    1810.5823    -3494.069   -3393.1994    1546.4741     12872.74    77.079428 
    8360    1844.6433   -3496.5504   -3393.7832    899.42669     12869.78    77.008045 
    8370      1816.53   -3495.5907   -3394.3898    388.04971    12866.898    76.989133 
    8380     1850.148   -3498.1099   -3395.0361    273.37011    12864.009    77.068357 
    8390    1846.4957   -3498.5935   -3395.7232    395.88823    12861.052    77.214469 
    8400     1849.302   -3499.5027    -3396.476    254.95101    12858.037    77.366156 
    8410    1806.0741   -3497.8736   -3397.2552    130.61001    12855.011    77.511278 
    8420    1781.5037   -3497.2804   -3398.0308    -253.6404    12851.981     77.66371 
    8430     1762.225   -3496.9476   -3398.7721   -227.97024    12848.911    77.816828 
    8440    1727.1445   -3495.6699   -3399.4488    388.40127    12845.861    77.953152 
[...]
   24900    284.87012   -3605.5813   -3589.7109   -969.30925    12009.955    103.96561 
   24910    279.45605   -3605.4302   -3589.8614   -778.67941    12014.392    103.99011 
   24920    268.45784   -3604.9624   -3590.0063   -678.08196    12019.452    104.00861 
   24930    262.85745   -3604.7718   -3590.1277   -966.47261    12024.866    104.02181 
   24940    266.57693   -3605.0698   -3590.2185   -1532.3259    12030.033    104.02588 
   24950    275.48291   -3605.6299   -3590.2824   -1985.1438    12034.402    104.02704 
   24960    280.11196   -3605.9308   -3590.3255   -2177.7315    12037.678    104.04467 
   24970    278.41692   -3605.8608   -3590.3499   -2201.1947    12039.809    104.08971 
   24980    276.80865   -3605.7755   -3590.3542   -2087.1146    12040.804    104.14817 
   24990     275.6755   -3605.6928   -3590.3346   -1777.0086    12040.734    104.19718 
   25000    280.43704   -3605.9135   -3590.2901   -1580.3307    12039.835    104.22881 
   25010    281.56888   -3605.9074   -3590.2209    -1444.155    12038.218    104.24923 
   25020    282.10638   -3605.8461   -3590.1297   -1470.8266    12035.736    104.26609 
   25030    285.03779    -3605.896   -3590.0163   -1649.4547    12032.207    104.28374 
   25040    289.61392   -3606.0183   -3589.8836   -1993.0401    12027.566    104.30518 
   25050    285.36926   -3605.6347   -3589.7364   -2049.9174    12021.827    104.32644 
   25060    278.07384   -3605.0686   -3589.5768   -1852.1504      12015.3    104.33508 
   25070    279.52281   -3604.9738   -3589.4012    -1691.016    12008.472     104.3216 
   25080    274.56693   -3604.5093   -3589.2129   -1427.3536    12001.616    104.28679 
   25090    275.48653   -3604.3666    -3589.019   -1184.9897    11994.856    104.23608 
   25100    279.47318   -3604.3903   -3588.8206   -913.69033    11988.316    104.17914 
   25110    287.13417   -3604.6234   -3588.6269   -616.71402     11982.09    104.12893 
   25120    301.27345   -3605.2295   -3588.4452   -555.28539    11976.309    104.09903 
   25130    302.52183   -3605.1402   -3588.2864   -511.36707    11971.188    104.09173 
   25140    302.58366   -3605.0121   -3588.1548   -444.45705    11967.122    104.09929 
   25150    307.75892   -3605.1904   -3588.0448     -322.248     11964.52    104.10952 
   25160    310.43738   -3605.2521   -3587.9572   -285.26012    11963.584    104.11843 
   25170     299.0603   -3604.5509     -3587.89   -167.70085     11964.21    104.13595 
   25180     290.6672   -3604.0247   -3587.8313   -30.708367    11966.203    104.16982 
   25190    299.71365   -3604.4677   -3587.7703    147.13492    11969.364    104.21801 
   25200    307.79549   -3604.8582   -3587.7106    380.88266    11973.603    104.27154 
   25210     304.9064   -3604.6488   -3587.6621    403.18408    11979.177    104.31567 
   25220    305.53826   -3604.6478   -3587.6259    98.909609    11986.474    104.33796 
   25230    306.81646   -3604.6903   -3587.5973   -484.03346    11995.549    104.35081 
   25240    303.13688   -3604.4591   -3587.5711    -965.5807    12005.881    104.38139 
   25250    309.12049   -3604.7678   -3587.5463   -1364.5411    12016.833    104.44331 
   25260    313.71018   -3605.0036   -3587.5265   -1531.5097    12027.862    104.53179 
   25270    307.96621    -3604.674   -3587.5169   -1518.2462     12038.46     104.6289 
   25280    299.73673    -3604.213   -3587.5144    -1550.696    12048.249    104.71779 
   25290    298.10142   -3604.1207   -3587.5131   -1752.0795    12057.033    104.78881 
   25300    297.38556   -3604.0805   -3587.5128   -1740.5589    12064.898    104.82786 
   25310    288.74197   -3603.5952   -3587.5091   -1493.9957    12072.151    104.83127 
   25320    293.18755   -3603.8301   -3587.4963   -1403.6908    12078.958     104.8253 
   25330      302.477   -3604.3259   -3587.4745   -1547.2597    12085.276    104.84234 
   25340    308.22467   -3604.6251   -3587.4536   -1851.8821    12091.082    104.88205 
   25350    308.75518   -3604.6408   -3587.4397   -1944.3844    12096.323    104.91636 
   25360    306.96338   -3604.5366   -3587.4354   -1732.4615    12100.865    104.92495 
   25370    302.03137   -3604.2644   -3587.4379   -1343.0631     12104.48    104.91232 
   25380    307.13487   -3604.5574   -3587.4465   -1340.4571    12107.067    104.88896 
   25390    310.42905   -3604.7599   -3587.4655   -1271.9392    12108.547    104.86148 
   25400    302.88933   -3604.3721   -3587.4978   -1131.0112    12109.086    104.83787 
   25410    293.71308   -3603.8998   -3587.5367   -1118.6535    12108.898    104.82892 
   25420    295.66274   -3604.0457    -3587.574   -1266.8623    12107.975    104.83782 
   25430    309.54608   -3604.8598   -3587.6146   -1351.7574    12106.326    104.85185 
   25440    314.64171    -3605.201    -3587.672    -1276.212    12104.068    104.85769 
   25450    303.37616   -3604.6523   -3587.7509    -980.0714    12101.251    104.84637 
   25460    293.93388   -3604.2164    -3587.841   -727.95724    12097.876    104.80796 
   25470    294.40801   -3604.3371   -3587.9353   -528.03325    12093.987    104.74542 
   25480    294.67602   -3604.4494   -3588.0326   -415.12465    12089.621    104.68071 
   25490    294.04215   -3604.5156   -3588.1342   -349.51909    12084.837    104.64055 
   25500    286.87748   -3604.2164   -3588.2341   -264.20547    12079.772     104.6409 
   25510    286.54652   -3604.2915   -3588.3277   -214.83654    12074.549    104.67658 
   25520    294.41465   -3604.8177   -3588.4155   -216.06982    12069.241    104.72296 
   25530    302.90242   -3605.3814   -3588.5064   -286.62238    12063.952    104.75875 
   25540    304.03683   -3605.5446   -3588.6064   -246.79096    12058.809    104.77577 
   25550    306.42562   -3605.7914   -3588.7201   -156.01639    12053.845    104.76203 
   25560    301.92807   -3605.6674   -3588.8466   -109.32216     12049.06    104.70805 
   25570    290.28376   -3605.1486   -3588.9766   -172.91323    12044.529     104.6276 
   25580    284.25452   -3604.9327   -3589.0965   -418.29925    12040.366    104.55854 
   25590     294.2184   -3605.5991   -3589.2078   -677.85516    12036.594    104.54137 
   25600    293.91913   -3605.6905    -3589.316   -576.98044    12033.159    104.59454 
   25610    281.95422   -3605.1223   -3589.4144   -429.24347    12030.118    104.70176 
   25620    277.64851   -3604.9629   -3589.4948   -526.36161    12027.603    104.81969 
   25630    277.30395    -3605.002   -3589.5531   -526.72976    12025.615    104.90278 
   25640    278.75085   -3605.1191   -3589.5896    -441.0875    12024.157    104.92646 
   25650    283.22052   -3605.3837   -3589.6052   -480.13426    12023.327    104.90393 
   25660    295.34264   -3606.0599   -3589.6061   -791.07338    12023.238    104.86826 
   25670    294.64567    -3606.015      -3589.6   -949.17002    12023.771    104.83875 
   25680    277.91144   -3605.0672   -3589.5845    -813.8683     12024.78     104.8209 
   25690    277.84316   -3605.0274   -3589.5485    -716.6198    12026.255    104.81567 
   25700    287.50353   -3605.5004   -3589.4832   -724.01697    12028.083    104.81787 
   25710    294.46521   -3605.7984   -3589.3934   -692.73976    12030.284    104.81693 
   25720    290.99867   -3605.4947   -3589.2828   -509.76614    12032.992    104.79794 
   25730    285.34345   -3605.0456   -3589.1488   -217.52692    12036.134    104.75528 
   25740    294.50513   -3605.3896   -3588.9824   -168.70169    12039.488     104.7065 
   25750     310.1057   -3606.0595   -3588.7831   -275.68126    12042.905    104.67301 
   25760     313.1634   -3606.0186    -3588.572   -319.67953    12046.486    104.66505 
   25770    312.45873   -3605.7755   -3588.3681    -490.3502     12050.39    104.69284 
   25780    313.26803   -3605.6306   -3588.1781   -642.95769    12054.538    104.75098 
   25790    303.82375   -3604.9344    -3588.008   -642.00764    12058.961    104.81839 
   25800    300.04032   -3604.5728   -3587.8572   -896.17929    12063.977    104.88437 
   25810    306.12784    -3604.771   -3587.7163   -1347.4513    12069.512    104.94456 
   25820    304.71592   -3604.5644   -3587.5883   -1484.8448    12074.923    104.97802 
   25830    304.37164   -3604.4358    -3587.479   -1348.8201    12079.682    104.96904 
   25840    308.14964   -3604.5544    -3587.387   -1286.4855    12083.583    104.94161 
   25850    308.67951   -3604.5113   -3587.3144   -1131.7031    12086.521    104.93854 
   25860    307.89071   -3604.4137   -3587.2607   -867.49362    12088.627    104.97037 
   25870    317.73175   -3604.9267   -3587.2255   -793.89218     12090.15    105.01678 
   25880    317.53507   -3604.9025   -3587.2122   -814.72407    12091.019    105.05924 
   25890    305.62291   -3604.2448   -3587.2183    -867.7314    12090.932    105.08569 
   25900    300.98487   -3603.9997   -3587.2315   -854.44091    12089.786    105.09551 
   25910     305.4405   -3604.2621   -3587.2457   -812.69821    12087.704    105.09549 
   25920    308.71065   -3604.4638   -3587.2652   -749.26306    12084.792    105.08593 
   25930    301.94569   -3604.1115   -3587.2898   -642.04614     12081.07    105.05692 
   25940    298.37256   -3603.9369   -3587.3142   -728.88931    12076.713    105.00222 
   25950    298.32152   -3603.9541   -3587.3343   -1078.8063    12072.005     104.9268 
   25960     295.3776   -3603.8064   -3587.3506   -1478.3661    12067.062    104.83999 
   25970    287.13828   -3603.3568     -3587.36   -1584.8625    12061.775    104.75883 
   25980     283.8659   -3603.1703   -3587.3559   -1426.2397    12056.133    104.70564 
   25990    288.43991   -3603.4045   -3587.3352   -1095.3366    12050.357    104.68694 
   26000    295.78477    -3603.779   -3587.3005   -542.10022     12044.87    104.68031 
   26010    307.64727   -3604.4009   -3587.2615   -125.98464    12040.279    104.66065 
   26020     311.2076   -3604.5683   -3587.2305    109.42278     12037.12    104.62926 
   26030    303.41582   -3604.1176    -3587.214    93.325543    12035.686    104.59716 
   26040    296.65322   -3603.7305   -3587.2036   -42.974935    12035.874    104.57061 
   26050    305.14777   -3604.1946   -3587.1945   -364.08599    12037.385    104.56825 
   26060    308.94842   -3604.4019     -3587.19   -703.77566    12040.092    104.60756 
   26070    314.40469   -3604.7125   -3587.1967   -996.52937    12043.915    104.68541 
   26080    325.10697   -3605.3341   -3587.2221   -1168.1591      12048.6    104.79138 
   26090     320.8436   -3605.1489   -3587.2743   -1081.5639     12053.79     104.9163 
   26100    310.74252   -3604.6617   -3587.3498   -1138.4093    12059.198    105.04191 
   26110    302.72163    -3604.302    -3587.437   -1382.7965     12064.44      105.138 
   26120    297.94375   -3604.1272   -3587.5284    -1475.353    12069.093    105.17438 
   26130    297.35427   -3604.1881   -3587.6221   -1336.4808    12073.001    105.13879 
   26140    299.28884   -3604.3931   -3587.7194   -1281.4098    12076.177    105.05519 
   26150    295.88703   -3604.3055   -3587.8213   -1379.6031    12078.544    104.97061 
   26160    292.31802   -3604.2089   -3587.9236   -1319.1751    12079.876    104.92164 
   26170    300.88319   -3604.7936   -3588.0311   -1201.7311     12079.95    104.91299 
   26180    300.23903   -3604.8768   -3588.1502   -1011.2759    12078.613    104.91953 
   26190    296.38844   -3604.7928   -3588.2807   -986.93496    12075.916    104.91109 
   26200    295.47134   -3604.8832   -3588.4222   -1201.1819    12072.082    104.87913 
   26210    284.31242   -3604.4076   -3588.5683   -1253.9999     12067.42    104.83338 
   26220    277.56659   -3604.1718   -3588.7083   -1242.4242    12062.245    104.78192 
   26230    284.78328   -3604.7101   -3588.8445   -1272.9045    12056.603    104.73013 
   26240    290.90956     -3605.19   -3588.9831   -1263.3949    12050.414    104.68735 
   26250    294.77249   -3605.5549   -3589.1328   -1240.4881    12043.749    104.65533 
   26260    288.27171   -3605.3526   -3589.2926   -1015.7272    12036.756     104.6199 
   26270    282.16301   -3605.1755   -3589.4559   -796.86564    12029.665    104.56557 
   26280    278.33785   -3605.1225   -3589.6159   -731.67935     12022.74    104.48728 
   26290     279.8251   -3605.3591   -3589.7697   -647.15074    12016.167    104.39344 
   26300    291.87334   -3606.1857   -3589.9251   -602.87848        12010    104.30927 
   26310    289.34714   -3606.2071   -3590.0872   -451.99361    12004.335    104.25687 
   26320     275.9339   -3605.6152   -3590.2426   -328.44687    11999.353    104.23205 
   26330    277.15442    -3605.825   -3590.3845   -435.44187    11995.151    104.21442 
   26340    278.30604   -3606.0148     -3590.51   -510.74481    11991.818     104.1862 
   26350    284.48157   -3606.4722   -3590.6234   -530.76786    11989.535    104.14157 
   26360     288.7923   -3606.8186   -3590.7296   -641.17624    11988.322    104.08733 
   26370    284.81317   -3606.6971   -3590.8299   -866.55475    11988.018    104.03539 
   26380    274.38436   -3606.2042   -3590.9179   -867.71352    11988.446    103.99473 
   26390    267.00431   -3605.8586   -3590.9835   -684.64624    11989.619    103.96364 
   26400    270.23452   -3606.0792   -3591.0241   -561.48069    11991.691    103.93593 
   26410     270.0445   -3606.0826   -3591.0382   -473.59055    11994.878    103.92169 
   26420    271.76582   -3606.1655   -3591.0251   -591.54989    11999.588    103.93964 
   26430    276.86111   -3606.4031   -3590.9788    -870.7718    12006.166    103.99205 
   26440     282.4135   -3606.6238   -3590.8903   -1098.7274    12014.565    104.06006 
   26450     284.1492   -3606.5783   -3590.7481   -1144.1116    12024.359    104.11824 
   26460      292.255   -3606.8266   -3590.5447   -1002.5422    12035.118      104.153 
   26470    300.03396    -3606.996   -3590.2808   -855.84609    12046.651    104.17642 
   26480    295.35439   -3606.4377   -3589.9831   -661.36306    12058.831    104.21585 
   26490    287.98721   -3605.7313   -3589.6872   -477.16025    12071.688    104.29045 
   26500    287.48572   -3605.4295   -3589.4134    -439.8946    12085.445    104.40044 
   26510    295.05249   -3605.6068   -3589.1691   -836.24289    12100.171    104.53096 
   26520    306.08485   -3606.0104   -3588.9581   -1523.9765    12115.413    104.66909 
   26530    313.29795   -3606.2392   -3588.7851    -2063.221     12130.36    104.80699 
   26540      308.859   -3605.8586   -3588.6518   -2398.4667    12144.234    104.93204 
   26550    291.85436    -3604.808   -3588.5485   -2604.4181    12156.541    105.03136 
   26560     282.9026    -3604.218   -3588.4572   -2722.8275    12167.086    105.10494 
   26570    281.88028   -3604.0666   -3588.3628   -2729.9676    12175.934      105.163 
   26580     284.3206   -3604.1009   -3588.2611   -2641.4872    12183.307    105.20967 
   26590    287.61552   -3604.1743    -3588.151   -2566.7571    12189.398    105.23987 
   26600    296.90602   -3604.5759   -3588.0349   -2706.4153    12194.311    105.25207 
   26610     298.7806   -3604.5635   -3587.9181   -2694.7762    12197.931    105.24662 
   26620    291.02295   -3604.0197   -3587.8064    -2591.137    12200.066    105.22955 
   26630    290.48847   -3603.8784    -3587.695   -2680.4069    12200.536    105.21186 
   26640     296.0796   -3604.0745   -3587.5795    -2650.266    12199.288    105.20028 
   26650    296.97347   -3604.0066   -3587.4618   -2435.2742    12196.603    105.19088 
   26660    304.81602   -3604.3274   -3587.3458   -2173.4072    12192.926    105.17083 
   26670    305.70767   -3604.2658   -3587.2344   -1803.4978    12188.731    105.12813 
   26680    291.98411    -3603.398   -3587.1312   -1496.0394    12184.554    105.06968 
   26690    292.22958   -3603.3085    -3587.028   -1505.1236    12180.717    105.00973 
   26700    305.37669   -3603.9318    -3586.919   -1603.9948    12177.093    104.94917 
   26710    315.56543    -3604.396   -3586.8155   -1659.6541    12173.302     104.8849 
   26720    311.88943    -3604.106   -3586.7303   -1610.3038    12168.945    104.82357 
   26730    303.78534   -3603.5867   -3586.6625    -1414.085    12163.841    104.77418 
   26740    301.60073   -3603.4045    -3586.602   -1086.1449    12158.043    104.73494 
   26750    301.63832   -3603.3456    -3586.541   -694.37903     12151.92    104.69599 
   26760    307.17108   -3603.5926   -3586.4798   -364.93111    12146.159    104.65225 
   26770    307.28756   -3603.5429   -3586.4236   -223.63156    12141.408    104.61132 
   26780    303.30572   -3603.2736   -3586.3761   -186.62103    12137.819    104.58748 
   26790    307.75978   -3603.4801   -3586.3345   -241.69877    12135.215    104.59119 
   26800    317.46361   -3603.9879   -3586.3016   -439.29338    12133.419    104.61437 
   26810      320.559   -3604.1458   -3586.2871   -496.31538    12132.268    104.62223 
   26820    319.31671   -3604.0863   -3586.2968   -400.92009    12131.597    104.58981 
   26830    317.48267   -3604.0181   -3586.3307   -266.65252    12131.268    104.53916 
   26840    316.60232   -3604.0262   -3586.3879   -225.07017    12131.324    104.51217 
   26850    315.08928   -3604.0228   -3586.4688   -261.48785    12131.893      104.522 
   26860    311.74774     -3603.94   -3586.5722   -364.68327    12132.929    104.54317 
   26870    309.85986    -3603.957   -3586.6944   -705.18204    12134.136    104.52902 
   26880    312.86613   -3604.2675   -3586.8374   -1006.0165     12135.17    104.44873 
   26890    305.67384   -3604.0278   -3586.9984   -961.74999    12135.875    104.32475 
   26900    298.63297   -3603.8039   -3587.1667   -880.11351    12136.351    104.20726 
   26910    292.08655   -3603.6027   -3587.3302   -1052.6596    12136.662    104.12705 
   26920    291.02789   -3603.6937   -3587.4803   -1123.6671    12136.594    104.08936 
   26930    296.93404   -3604.1615    -3587.619    -1012.235     12135.86    104.07772 
   26940    300.06233   -3604.4655   -3587.7487    -867.8549    12134.265    104.06984 
   26950    303.06599   -3604.7583   -3587.8741   -806.33285    12131.682    104.06701 
   26960    289.71002   -3604.1292   -3587.9892   -710.98983    12128.115     104.0853 
   26970    280.81453    -3603.724   -3588.0795   -814.89676     12123.74    104.11762 
   26980    286.58515   -3604.1113   -3588.1454   -1028.0716    12118.745    104.13678 
   26990    285.61958   -3604.1013   -3588.1891    -925.8938    12113.325    104.12551 
   27000    287.00722   -3604.2027   -3588.2132   -772.70931    12107.839    104.08372 
Loop time of 3586.42 on 16 procs for 10000 steps with 432 atoms

Performance: 0.241 ns/day, 99.623 hours/ns, 2.788 timesteps/s
96.8% CPU use with 16 MPI tasks x 1 OpenMP threads

MPI task timing breakdown:
Section |  min time  |  avg time  |  max time  |%varavg| %total
---------------------------------------------------------------
Pair    | 2580.2     | 3136.3     | 3562.9     | 449.8 | 87.45
Bond    | 0.00092006 | 0.0022912  | 0.0040071  |   2.2 |  0.00
Neigh   | 0.061541   | 0.07235    | 0.089228   |   3.1 |  0.00
Comm    | 21.964     | 432.7      | 952.38     |1141.4 | 12.07
Output  | 0.73168    | 0.74469    | 0.93424    |   5.7 |  0.02
Modify  | 0.68346    | 16.583     | 53.027     | 528.1 |  0.46
Other   |            | 0.04267    |            |       |  0.00

Nlocal:        27.0000 ave          34 max          22 min
Histogram: 3 1 3 3 0 0 2 1 2 1
Nghost:        326.938 ave         359 max         305 min
Histogram: 1 5 1 0 4 1 1 1 1 1
Neighs:         0.00000 ave           0 max           0 min
Histogram: 16 0 0 0 0 0 0 0 0 0
FullNghs:      957.875 ave        1359 max         689 min
Histogram: 2 3 3 1 1 1 2 1 1 1

Total # of neighbors = 15326
Ave neighs/atom = 35.476852
Ave special neighs/atom = 0.0000000
Neighbor list builds = 1000
Dangerous builds = 1000
unfix   4

write_data  structureB.data
System init for write_data ...
            
Total wall time: 2:49:03
