LAMMPS data file via write_data, version 2 Aug 2023, timestep = 80000, units = metal

1536 atoms
3 atom types

-0.5979141726079558 25.52852641750559 xlo xhi
-0.4317611671198076 25.362373412018265 ylo yhi
-3.429838086370495 78.22167482106667 zlo zhi

Masses

1 35.44999999088069
2 39.09829998994218
3 6.939999998214724

Atoms # full

7 0 1 -1 0.095844121742509 0.5987047674097645 -1.778139604975365 0 0 0
775 0 1 -1 12.19380923700711 0.2632799147927217 -1.654109734476542 0 0 0
676 0 2 1 9.24177438274361 0.8064501744050776 -2.1281204496420645 0 1 0
769 0 2 1 16.770117478975294 0.3307129813101488 -2.3250860205188073 0 0 0
1159 0 1 -1 19.607435298704672 0.18765508726477498 -2.6159153535206956 0 0 0
1155 0 2 1 22.750631735022722 1.0714087736021927 -2.0548652230727154 0 0 0
2 0 2 1 -0.4835300653787521 3.568403452726697 -1.1581047281281966 0 0 0
391 0 1 -1 2.742702489105897 4.802846941282533 -0.4917351232257925 0 0 0
386 0 3 1 5.059447313701389 4.494920991873179 -1.4454349072759123 0 0 0
871 0 1 -1 9.781136966558519 4.478434572572519 -2.009658433976156 0 0 0
874 0 2 1 12.964515458768664 3.6091209291858872 -1.9825621920828311 0 0 0
774 0 1 -1 16.174046687610684 2.922429652640117 -1.5513580999787497 0 0 0
1154 0 2 1 19.195266511477627 3.5969888587186647 -1.2679866309057775 0 0 0
1158 0 1 -1 22.16432010556104 4.071167589331663 -2.5244861820646154 0 0 0
102 0 1 -1 5.793174099184809 8.794969436767296 -2.0670348715462454 0 0 0
483 0 2 1 9.279958390138452 7.613369886936267 -1.8562414497790076 0 0 0
880 0 1 -1 13.003334657076696 7.015394917799441 -1.4966125952339786 0 0 0
867 0 2 1 16.95785930976058 7.095672188179747 -1.3243344525711143 0 0 0
1255 0 1 -1 19.552958689938862 6.63030376216195 -0.5214725172386583 0 0 0
1260 0 2 1 21.389045012115083 8.913534169875097 -1.5396283128865127 0 0 0
98 0 2 1 -0.00695597327205999 10.726467611989989 -1.3342116673194697 0 0 0
482 0 3 1 5.8058501417483885 10.58529178493329 -3.266189700003414 0 0 0
486 0 1 -1 9.458442006379864 10.465104849525742 -1.7956665945375125 0 0 0
866 0 2 1 12.497550144945256 10.301694303152594 -1.7345197473116354 0 0 0
870 0 1 -1 16.145173864150102 9.774115038573713 -1.5509251722921484 0 0 0
1351 0 1 -1 19.110370077288287 11.810937919054739 -1.1155880575156862 0 0 0
93 0 1 -1 23.748185134217614 12.295015867790724 -3.241950796368079 -1 0 1
199 0 1 -1 0.7183402450863141 13.723750227596915 -1.5297363885230204 0 0 0
583 0 1 -1 5.80523708042232 12.696597608944616 -2.9532934271839575 0 0 0
195 0 2 1 3.742826409007498 13.900923035567756 -0.6278232408891284 0 0 0
578 0 2 1 7.1124039221436375 15.642639876004159 -2.2179343064091928 0 0 0
579 0 2 1 10.44316764219203 13.630127205843928 -0.9174997007832131 0 0 0
967 0 1 -1 13.311753628941968 13.908185670531818 -1.75659846420123 0 0 0
963 0 2 1 17.188611901554893 14.069537129834101 -1.9434302798546548 0 0 0
1348 0 2 1 21.60812439895645 13.50889626170091 -1.7379121784393297 0 0 0
1346 0 3 1 24.72694945090361 14.654637013021055 -1.808549773879375 0 0 0
194 0 2 1 1.949818439654564 17.06369419874887 -2.527109040775822 0 0 0
198 0 1 -1 4.0714768899948 17.22260565104667 -0.5753723127303472 0 0 0
582 0 1 -1 10.318091495009075 16.71750441211534 -0.8491439332881865 0 0 0
962 0 2 1 13.364007490850728 16.459155406260095 -0.17074226052121366 0 0 0
966 0 1 -1 16.639774655619263 16.923540349487737 -1.043994731326669 0 0 0
1443 0 3 1 19.201148884445942 17.24034886509741 -1.4174638497520409 0 0 0
1444 0 2 1 22.732151485251613 18.524483047568282 -1.949477099863804 0 0 0
295 0 1 -1 -0.4044994764551914 19.27372549625172 -1.4078846632026059 0 0 0
296 0 1 -1 3.379439161564051 21.904281316761036 -1.1028362118883677 0 0 0
291 0 2 1 4.642952054151468 19.48980063717196 -2.244161322624952 0 0 0
679 0 1 -1 6.943460771637319 20.637136843918256 -0.9719774626069615 0 0 0
675 0 2 1 9.953299024961758 19.380480891536216 -1.7158362603732538 0 0 0
1063 0 1 -1 12.633833253088618 20.291967061864142 -1.0147107006198897 0 0 0
1059 0 2 1 15.759172157998607 19.67045744367305 -1.4813094477117748 0 0 0
1447 0 1 -1 19.984915095417904 19.496174664739826 -1.840944701119088 0 0 0
290 0 2 1 -0.3050232332041202 22.93093962992082 -1.82528432955081 0 0 0
3 0 2 1 3.237604706699745 25.079435833211114 -1.5624485395257715 0 -1 0
292 0 3 1 5.537265178355887 22.745941378132123 -0.7534444710064636 0 0 0
674 0 3 1 7.635146395282714 22.21034335532721 -2.8217626591129554 0 0 0
294 0 1 -1 6.230260957464456 24.73041315972813 -1.740374971394935 0 0 0
678 0 1 -1 9.576859828778154 23.286091494513506 -2.6097572879644373 0 0 0
1058 0 2 1 12.663272528706827 22.90812201030021 -1.9413924969230008 0 0 0
1062 0 1 -1 16.153343477081812 23.046739605659695 -2.282530071201977 0 0 0
1442 0 2 1 19.312616418296145 22.916539720145032 -2.1232295664824763 0 0 0
1446 0 1 -1 22.6261938174135 23.483298297110977 -1.8105507216902548 0 0 0
9 0 2 1 -0.110027864380709 0.2577428195397181 1.7371105051513345 0 0 0
13 0 1 -1 2.990795671920488 0.19806803688419505 1.5975623044883838 0 0 0
397 0 1 -1 8.938457132067565 0.9207576865783269 1.245276568735176 0 0 0
777 0 2 1 12.246764468354806 0.47161518085611 1.52808947346918 0 0 0
781 0 1 -1 16.541665433934682 0.01112835860231648 1.2857145337334845 0 0 0
771 0 2 1 19.719469126380815 0.3089464079559213 1.0396293993426706 0 0 0
1161 0 3 1 21.680176493126858 2.1382857759776837 2.932316266169943 0 0 0
1165 0 1 -1 23.02037989453757 0.697548952883944 1.4791143026599878 0 0 0
10 0 2 1 1.2998708827462255 4.522219669404511 2.358435815791636 0 0 0
12 0 2 1 5.312161539065809 2.866509087485855 2.3912139667834884 0 0 0
390 0 1 -1 6.647746407980388 5.225858303281805 0.8174647494703882 0 0 0
770 0 2 1 9.518358243859344 4.2122704559380635 0.9150186752856788 0 0 0
784 0 1 -1 13.295311313040033 3.5097786563087445 1.2984042283363042 0 0 0
780 0 2 1 16.219356199480288 3.3661702910815037 1.8705588915767155 0 0 0
1168 0 1 -1 19.73602094066669 3.205104629193543 1.7501701588838108 0 0 0
1164 0 2 1 22.001239496322697 5.173339981175559 0.43000911096573713 0 0 0
16 0 1 -1 25.06944435986827 5.757516191928015 1.112915998819659 -1 0 0
489 0 2 1 3.758961632626197 8.024909939621791 1.012966829566123 0 0 0
6 0 1 -1 5.88441100747308 9.191314681812734 2.734565898864452 0 0 0
396 0 3 1 6.643479244866015 7.089953296750528 1.9447455929253916 0 0 0
493 0 1 -1 9.41309392442556 8.663158750725199 1.7265053633101326 0 0 0
873 0 2 1 13.257950184167205 7.41832832784961 1.4133567948020813 0 0 0
1263 0 1 -1 16.09559167380099 6.14347302909112 1.8622390632280004 0 0 0
1162 0 2 1 19.11248464510831 7.0556725402659195 2.623641927871489 0 0 0
1261 0 1 -1 22.127171173711417 7.85525448690619 1.8901041314152573 0 0 0
105 0 2 1 25.187370309326454 8.510430221160608 1.580150168585038 -1 0 0
109 0 1 -1 2.129913953629383 10.829390014375084 1.1500976713389255 0 0 0
492 0 2 1 7.225284705373416 10.861067173458391 0.3963356743896198 0 0 0
975 0 1 -1 13.498242827605647 11.020362865660092 1.3095310605501744 0 0 0
876 0 2 1 16.43856656711494 10.536392424502464 1.4630777216509765 0 0 0
1264 0 1 -1 19.553340805079742 10.293326572879106 2.3762022047449234 0 0 0
1257 0 3 1 21.693519695711394 10.042907775148835 2.330680042684249 0 0 0
1254 0 1 -1 22.429850449619813 11.31669566815697 0.010960213217151793 0 0 0
205 0 1 -1 3.433521489219924 14.711990950098468 2.154761899258334 0 0 0
589 0 1 -1 7.716307374027959 13.842810587994007 1.0336695276010772 0 0 0
976 0 1 -1 12.39051613046641 14.240313005079502 1.6942247081975559 0 0 0
969 0 3 1 14.157563779204619 13.141229014257652 1.0056198126244942 0 0 0
973 0 1 -1 16.437309052229864 13.804156729354325 1.5864375296627369 0 0 0
1353 0 2 1 20.39590264212434 13.395789561062262 1.6014236992309945 0 0 0
201 0 2 1 25.472047719695926 13.546812461231855 1.8975412991956135 -1 0 0
208 0 1 -1 0.48003176459954267 18.23767160811113 2.708533848942685 0 0 0
204 0 2 1 3.4267150868487413 17.578715258154695 2.472955813463636 0 0 0
588 0 2 1 7.840031195115012 16.80765316927311 1.4975386850427634 0 0 0
1069 0 1 -1 14.772483847649884 18.816562108085492 1.7341705963448133 0 0 0
972 0 2 1 17.32580688113039 16.684880299785647 1.9796069812915302 0 0 0
1360 0 1 -1 20.12177000193173 16.440640089332916 0.5498550775852267 0 0 0
1356 0 2 1 22.166573137041134 16.788135167088782 2.9725595222725296 0 0 0
1350 0 1 -1 23.955477556931385 16.322893760547323 0.23167395663922008 0 0 0
297 0 3 1 25.0416584414399 18.32356732816129 0.5323546503288457 -1 0 0
592 0 1 -1 5.8402647321803185 19.58090836557711 2.8365754558784504 0 0 0
300 0 2 1 2.672521825982179 21.62224837206245 1.8180541519759252 0 0 0
299 0 3 1 7.033175540819226 20.707434053905764 1.4421042894530522 0 0 0
685 0 1 -1 9.645487010120576 19.543280628211043 1.5729554399339092 0 0 0
1065 0 3 1 12.99374690287154 20.510954761945364 1.4882073571300607 0 0 0
1449 0 2 1 20.461161699359707 19.817216066792703 1.0836654610137222 0 0 0
1453 0 1 -1 23.51109033858595 19.723569498209372 1.4768295980597346 0 0 0
304 0 1 -1 0.14426709791688963 23.16309266416065 1.7341383473262395 0 0 0
301 0 1 -1 6.718690035780927 23.04638643107203 1.5500191213021441 0 0 0
387 0 2 1 9.284609125376125 23.69648120391257 0.37112363467467846 0 -1 0
1072 0 1 -1 12.66149797088986 23.040388136531696 1.49122609155258 0 0 0
1068 0 2 1 15.724985622921496 22.842755073951572 1.1981080727812126 0 0 0
1456 0 1 -1 19.65348861291438 22.70926993196774 1.8192057950913902 0 0 0
1452 0 2 1 22.925706126423975 23.10844808402485 1.1671155264617692 0 0 0
11 0 2 1 2.634999144416748 -0.36553307012063563 4.9070491023311344 0 0 0
15 0 1 -1 0.04254741282471086 2.4677067837923965 3.945188221177756 0 0 0
393 0 2 1 8.200364226308869 0.34225373614921106 3.99467846778896 0 0 0
783 0 1 -1 11.156906070761362 1.0102157094315967 4.674291432335506 0 0 0
779 0 2 1 17.003083378871267 0.18547447814633766 4.242200048807999 0 0 0
1167 0 1 -1 20.180829814559246 0.6647769919247271 3.976521965105853 0 0 0
14 0 1 -1 3.3420819629144494 3.3844490258187325 4.6756171230687364 0 0 0
398 0 1 -1 9.847986726015144 4.349296442382242 5.625400351613472 0 0 0
395 0 2 1 12.178292416738449 4.220111946170653 4.223752101770309 0 0 0
782 0 1 -1 15.636163700996741 3.473284266967524 4.967693594338247 0 0 0
1169 0 2 1 18.575601099899522 4.024273607961133 5.352284781246219 0 0 0
1166 0 1 -1 22.102463700509873 3.638267192911428 4.7871265624044455 0 0 0
1460 0 3 1 24.39946496914871 2.9250158647829045 5.222563835711341 0 1 0
111 0 1 -1 0.00867990696375287 6.899540184715809 4.344483482388603 0 0 0
106 0 3 1 0.03218160127986103 9.039050292086873 5.535262678369838 0 0 0
107 0 2 1 5.605000950883276 8.079685182455147 6.2842564521792585 0 0 0
400 0 1 -1 6.533496200487109 6.132294592236344 3.952911316059039 0 0 0
490 0 2 1 9.248515404442522 7.54533194908137 4.388068361622514 0 0 0
877 0 1 -1 12.81137208244016 7.344993096609668 5.066650953683656 0 0 0
875 0 2 1 16.140931128538064 7.0786738996077725 4.930688485397093 0 0 0
885 0 1 -1 19.446790346587775 6.972742963693431 5.544374593433776 0 0 0
1259 0 2 1 23.09882128846263 7.103687649461244 5.193212168936412 0 0 0
496 0 1 -1 2.4554049341966824 9.46599636741502 5.109290639259095 0 0 0
108 0 3 1 1.0857250286023323 11.570693362118341 5.866138328960478 0 0 0
591 0 1 -1 7.768638302029329 10.346969522857409 6.149967148238405 0 0 0
587 0 2 1 11.21685936032337 10.3047785183571 3.215599597191326 0 0 0
878 0 1 -1 15.974591720743566 10.098009305998415 4.776749134029139 0 0 0
1258 0 2 1 19.16208101940871 10.3018676261331 5.598052579690794 0 0 0
1355 0 2 1 23.332912524207508 12.307398159782899 5.783122987053636 0 0 0
112 0 1 -1 24.048484975125618 9.844542112633874 4.311501306841165 -1 0 0
207 0 1 -1 0.24978409747878327 13.588820056278811 5.091838502362764 0 0 0
203 0 2 1 3.5277176867226654 14.010702399366297 4.8462568963239505 0 0 0
206 0 1 -1 6.14468148242844 15.119167294528891 5.900260280192326 0 0 0
585 0 2 1 8.932003601471582 14.155411959001928 4.436419842715852 0 0 0
888 0 1 -1 11.847583479208033 12.893214855050921 5.282776463732425 0 0 0
971 0 2 1 15.124691729454222 13.322017891706373 4.997765168345538 0 0 0
1359 0 1 -1 18.64362377484227 13.148321580148991 5.517341412491376 0 0 0
1357 0 1 -1 22.674668577209758 14.213164683055453 3.7213679452226742 0 0 0
202 0 2 1 -0.10685012032922103 17.83450553530549 5.658718036914562 0 0 0
302 0 1 -1 2.829580786309867 17.34539765808634 5.448960705378939 0 0 0
689 0 2 1 6.687717967962208 18.191610822995308 5.478057563230996 0 0 0
590 0 1 -1 9.424037539891424 17.031886972947945 4.561875103129402 0 0 0
970 0 2 1 12.559555553263927 16.93933577821992 3.883269803563561 0 0 0
974 0 1 -1 15.46824160720755 16.6549748623342 4.904198123180137 0 0 0
1354 0 2 1 18.66234637288872 16.232281649958487 4.995858610440113 0 0 0
1455 0 1 -1 18.743057842725342 18.865016327843662 3.5769237320444995 0 0 0
1358 0 1 -1 22.913575442756994 18.328999587932195 5.269925604820758 0 0 0
688 0 1 -1 3.23433521014951 21.643137430908745 4.988107046170967 0 0 0
586 0 3 1 3.2939227885162206 19.52841507829507 6.1430723093638 0 0 0
683 0 3 1 10.147968714094734 20.80964648363331 3.660072995363734 0 0 0
1071 0 1 -1 12.284646868867192 20.2441952397603 4.102263244653142 0 0 0
1067 0 2 1 16.091406317682683 19.759178318494378 4.772716628128812 0 0 0
1450 0 2 1 19.179615085727022 22.125468679192053 4.995291143596015 0 0 0
298 0 2 1 25.41472122466491 20.868976432734677 3.6354738813891805 -1 0 0
1457 0 3 1 22.4807831536939 20.56035735170319 6.243929053847468 0 0 0
312 0 1 -1 -0.2609104905345982 23.754470497874514 5.798645252612811 0 0 0
399 0 1 -1 5.724407419951247 25.1730579763367 5.904600100912429 0 -1 0
684 0 2 1 6.195641511489222 22.654919642202913 4.784073272780763 0 0 0
686 0 1 -1 9.175284021075925 22.579811566364036 4.74705166469799 0 0 0
1066 0 2 1 12.24847279380246 23.67531286027569 4.7853614111098075 0 0 0
1070 0 1 -1 15.722990572046664 23.05115769120863 4.4841338596571525 0 0 0
1163 0 2 1 23.155556410787796 24.998799987760137 5.211318163846684 0 -1 0
1454 0 1 -1 22.409510593576933 22.242322847344767 4.556634310549874 0 0 0
308 0 2 1 -0.001514012054404379 0.7859470515852465 7.655336420706664 0 1 0
21 0 1 -1 3.0045998457451675 -0.23705210214848432 7.741954554954969 0 0 0
408 0 1 -1 5.792276138090044 2.3499617577587646 8.912469311151803 0 0 0
404 0 3 1 6.628097304466533 0.14818236634667892 8.20248693425203 0 0 0
405 0 1 -1 9.14778266660828 0.7659079579130743 8.217022132647271 0 0 0
785 0 2 1 12.387312605443345 0.34011508048458583 9.23066001926998 0 0 0
491 0 3 1 10.359664482979495 2.3097129670975716 6.975424995944675 0 0 0
789 0 1 -1 15.90784526763869 0.8153408120671857 9.593628675136504 0 0 0
787 0 3 1 18.84048383918335 0.7855181656680907 8.790522844000295 0 0 0
1173 0 1 -1 22.91337082244452 0.1999050727331234 8.274403017300356 0 0 0
20 0 2 1 1.6439560297605476 5.0102093231479214 6.698267729661378 0 0 0
394 0 2 1 6.177794186138349 3.948192049749329 6.565878184181276 0 0 0
881 0 2 1 10.958458278576614 5.997881988880786 8.108558690083406 0 0 0
792 0 1 -1 11.898191456298745 3.1288265498651815 8.769180884886586 0 0 0
788 0 2 1 15.291228233913545 3.9868132157711225 8.107313303640787 0 0 0
1176 0 1 -1 18.53976412419619 3.0625319882133626 8.213665632144542 0 0 0
1172 0 2 1 22.032452035294206 3.54413996113322 8.086108580801117 0 0 0
24 0 1 -1 25.1101203372233 3.5504549226883566 7.434735036815033 -1 0 0
117 0 1 -1 3.8717591454882783 6.902420897243512 8.512472400534163 0 0 0
495 0 1 -1 7.603147725702497 6.728472895774389 7.845978345190025 0 0 0
879 0 1 -1 14.144526653221153 7.095620462331999 9.241060811766912 0 0 0
1272 0 1 -1 16.90762420709173 8.984115047214061 7.775045061229649 0 0 0
1268 0 2 1 19.957034365970145 8.208343852297137 8.455011135162547 0 0 0
1269 0 1 -1 22.940449191676635 6.778502497763457 8.613272610068355 0 0 0
110 0 1 -1 -0.34446989485429347 10.57588201080901 7.24751821715838 0 0 0
116 0 2 1 2.786002626195044 9.838485967178986 8.396239256992734 0 0 0
504 0 1 -1 5.894459093817797 10.074773460993212 9.106700449854078 0 0 0
778 0 3 1 8.296007537333082 9.259966120462947 8.396262568319445 0 0 0
501 0 1 -1 11.149249042899886 9.674693798829837 7.692334861625721 0 0 0
500 0 3 1 10.042941202980888 11.283533369881106 6.9089298471944804 0 0 0
884 0 2 1 13.907070649569457 10.160223827279582 7.008722406752453 0 0 0
1262 0 1 -1 21.34634330050001 10.878863343423408 7.938544565425037 0 0 0
113 0 2 1 23.44280153037967 9.65981353470382 9.23734738501219 -1 0 0
213 0 1 -1 2.74574145670083 13.07450268747137 7.957995033679968 0 0 0
593 0 2 1 6.61720694386943 13.300084793666269 8.493861101669095 0 0 0
494 0 1 -1 9.319782657681136 13.859379038647113 7.807699132778648 0 0 0
977 0 3 1 12.269599806900219 14.729570827220282 7.16402421443332 0 0 0
981 0 1 -1 14.406088599120862 13.561971488688894 7.969193100360878 0 0 0
1361 0 2 1 19.81161103165479 13.80446897942431 8.40375334867863 0 0 0
1365 0 1 -1 22.78815045466625 14.380726784071408 7.825813150344423 0 0 0
209 0 2 1 25.44751314433944 13.677405403784368 8.06967328751736 -1 0 0
216 0 1 -1 -0.14856606478190243 16.544212045333232 9.560765355428666 0 0 0
212 0 2 1 2.8311649797184226 16.40441501606187 8.12018515913591 0 0 0
600 0 1 -1 5.954856901538078 17.39431411799596 8.880188888241165 0 0 0
596 0 2 1 9.384656010571755 16.735171129420984 8.00974612437343 0 0 0
597 0 1 -1 12.23954591480644 17.351496765773213 7.088203508764467 0 0 0
980 0 2 1 15.363911010950458 16.852921696912006 8.133728757401464 0 0 0
1368 0 1 -1 18.901508752140586 16.740861481329603 8.203909906780359 0 0 0
1364 0 2 1 23.355597487238605 17.526181310277103 8.383989169825332 0 0 0
309 0 1 -1 1.9057238197098672 19.349368244867634 8.337246126324791 0 0 0
306 0 3 1 -0.08935354073152268 19.098426055621502 9.46940325866317 0 0 0
687 0 1 -1 5.7450929669041235 20.414033194659602 7.0033441135641485 0 0 0
682 0 3 1 6.335849979675668 20.123937989817527 9.267681540365004 0 0 0
1073 0 2 1 12.231223490322582 19.858243570915114 8.405678406228489 0 0 0
1451 0 3 1 18.78028829667503 19.346695545419372 8.246303837365497 0 0 0
1077 0 1 -1 16.65325530320542 19.908802652482464 8.136580344649445 0 0 0
1461 0 1 -1 20.501907442530587 20.972548271254418 7.3975417001905 0 0 0
303 0 1 -1 24.193584564694852 20.571610037890487 7.8996537380922085 -1 0 0
401 0 2 1 3.8519997753439554 22.63039018649365 8.508728371666692 0 -1 0
692 0 2 1 9.18806607599337 23.774134555685073 7.431147757847887 0 0 0
696 0 1 -1 6.689093913538635 24.020850934719434 9.369201927033485 0 0 0
1080 0 1 -1 12.257587587580124 23.393569587198954 7.8166655409170716 0 0 0
1076 0 2 1 15.495733047969493 23.770383223824624 8.760966446106417 0 0 0
1464 0 1 -1 18.220475004870295 24.887391640767824 7.559512116678281 0 0 0
305 0 3 1 25.076401269044602 22.52920983259152 7.60929139967007 -1 0 0
23 0 1 -1 0.09799917461086483 0.8025711861408338 11.32320517726058 0 0 0
19 0 2 1 3.4642456039530076 -0.021095680794888605 10.415754676348694 0 0 0
407 0 1 -1 4.943275507927414 0.7654762288051153 12.842240469955968 0 0 0
403 0 2 1 7.899667448447698 0.8019565025810711 11.31281748872908 0 0 0
791 0 1 -1 12.114503411650045 0.38758814274366715 12.357076356467799 0 0 0
794 0 3 1 17.145462231240806 -0.15965074103821691 11.284295245593839 0 0 0
1175 0 1 -1 19.124180192180376 0.9021827876479507 11.052367718053887 0 0 0
1171 0 2 1 22.95301343228992 0.5468823128445778 11.255049378995198 0 0 0
22 0 1 -1 2.008513473367658 4.029276665127152 12.1299824998274 0 0 0
402 0 2 1 5.71076730892171 3.622778720091148 11.638256111374984 0 0 0
406 0 1 -1 8.929865371575213 3.2985932541293317 12.612132009479204 0 0 0
786 0 2 1 12.373066963228077 3.278503925235763 12.290347878750262 0 0 0
790 0 1 -1 15.137962086237005 3.98266180135327 11.520938515733562 0 0 0
1170 0 2 1 18.141130705201363 4.6519485737593245 11.125995505934947 0 0 0
1174 0 1 -1 22.0529636593388 3.9412256508335908 11.193879754942598 0 0 0
18 0 2 1 25.208445777529278 4.0848541498494315 10.92810766380391 -1 0 0
119 0 1 -1 -0.4390123657966918 7.562131904625026 11.25839778211129 0 0 0
115 0 2 1 2.6099112970628107 7.231606218068479 11.845541461889674 0 0 0
497 0 3 1 5.992874604579837 7.458647243001666 9.703293485177698 0 0 0
499 0 2 1 8.943559929627403 6.598554505776816 11.445328287096947 0 0 0
503 0 1 -1 6.095594224422005 7.005326225746378 11.812441889938654 0 0 0
887 0 1 -1 11.607755520865958 6.303077286275837 11.777063552909608 0 0 0
883 0 3 1 13.749367163212792 6.333857911784334 11.46495319111868 0 0 0
1265 0 3 1 15.983105507120412 8.760715067895354 9.756743746874035 0 0 0
1271 0 1 -1 18.19218491902759 7.7914417299192955 10.633588687128835 0 0 0
1267 0 2 1 22.277617413783723 6.747756504943309 11.720597555200849 0 0 0
118 0 1 -1 2.5075950038660806 10.234472038932823 11.436118956135726 0 0 0
114 0 3 1 0.48066677721219486 10.684095140436819 12.031203302510885 0 0 0
498 0 2 1 5.74269486490461 10.442822107093377 12.385825331071763 0 0 0
502 0 1 -1 9.342371767473708 9.292858131511156 10.56463259209492 0 0 0
882 0 2 1 12.653314373330778 9.260758334704786 11.161712989855703 0 0 0
886 0 1 -1 15.995152461791248 10.642239121198402 11.133453930783102 0 0 0
1266 0 3 1 18.107818722997997 10.63325417953886 12.128372649939564 0 0 0
1270 0 1 -1 21.274532299295224 9.982741137900335 11.624479618760377 0 0 0
120 0 1 -1 25.41886811457133 12.026386017455396 10.62018438264842 -1 0 0
211 0 2 1 1.7085366779995343 13.938636777909421 10.914563142030788 0 0 0
601 0 3 1 5.155571761169556 14.622643564775728 12.805188036832313 0 0 0
599 0 1 -1 6.826154369176626 13.485273306287652 11.568447531597178 0 0 0
595 0 2 1 9.854088744064573 13.212833562657208 11.110333050651532 0 0 0
983 0 1 -1 12.893875057050817 13.172942093827281 12.15261462143168 0 0 0
979 0 2 1 15.66565390403086 13.579204362109778 10.607621861358322 0 0 0
1367 0 1 -1 18.846893138075494 13.549180159999564 11.402680660464815 0 0 0
1363 0 2 1 22.908749996297352 13.249770953697103 10.980688108330769 0 0 0
210 0 2 1 0.72586774914848 17.223702058431236 12.459553836837223 0 0 0
214 0 1 -1 3.628261000067999 16.39025981716715 11.65245828470062 0 0 0
594 0 2 1 6.710175783312028 17.556944907902704 11.515639710674929 0 0 0
598 0 1 -1 9.364487511299837 16.316285228345777 11.713237915088953 0 0 0
978 0 2 1 12.343082472007916 16.629039611017966 12.739130009587143 0 0 0
982 0 1 -1 15.94761962072558 16.36276368174648 11.735744757650796 0 0 0
1362 0 2 1 19.52242542808223 16.95410937053959 11.378068773436107 0 0 0
1366 0 1 -1 22.573160465526364 16.842456557427603 11.4091074516582 0 0 0
307 0 2 1 2.965336134435974 19.946704896471722 11.500842395023334 0 0 0
695 0 1 -1 6.03384996871504 20.979048785092687 11.402735406389217 0 0 0
693 0 1 -1 9.023162406383388 20.78149845390135 9.899834492768154 0 0 0
691 0 2 1 11.020394862461231 20.60237833141528 12.716561742746098 0 0 0
984 0 1 -1 13.079487588215367 19.30328644836201 11.088567286314104 0 0 0
1075 0 2 1 16.006869330255682 19.620691814198764 11.577344503682953 0 0 0
1463 0 1 -1 19.190834385058707 20.060754532997798 10.834482555308531 0 0 0
1459 0 2 1 22.22095660103499 19.95085534519474 12.17157056516078 0 0 0
311 0 1 -1 25.29656120080019 19.9353465177945 11.441432228528777 -1 0 0
310 0 1 -1 1.932981803306466 22.868031421094408 10.720865796029841 0 0 0
681 0 3 1 7.309515280394806 22.719537849897378 10.981433652480671 0 0 0
694 0 1 -1 8.725044374615452 23.662074010056436 12.495537631757298 0 0 0
1078 0 1 -1 17.037652638648197 23.339562374528363 11.670665362456225 0 0 0
1458 0 2 1 20.196400758480067 22.688243327880706 9.908808246370956 0 0 0
1462 0 1 -1 22.37945175267867 23.03136748716588 11.689623502933788 0 0 0
17 0 2 1 25.51576760876958 23.289566633994177 11.875525807434528 -1 -1 0
25 0 3 1 0.6931635544434371 2.2700833306023593 13.047734127473909 0 0 0
29 0 1 -1 1.2235495939268255 1.0314622192874214 14.972413839684897 0 0 0
409 0 2 1 6.737431777354147 0.2174178257931083 15.35723039744996 0 0 0
413 0 1 -1 9.828263689914593 0.1390366372703309 16.078895162812554 0 0 0
797 0 1 -1 16.115794529840485 1.0747257836351327 14.129980890832599 0 0 0
1177 0 2 1 19.31221468392605 0.41778291601098183 14.066095276487236 0 0 0
1181 0 1 -1 22.80320536479924 0.4796855728570728 14.964756844045223 0 0 0
316 0 3 1 25.03864447657915 -0.1426863512752145 15.595702404306145 -1 1 0
28 0 2 1 2.7442442885017697 3.8436157558156943 15.303512426781793 0 0 0
416 0 1 -1 5.91595914798149 3.865246035559834 15.365348268886372 0 0 0
412 0 2 1 9.210368683121107 3.2163575110481575 15.763092472579796 0 0 0
800 0 1 -1 12.51544650738213 2.8928397864255957 15.361051167376306 0 0 0
796 0 2 1 15.69215698708531 3.940555337318708 14.824561301140506 0 0 0
1184 0 1 -1 18.870357524748705 4.074526652338793 14.50087396663248 0 0 0
1180 0 2 1 22.032001042877198 3.7789933869109307 14.33404240658335 0 0 0
32 0 1 -1 25.225973798450774 3.9759536636158597 14.723642892170869 -1 0 0
121 0 2 1 -0.5623816249867986 6.962835577893508 14.24710507275218 0 0 0
125 0 1 -1 2.8588658814024206 7.3854219475921905 14.919408442544228 0 0 0
505 0 2 1 5.847421188699784 7.1751765849099955 14.633223627337692 0 0 0
509 0 1 -1 8.963278695749862 6.9465428023231075 14.800558750586564 0 0 0
889 0 2 1 12.018174352710826 6.331802219102191 14.76006069579066 0 0 0
893 0 1 -1 14.996049846957757 7.09288301040664 13.695464192104161 0 0 0
1273 0 2 1 18.261128467240596 7.000647300116325 13.923456016622442 0 0 0
1277 0 1 -1 22.05158229503406 6.890929447462229 14.755089102642895 0 0 0
124 0 2 1 2.2576326791144568 10.946772137613134 15.432142380265674 0 0 0
512 0 1 -1 6.347280430732593 10.043659369896927 15.270808765449225 0 0 0
508 0 2 1 9.395207293620134 10.294196297129071 14.116904995237643 0 0 0
896 0 1 -1 12.413023853718878 10.090534890890563 14.485094136427822 0 0 0
892 0 2 1 15.439327938559016 9.802796548465741 14.329011912859109 0 0 0
1280 0 1 -1 18.65232501659652 9.91117321315579 14.304996767864925 0 0 0
1276 0 2 1 21.946505169837643 10.047604640656099 14.40527382523656 0 0 0
128 0 1 -1 25.37206206941576 10.718003254111359 14.365624139856664 -1 0 0
215 0 1 -1 -0.0969677261576739 14.665309234129605 13.948642607730822 0 0 0
221 0 1 -1 3.766453840406177 13.24742546307939 14.266986042296239 0 0 0
605 0 1 -1 9.542776405457879 13.454314592774953 14.15196791941511 0 0 0
985 0 2 1 12.17617331765057 13.432777401686884 15.233705084675318 0 0 0
989 0 1 -1 15.834636914795004 14.841614196780446 15.26935579042171 0 0 0
1369 0 2 1 18.615402670242176 13.857655527975018 14.630330107843811 0 0 0
1373 0 1 -1 22.001399715254593 13.73061254568692 14.031511743960035 0 0 0
217 0 3 1 24.579132813971597 13.074134615400496 15.05145142819055 -1 0 0
220 0 2 1 2.603996450890399 15.851232578683769 14.908529232396823 0 0 0
224 0 1 -1 0.7406546755758501 18.088892230470286 15.431363128151343 0 0 0
608 0 1 -1 5.483057762119564 16.379827094494004 14.94056851631225 0 0 0
604 0 2 1 8.43254443159464 16.338788326643616 14.618473476543215 0 0 0
992 0 1 -1 12.116185575234448 16.222276672516713 16.026230452696648 0 0 0
987 0 3 1 14.584985657803681 16.71400999721869 15.98247294630729 0 0 0
1085 0 1 -1 15.843202837002332 18.590733373458242 14.794705162173841 0 0 0
988 0 3 1 16.943937553403032 16.69960254085005 13.82186587817484 0 0 0
1376 0 1 -1 19.241896107100253 17.389198406188 14.329198168797173 0 0 0
1372 0 2 1 22.185099028382908 16.913895312727625 14.457359057198051 0 0 0
317 0 1 -1 2.562975812600579 21.351642154472565 14.348486605951344 0 0 0
697 0 2 1 5.4168248054197505 20.395248044425614 14.829385425914623 0 0 0
701 0 1 -1 8.765804669059179 19.777268185482725 14.830051664222534 0 0 0
1465 0 2 1 18.329679097698197 20.116026135588754 15.27054020318359 0 0 0
1469 0 1 -1 22.034147181234886 20.126282189911393 15.180176406125721 0 0 0
313 0 2 1 25.092085947076015 20.267049562008445 14.845359785855194 -1 0 0
690 0 2 1 3.0334773010377574 24.2342858592662 14.384645355315136 0 0 0
704 0 1 -1 5.928580148221767 23.246431291862642 15.772656039582706 0 0 0
700 0 2 1 9.002472709175422 22.634912036232443 15.24848117489421 0 0 0
1074 0 3 1 10.689143879985162 24.782875294683883 13.635950305055221 0 0 0
1079 0 1 -1 11.951164890797177 22.992918570732193 14.762082361937328 0 0 0
801 0 2 1 14.841152532268271 24.221636841908293 13.8166945327605 0 -1 0
1472 0 1 -1 18.240280485305327 23.24786460679403 15.368759317686614 0 0 0
1468 0 2 1 21.17263523870176 23.36450322955337 14.93928728884243 0 0 0
320 0 1 -1 24.871767378021218 23.283917945712993 14.88464431584152 -1 0 0
27 0 2 1 2.8681983907013273 0.6821397959368622 18.268631394384165 0 0 0
415 0 1 -1 6.303912181723795 0.4867259195459538 18.640054547895616 0 0 0
793 0 3 1 11.671334541460254 0.27141572264244607 17.37246473314484 0 0 0
1088 0 1 -1 14.207379715147805 -0.3031538944120208 17.20092866165055 0 1 0
1185 0 3 1 16.215281495080042 1.2304245437742023 16.30819363861304 0 0 0
1183 0 1 -1 19.297842068466636 0.7073188191623117 17.764606766708805 0 0 0
1179 0 2 1 22.463814061890034 1.1727041893538084 18.57530821176273 0 0 0
31 0 1 -1 25.311151232134485 0.3699930462512493 18.196653439732327 -1 0 0
30 0 1 -1 2.2187113947234107 3.5133569423054376 18.079552910695078 0 0 0
410 0 3 1 6.031853625387739 4.360206306503092 17.736945111406506 0 0 0
414 0 1 -1 8.215217724147537 4.044848083295662 18.643377027948596 0 0 0
804 0 2 1 13.112798225989902 3.7635797187079394 18.213904474266894 0 0 0
798 0 1 -1 16.193481793641396 3.2030291643554385 17.61634280058819 0 0 0
891 0 2 1 19.379967295694208 3.9277647757362164 17.414956510036266 0 0 0
1182 0 1 -1 22.259525105662547 3.998659111445365 17.910154544320115 0 0 0
26 0 2 1 25.437584962018192 4.337526323245389 17.805482064029814 -1 0 0
123 0 2 1 2.593988314416006 7.1128752189070275 18.118260095253344 0 0 0
127 0 1 -1 -0.5475325941614438 7.259025392909675 17.73919249909194 0 0 0
511 0 1 -1 5.5799158833937055 6.90108332596003 18.436994015626052 0 0 0
507 0 2 1 9.256819310754803 6.945256118522165 18.529664878870694 0 0 0
895 0 1 -1 12.174083655824225 6.491588051967895 17.560395127371482 0 0 0
1279 0 1 -1 18.9602386369057 6.956292118661983 17.418228173783255 0 0 0
1275 0 2 1 22.539686400469144 7.484364761553069 17.781786059975644 0 0 0
126 0 1 -1 2.5449761674992506 10.075966047485693 18.35734708497744 0 0 0