LAMMPS (2 Aug 2023)
OMP_NUM_THREADS environment is not set. Defaulting to 1 thread. (src/comm.cpp:98)
  using 1 OpenMP thread(s) per MPI task
units          metal
atom_style     full

read_data      initial-solid.data
Reading data file ...
  orthogonal box = (0 0 0) to (100.53988 25.13497 50.269941)
  1 by 1 by 1 MPI processor grid
  reading atoms ...
  4096 atoms
Finding 1-2 1-3 1-4 neighbors ...
  special bond factors lj:    0        0        0       
  special bond factors coul:  0        0        0       
     0 = max # of 1-2 neighbors
     0 = max # of 1-3 neighbors
     0 = max # of 1-4 neighbors
     1 = max # of special neighbors
  special bonds CPU = 0.002 seconds
  read_data CPU = 0.079 seconds
velocity       all create 300.0 1312343 dist gaussian

pair_style     chgnet/gpu /ocean/projects/cts180021p/wuziqi/clease/lammps-ASC/potentials/CHGNET
pair_coeff     * * /ocean/projects/cts180021p/wuziqi/chgnet/fine-tunning2/04-12-2024/epoch999_e52_f152_s406_mNA.pth.tar Cl K

variable myZlo equal zlo
variable myZhi equal zhi
variable myMid equal (${myZlo}+${myZhi})/2
variable myMid equal (0+${myZhi})/2
variable myMid equal (0+50.2699408000354)/2

region   solid block INF INF INF INF ${myZlo} ${myMid}
region   solid block INF INF INF INF 0 ${myMid}
region   solid block INF INF INF INF 0 25.1349704000177
region   liquid block INF INF INF INF ${myMid} ${myZhi}
region   liquid block INF INF INF INF 25.1349704000177 ${myZhi}
region   liquid block INF INF INF INF 25.1349704000177 50.2699408000354
group    gSolid region solid
2048 atoms in group gSolid
group    gLiquid region liquid
2048 atoms in group gLiquid

neighbor        0.3 bin
neigh_modify    delay 10

timestep        0.0005
compute msd all msd
thermo_style    custom step temp pe etotal press vol c_msd[4]
thermo          10
dump            1 all custom 10 xyz-npt.dump type id x y z
#dump           2 all custom 10 force-npt.dump type id fx fy fz

fix             1 all npt temp 300.0 300.0 $(100.0*dt) aniso 1.01325 1.01325 $(1000.0*dt)
fix             1 all npt temp 300.0 300.0 0.050000000000000002776 aniso 1.01325 1.01325 $(1000.0*dt)
fix             1 all npt temp 300.0 300.0 0.050000000000000002776 aniso 1.01325 1.01325 0.5
run             10000
Neighbor list info ...
  update: every = 1 steps, delay = 10 steps, check = yes
  max neighbors/atom: 2000, page size: 100000
  master list distance cutoff = 6.3
  ghost atom cutoff = 6.3
  binsize = 3.15, bins = 32 8 16
  1 neighbor lists, perpetual/occasional/extra = 1 0 0
  (1) pair chgnet/gpu, perpetual
      attributes: full, newton on
      pair build: full/bin
      stencil: full/bin/3d
      bin: standard
Per MPI rank memory allocation (min/avg/max) = 7.242 | 7.242 | 7.242 Mbytes
   Step          Temp          PotEng         TotEng         Press          Volume        c_msd[4]   
         0   300           -15204.41      -15045.614      10035.548      127035.51      0            
        10   296.04201     -15203.148     -15046.447      9948.1259      127178.69      0.00066157222
        20   284.25553     -15199.482     -15049.02       9679.7766      127605.76      0.0044856964 
        30   266.29768     -15193.812     -15052.855      8944.4372      128300.62      0.016598811  
        40   244.2306      -15186.381     -15057.105      7799.5035      129209.27      0.043416081  
        50   219.89005     -15177.151     -15060.759      6483.0873      130230.19      0.08835528   
        60   194.70997     -15166.348     -15063.284      5242.2556      131243.54      0.14846299   
        70   169.61248     -15154.641     -15064.861      4212.8739      132163.89      0.21649826   
        80   145.69555     -15142.876     -15065.756      3396.8745      132966.07      0.28627898   
        90   124.30201     -15131.889     -15066.093      2730.3688      133666.65      0.35512826   
       100   106.35596     -15122.309     -15066.012      2144.9365      134292.63      0.42268434   
       110   92.348576     -15114.559     -15065.677      1594.415       134863.65      0.48905335   
       120   82.550018     -15108.846     -15065.15       1056.9666      135388.53      0.55386318   
       130   76.987935     -15105.203     -15064.452      527.36118      135867.74      0.61609824   
       140   75.412112     -15103.501     -15063.584      10.088171      136297.02      0.67427079   
       150   77.356243     -15103.492     -15062.546     -480.87804      136670.24      0.72667675   
       160   82.212993     -15104.858     -15061.341     -932.89205      136981.27      0.77165231   
       170   89.284221     -15107.264     -15060.004     -1337.2906      137225.1       0.80776702   
       180   97.832416     -15110.334     -15058.549     -1682.7379      137398.19      0.83393611   
       190   107.10181     -15113.702     -15057.011     -1963.8328      137498.61      0.84949089   
       200   116.40383     -15117.022     -15055.408     -2169.172       137526.08      0.85420731   
       210   125.14092     -15120.021     -15053.782     -2300.1063      137482.1       0.84831082   
       220   132.85039     -15122.461     -15052.141     -2335.8086      137369.96      0.83247183   
       230   139.29532     -15124.226     -15050.494     -2263.4368      137195.39      0.80786358   
       240   144.42117     -15125.272     -15048.827     -2085.9104      136967.05      0.77616668   
       250   148.29225     -15125.625     -15047.131     -1817.0471      136696.36      0.7394448    
       260   151.05124     -15125.305     -15045.35      -1472.1571      136396.95      0.69996605   
       270   152.92754     -15124.43      -15043.482     -1072.7597      136083.78      0.6599987    
       280   154.21668     -15123.138     -15041.508     -637.95261      135772.02      0.62159142   
       290   155.23915     -15121.587     -15039.416     -189.30813      135476.03      0.5864357    
       300   156.28121     -15119.947     -15037.224      250.53704      135208.49      0.55579511   
       310   157.60584     -15118.36      -15034.936      654.54361      134979.71      0.53051063   
       320   159.42769     -15116.983     -15032.595      1012.0065      134797.31      0.51104246   
       330   161.88281     -15115.906     -15030.218      1305.9681      134666.3       0.49758151   
       340   165.02228     -15115.182     -15027.832      1526.1888      134589.31      0.49012493   
       350   168.8085      -15114.786     -15025.432      1674.3468      134566.71      0.48854201   
       360   173.12899     -15114.693     -15023.053      1749.4741      134597.09      0.49263428   
       370   177.85267     -15114.808     -15020.667      1743.6978      134677.32      0.50214468   
       380   182.8119      -15115.053     -15018.287      1670.3169      134802.55      0.51671014   
       390   187.82367     -15115.299     -15015.88       1534.0988      134966.45      0.53584792   
       400   192.75548     -15115.478     -15013.448      1346.2257      135161.43      0.55893203   
       410   197.49505     -15115.504     -15010.966      1114.3046      135378.87      0.58518765   
       420   201.95922     -15115.329     -15008.428      855.15869      135609.51      0.61369128   
       430   206.10089     -15114.907     -15005.814      586.45832      135843.93      0.64338932   
       440   209.92957     -15114.268     -15003.148      320.89793      136073.28      0.67318096   
       450   213.47415     -15113.426     -15000.43       76.631837      136289.68      0.70200254   
       460   216.80026     -15112.408     -14997.651     -146.12967      136486.7       0.72889046   
       470   219.95593     -15111.28      -14994.853     -337.84992      136659.34      0.75301544   
       480   222.98301     -15110.057     -14992.027     -486.80369      136804.16      0.77373718   
       490   225.93022     -15108.787     -14989.198     -598.48012      136919.36      0.79064538   
       500   228.79753     -15107.461     -14986.354     -668.42163      137004.51      0.80354462   
       510   231.5447      -15106.079     -14983.518     -693.74004      137060.47      0.8124464    
       520   234.14683     -15104.637     -14980.698     -676.71915      137089.31      0.81757052   
       530   236.54011     -15103.095     -14977.889     -624.06184      137094.12      0.819325     
       540   238.67789     -15101.428     -14975.091     -540.22447      137078.79      0.81823537   
       550   240.52786     -15099.613     -14972.297     -440.80352      137047.7       0.81491016   
       560   242.08871     -15097.66      -14969.518     -321.5604       137005.35      0.81000663   
       570   243.37191     -15095.562     -14966.74      -187.84821      136956.43      0.80420511   
       580   244.40431     -15093.334     -14963.966     -49.476333      136905.63      0.7981734    
       590   245.21803     -15090.99      -14961.191      87.521288      136857.43      0.79252119   
       600   245.8622      -15088.563     -14958.424      218.68626      136815.88      0.78778777   
       610   246.44211     -15086.098     -14955.651      336.72654      136784.53      0.78443017   
       620   247.07499     -15083.674     -14952.892      437.91707      136766.26      0.7828084    
       630   247.88253     -15081.35      -14950.14       517.72257      136763.24      0.78319098   
       640   248.94904     -15079.16      -14947.386      571.46206      136776.84      0.78575418   
       650   250.2933      -15077.135     -14944.649      597.50071      136807.55      0.79056733   
       660   251.90772     -15075.25      -14941.91       598.50853      136855         0.7976034    
       670   253.77486     -15073.509     -14939.181      577.27402      136918.1       0.80674857   
       680   255.8491      -15071.877     -14936.451      533.65753      136995.12      0.81781652   
       690   258.08514     -15070.354     -14933.745      473.25403      137083.8       0.83055529   
       700   260.4236      -15068.891     -14931.043      397.82818      137181.47      0.84464042   
       710   262.79571     -15067.455     -14928.352      311.58704      137285.14      0.85967746   
       720   265.13785     -15066.018     -14925.675      225.85918      137391.73      0.87523945   
       730   267.40126     -15064.55      -14923.009      143.71918      137498.31      0.8909251    
       740   269.55665     -15063.055     -14920.373      57.178238      137602.24      0.90635513   
       750   271.59693     -15061.511     -14917.749     -20.863043      137700.99      0.92115584   
       760   273.55785     -15059.962     -14915.162     -85.270904      137792.41      0.93498277   
       770   275.46973     -15058.407     -14912.596     -136.72677      137874.95      0.94756966   
       780   277.35777     -15056.875     -14910.064     -177.10824      137947.55      0.95873086   
       790   279.23794     -15055.383     -14907.577     -203.89436      138009.59      0.96835418   
       800   281.08946     -15053.907     -14905.121     -216.90007      138060.93      0.97640112   
       810   282.86667     -15052.432     -14902.705     -216.9715       138101.88      0.98290962   
       820   284.54667     -15050.946     -14900.33      -198.305        138133.16      0.9879635    
       830   286.12513     -15049.457     -14898.005     -164.24018      138156         0.99172626   
       840   287.60448     -15047.964     -14895.729     -123.81957      138172.04      0.99442771   
       850   289.00757     -15046.481     -14893.504     -74.067045      138183.06      0.99632518   
       860   290.35838     -15045.016     -14891.323     -25.192946      138190.95      0.99769102   
       870   291.65484     -15043.578     -14889.199      20.428943      138197.53      0.99877709   
       880   292.91755     -15042.168     -14887.121      64.345761      138204.36      0.99980933   
       890   294.14494     -15040.798     -14885.101      103.43984      138212.86      1.001006     
       900   295.40842     -15039.49      -14883.125      138.65951      138224.22      1.002562     
       910   296.75423     -15038.291     -14881.213      170.69497      138239.46      1.0046468    
       920   298.22034     -15037.223     -14879.369      190.04306      138259.37      1.0074245    
       930   299.85743     -15036.299     -14877.578      189.47062      138284.34      1.0110073    
       940   301.7013      -15035.557     -14875.86       178.62583      138314.11      1.0153991    
       950   303.76614     -15035.015     -14874.225      155.11333      138348.05      1.0205385    
       960   306.04321     -15034.658     -14872.663      127.32762      138385.22      1.0263385    
       970   308.49832     -15034.51      -14871.215      87.134465      138424.52      1.0327008    
       980   311.02905     -15034.517     -14869.883      40.857653      138464.56      1.0394968    
       990   313.51634     -15034.639     -14868.688     -5.7812609      138503.83      1.0465803    
      1000   315.8324      -15034.83      -14867.654     -51.501367      138540.83      1.0537966    
      1010   317.82616     -15035.035     -14866.803     -102.229        138574.15      1.0609762    
      1020   319.34257     -15035.183     -14866.148     -150.85158      138602.37      1.0678809    
      1030   320.26723     -15035.233     -14865.709     -187.36259      138624.18      1.0742732    
      1040   320.54134     -15035.172     -14865.503     -213.08289      138638.71      1.0799619    
      1050   320.15965     -15034.996     -14865.529     -225.44144      138645.49      1.0847823    
      1060   319.17206     -15034.725     -14865.78      -226.834        138644.46      1.0886222    
      1070   317.69696     -15034.404     -14866.241     -216.94949      138635.97      1.0914351    
      1080   315.87727     -15034.106     -14866.906     -191.50674      138620.71      1.0932351    
      1090   313.85093     -15033.861     -14867.734     -160.16169      138599.83      1.094092     
      1100   311.74391     -15033.714     -14868.701     -119.908        138574.66      1.0940891    
      1110   309.68745     -15033.697     -14869.773     -75.456625      138546.69      1.0933187    
      1120   307.75882     -15033.832     -14870.929     -32.224542      138517.5       1.0918771    
      1130   306.00481     -15034.113     -14872.139      12.750666      138488.58      1.0898662    
      1140   304.4522      -15034.533     -14873.38       56.136888      138461.37      1.0874044    
      1150   303.102       -15035.072     -14874.634      91.827564      138437.21      1.0846236    
      1160   301.96678     -15035.719     -14875.882      117.71956      138417.15      1.0816164    
      1170   301.03474     -15036.479     -14877.136      135.78001      138401.82      1.0784489    
      1180   300.28555     -15037.312     -14878.365      146.28501      138391.62      1.0751828    
      1190   299.65868     -15038.178     -14879.562      145.07866      138386.65      1.0718812    
      1200   299.12654     -15039.061     -14880.727      133.33485      138386.66      1.0685602    
      1210   298.66062     -15039.953     -14881.866      109.18214      138391.03      1.0651948    
      1220   298.27748     -15040.847     -14882.962      79.785372      138398.8       1.0617433    
      1230   298.00115     -15041.769     -14884.03       47.307212      138408.84      1.0581654    
      1240   297.87678     -15042.722     -14885.049      6.9291206      138419.99      1.0544219    
      1250   297.92277     -15043.734     -14886.038     -38.542238      138430.89      1.0504416    
      1260   298.15847     -15044.809     -14886.987     -86.751907      138440.03      1.0461603    
      1270   298.60954     -15045.97      -14887.91      -138.09217      138445.88      1.0415084    
      1280   299.27147     -15047.214     -14888.803     -184.52996      138446.91      1.0363953    
      1290   300.14167     -15048.553     -14889.682     -232.15043      138441.74      1.0307322    
      1300   301.19619     -15049.987     -14890.558     -274.58611      138429.04      1.0244362    
      1310   302.35725     -15051.486     -14891.443     -304.48209      138407.74      1.0174658    
      1320   303.53714     -15053.017     -14892.348     -326.8586       138377.15      1.0098143    
      1330   304.65025     -15054.543     -14893.285     -339.00746      138336.91      1.0015146    
      1340   305.57643     -15056.017     -14894.269     -339.88734      138286.99      0.99265266   
      1350   306.21766     -15057.393     -14895.305     -325.85765      138227.75      0.98333785   
      1360   306.46792     -15058.615     -14896.396     -297.72487      138160         0.97373374   
      1370   306.25845     -15059.641     -14897.532     -256.1233       138085.04      0.96404654   
      1380   305.51899     -15060.435     -14898.717     -198.25492      138004.53      0.95452299   
      1390   304.25116     -15060.97      -14899.923     -129.91069      137920.58      0.94544487   
      1400   302.51673     -15061.273     -14901.145     -51.533483      137835.63      0.93710071   
      1410   300.38479     -15061.359     -14902.36       33.706118      137752.28      0.92977622   
      1420   297.93712     -15061.232     -14903.528      126.07957      137673.3       0.92374849   
      1430   295.28597     -15060.95      -14904.649      219.89688      137601.54      0.919291     
      1440   292.57075     -15060.538     -14905.674      307.15679      137539.77      0.91666818   
      1450   289.92712     -15060.076     -14906.612      377.91511      137490.4       0.91610968   
      1460   287.50528     -15059.604     -14907.422      435.0222       137455.3       0.91775464   
      1470   285.40039     -15059.165     -14908.097      473.41213      137435.73      0.9216526    
      1480   283.6974      -15058.791     -14908.624      490.14858      137432.32      0.9277746    
      1490   282.44858     -15058.485     -14908.98       495.22657      137445.06      0.93601416   
      1500   281.68533     -15058.274     -14909.173      479.63301      137473.49      0.94622123   
      1510   281.4124      -15058.14      -14909.182      437.85068      137516.47      0.95815675   
      1520   281.62841     -15058.086     -14909.014      386.93351      137572.2       0.97147807   
      1530   282.32413     -15058.1       -14908.66       313.89658      137638.48      0.98577416   
      1540   283.4604      -15058.165     -14908.124      229.47716      137712.58      1.0005592    
      1550   284.95718     -15058.255     -14907.421      137.74108      137791.46      1.0153041    
      1560   286.72349     -15058.34      -14906.571      48.161277      137871.96      1.029491     
      1570   288.66662     -15058.391     -14905.594     -40.530216      137951.06      1.0426279    
      1580   290.70699     -15058.37      -14904.493     -125.63269      138025.89      1.05428      
      1590   292.78223     -15058.3       -14903.324     -198.72642      138093.79      1.0640677    
      1600   294.83784     -15058.152     -14902.089     -256.61821      138152.63      1.0716986    
      1610   296.77401     -15057.922     -14900.833     -299.1269       138200.81      1.0770107    
      1620   298.4998      -15057.565     -14899.563     -329.52787      138237.32      1.0799887    
      1630   299.94092     -15057.066     -14898.302     -346.23953      138261.57      1.080712     
      1640   301.04176     -15056.416     -14897.069     -344.63659      138273.47      1.0793326    
      1650   301.79511     -15055.624     -14895.878     -323.98556      138273.55      1.0760906    
      1660   302.23087     -15054.697     -14894.72      -287.90986      138262.88      1.0713119    
      1670   302.42567     -15053.694     -14893.614     -236.98502      138243.04      1.0653792    
      1680   302.46319     -15052.655     -14892.555     -167.6417       138216.09      1.0587067    
      1690   302.45069     -15051.624     -14891.531     -90.394119      138184.51      1.0517647    
      1700   302.45873     -15050.652     -14890.555     -8.3453562      138151.04      1.0450472    
      1710   302.56408     -15049.762     -14889.608      66.286843      138118.39      1.0390037    
      1720   302.81881     -15048.998     -14888.71       130.63689      138089.01      1.0340299    
      1730   303.20791     -15048.343     -14887.849      188.96566      138064.9       1.0304436    
      1740   303.71257     -15047.78      -14887.019      241.75903      138047.83      1.0284937    
      1750   304.25736     -15047.3       -14886.25       284.52822      138039.3       1.0283648    
      1760   304.7829      -15046.858     -14885.531      312.31833      138040.42      1.0301779    
      1770   305.23934     -15046.422     -14884.852      322.26861      138051.78      1.0339621    
      1780   305.59831     -15046.014     -14884.254      318.79165      138073.39      1.0396521    
      1790   305.8265      -15045.594     -14883.714      309.60059      138104.86      1.0471218    
      1800   305.94107     -15045.178     -14883.237      283.92263      138145.54      1.0561916    
      1810   305.96218     -15044.778     -14882.826      242.27562      138194.32      1.0666207    
      1820   305.94038     -15044.42      -14882.479      188.4187       138249.6       1.0780894    
      1830   305.93117     -15044.133     -14882.197      124.96111      138309.4       1.0902363    
      1840   305.94996     -15043.928     -14881.982      47.91075       138371.47      1.1026594    
      1850   306.01136     -15043.802     -14881.824     -31.594726      138433.23      1.1149137    
      1860   306.10799     -15043.75      -14881.721     -108.16894      138492.04      1.1265758    
      1870   306.21419     -15043.771     -14881.685     -179.85945      138545.46      1.137281     
      1880   306.26482     -15043.834     -14881.722     -247.25767      138591.23      1.1467049    
      1890   306.19014     -15043.891     -14881.818     -302.2546       138627.35      1.1545484    
      1900   305.96007     -15043.929     -14881.978     -342.23847      138652.28      1.160572     
      1910   305.57512     -15043.959     -14882.212     -369.91233      138665.02      1.1646356    
      1920   305.0597      -15043.98      -14882.506     -382.05201      138665         1.1667068    
      1930   304.45524     -15044.014     -14882.859     -375.76294      138652.22      1.1668176    
      1940   303.81651     -15044.067     -14883.251     -356.1559       138627.24      1.165064     
      1950   303.15669     -15044.162     -14883.695     -324.35754      138591.1       1.1615797    
      1960   302.45359     -15044.264     -14884.169     -283.331        138545.16      1.1565404    
      1970   301.69159     -15044.363     -14884.672     -232.99712      138491.06      1.150152     
      1980   300.90256     -15044.458     -14885.184     -168.17817      138430.78      1.1426573    
      1990   300.11837     -15044.561     -14885.702     -99.111342      138366.64      1.1343522    
      2000   299.39093     -15044.69      -14886.217     -31.763953      138301.02      1.1255539    
      2010   298.75954     -15044.855     -14886.716      33.56006       138236.21      1.116555     
      2020   298.25279     -15045.071     -14887.2        91.673873      138174.36      1.1076089    
      2030   297.87147     -15045.332     -14887.663      141.51134      138117.29      1.0989286    
      2040   297.60786     -15045.631     -14888.101      184.04797      138066.53      1.0906712    
      2050   297.4727      -15045.971     -14888.512      213.47589      138023.27      1.0829757    
      2060   297.46709     -15046.359     -14888.904      228.7146       137988.25      1.0759272    
      2070   297.58418     -15046.781     -14889.264      232.93551      137961.75      1.0695711    
      2080   297.83199     -15047.244     -14889.596      231.57294      137943.69      1.0639499    
      2090   298.19088     -15047.748     -14889.91       224.37139      137933.76      1.0591123    
      2100   298.62394     -15048.281     -14890.214      204.29177      137931.48      1.055113     
      2110   299.12444     -15048.818     -14890.486      176.45538      137935.98      1.0519475    
      2120   299.69187     -15049.392     -14890.759      146.27741      137946.18      1.0495853    
      2130   300.34367     -15050.009     -14891.031      116.06547      137960.94      1.0479895    
      2140   301.03944     -15050.65      -14891.304      83.779001      137979.12      1.047122     
      2150   301.74409     -15051.317     -14891.598      53.804571      137999.61      1.0469227    
      2160   302.35579     -15051.944     -14891.901      17.838998      138021.3       1.0473057    
      2170   302.77923     -15052.494     -14892.227     -14.171774      138043.04      1.0481643    
      2180   302.94724     -15052.946     -14892.59      -43.88553       138063.74      1.0493754    
      2190   302.81519     -15053.262     -14892.975     -69.604755      138082.44      1.0508041    
      2200   302.34843     -15053.441     -14893.402     -83.492226      138098.37      1.0523443    
      2210   301.52696     -15053.45      -14893.846     -87.361862      138111.13      1.0539415    
      2220   300.37541     -15053.282     -14894.287     -86.29404       138120.68      1.0555416    
      2230   298.95448     -15052.992     -14894.75      -77.762384      138127.14      1.0570819    
      2240   297.365       -15052.598     -14895.196     -58.038669      138130.87      1.0585191    
      2250   295.72086     -15052.143     -14895.612     -37.884024      138132.56      1.0598541    
      2260   294.10986     -15051.652     -14895.974     -20.226066      138132.9       1.0611062    
      2270   292.63696     -15051.178     -14896.279     -3.1270106      138132.52      1.0622916    
      2280   291.39384     -15050.737     -14896.497      9.2332961      138132         1.0634072    
      2290   290.45904     -15050.385     -14896.639      18.125669      138131.76      1.0644366    
      2300   289.89665     -15050.12      -14896.672      29.344755      138132.12      1.0653839    
      2310   289.74962     -15049.979     -14896.608      32.678312      138133.4       1.0662878    
      2320   290.00753     -15049.943     -14896.436      32.52545       138135.72      1.0671701    
      2330   290.5898      -15049.985     -14896.17       31.683655      138139.05      1.0680498    
      2340   291.40111     -15050.039     -14895.795      29.963235      138143.34      1.0689782    
      2350   292.37787     -15050.107     -14895.346      26.601355      138148.52      1.070026     
      2360   293.47081     -15050.145     -14894.804      23.357444      138154.45      1.0712719    
      2370   294.67128     -15050.187     -14894.211      14.976125      138161.01      1.0727811    
      2380   295.96531     -15050.208     -14893.548      5.1797186      138167.91      1.074582     
      2390   297.3472      -15050.251     -14892.859     -3.3546856      138174.83      1.0766744    
      2400   298.82861     -15050.299     -14892.123     -13.758205      138181.47      1.0790883    
      2410   300.39504     -15050.404     -14891.399     -25.650054      138187.5       1.0818468    
      2420   302.02246     -15050.538     -14890.671     -38.426752      138192.54      1.084949     
      2430   303.65084     -15050.687     -14889.958     -46.069952      138196.2       1.0883528    
      2440   305.19929     -15050.855     -14889.307     -50.721725      138198.25      1.0919908    
      2450   306.60172     -15050.988     -14888.698     -52.680441      138198.54      1.0957796    
      2460   307.7935      -15051.086     -14888.165     -51.533307      138197.05      1.099613     
      2470   308.71819     -15051.118     -14887.707     -44.509849      138193.86      1.1033768    
      2480   309.34382     -15051.098     -14887.356     -35.631674      138189.21      1.106963     
      2490   309.64437     -15050.998     -14887.097     -22.094689      138183.43      1.1102652    
      2500   309.60085     -15050.821     -14886.943     -9.1950859      138176.96      1.113206     
      2510   309.24681     -15050.582     -14886.891      0.13841219     138170.24      1.1157185    
      2520   308.63619     -15050.314     -14886.947      3.4782668      138163.61      1.1177091    
      2530   307.81976     -15050.033     -14887.098      9.3122667      138157.19      1.1190652    
      2540   306.82699     -15049.743     -14887.333      17.072498      138151.15      1.1197119    
      2550   305.69937     -15049.445     -14887.632      17.917318      138145.73      1.119618     
      2560   304.45963     -15049.154     -14887.998      23.858564      138141.01      1.1187611    
      2570   303.16475     -15048.886     -14888.414      29.236506      138137.13      1.1171587    
      2580   301.84005     -15048.631     -14888.861      37.142831      138134.27      1.1148585    
      2590   300.48106     -15048.372     -14889.321      37.964078      138132.65      1.1119307    
      2600   299.09625     -15048.101     -14889.783      33.853579      138132.29      1.1084225    
      2610   297.69101     -15047.81      -14890.236      32.650501      138133.07      1.1043696    
      2620   296.28934     -15047.49      -14890.658      26.591405      138134.89      1.0998034    
      2630   294.90082     -15047.146     -14891.049      24.645098      138137.55      1.0947455    
      2640   293.55864     -15046.764     -14891.377      24.70333       138140.99      1.0892512    
      2650   292.3216      -15046.363     -14891.632      27.287109      138145.21      1.0833916    
      2660   291.29766     -15045.996     -14891.806      31.006363      138150.25      1.0772402    
      2670   290.55981     -15045.699     -14891.9        33.349354      138156.24      1.0708987    
      2680   290.16238     -15045.484     -14891.896      36.944082      138163.26      1.064487     
      2690   290.14254     -15045.365     -14891.787      34.076665      138171.38      1.0581173    
      2700   290.51063     -15045.353     -14891.579      34.705349      138180.54      1.0519031    
      2710   291.26017     -15045.438     -14891.269      32.643985      138190.74      1.0459822    
      2720   292.3458      -15045.613     -14890.869      29.410004      138201.89      1.0404843    
      2730   293.70002     -15045.85      -14890.388      28.498383      138213.89      1.0355304    
      2740   295.29305     -15046.142     -14889.837      25.363407      138226.68      1.0312652    
      2750   297.08795     -15046.497     -14889.242      21.346695      138240.14      1.0278292    
      2760   299.0151      -15046.883     -14888.608      11.907144      138254.11      1.0253309    
      2770   300.98056     -15047.289     -14887.974      1.2998862      138268.29      1.023844     
      2780   302.88227     -15047.665     -14887.343     -8.017182       138282.35      1.0234274    
      2790   304.63108     -15047.998     -14886.751     -17.734492      138295.95      1.0241422    
      2800   306.16277     -15048.271     -14886.213     -30.43166       138308.76      1.026017     
      2810   307.41312     -15048.442     -14885.722     -40.740473      138320.39      1.0290593    
      2820   308.39428     -15048.57      -14885.331     -49.161541      138330.5       1.0332528    
      2830   309.10464     -15048.648     -14885.033     -60.510014      138338.84      1.0385491    
      2840   309.55483     -15048.681     -14884.827     -72.588148      138345.04      1.0448575    
      2850   309.7322      -15048.675     -14884.727     -84.664977      138348.69      1.0520568    
      2860   309.65678     -15048.639     -14884.731     -93.470652      138349.45      1.0599892    
      2870   309.34259     -15048.591     -14884.85      -98.479276      138347.04      1.0684958    
      2880   308.81481     -15048.531     -14885.069     -94.621807      138341.36      1.0774081    
      2890   308.08279     -15048.449     -14885.375     -87.517873      138332.54      1.0865562    
      2900   307.10254     -15048.321     -14885.766     -76.557219      138320.83      1.095781     
      2910   305.9177      -15048.156     -14886.228     -70.928375      138306.6       1.1049441    
      2920   304.61407     -15047.992     -14886.754     -61.54177       138290.12      1.1138555    
      2930   303.21202     -15047.822     -14887.326     -51.405672      138271.71      1.1223186    
      2940   301.77701     -15047.653     -14887.917     -40.298736      138251.72      1.1301448    
      2950   300.34056     -15047.492     -14888.516     -23.053449      138230.57      1.13713      
      2960   298.93665     -15047.35      -14889.116     -4.3065556      138208.84      1.1430931    
      2970   297.6017      -15047.234     -14889.708      21.564833      138187.21      1.147879     
      2980   296.36298     -15047.126     -14890.255      44.999294      138166.47      1.1513977    
      2990   295.26343     -15047.049     -14890.76       62.832766      138147.41      1.153588     
      3000   294.32856     -15047.018     -14891.223      77.126584      138130.62      1.1544141    
      3010   293.57098     -15047.012     -14891.619      89.164258      138116.56      1.1538687    
      3020   292.99747     -15047.039     -14891.95       103.5068       138105.6       1.1519637    
      3030   292.64129     -15047.119     -14892.218      113.46717      138098.16      1.1487609    
      3040   292.50495     -15047.245     -14892.416      116.67211      138094.56      1.1443539    
      3050   292.62991     -15047.419     -14892.524      114.60874      138094.87      1.1388259    
      3060   293.0462      -15047.689     -14892.574      108.10307      138098.97      1.1322606    
      3070   293.72116     -15048.015     -14892.542      99.627518      138106.64      1.1247495    
      3080   294.63051     -15048.402     -14892.448      82.752741      138117.52      1.1164113    
      3090   295.72048     -15048.834     -14892.303      65.392716      138131.06      1.1073545    
      3100   296.91851     -15049.271     -14892.106      43.586005      138146.64      1.0976892    
      3110   298.16748     -15049.694     -14891.868      26.869805      138163.54      1.0875547    
      3120   299.42996     -15050.113     -14891.619      2.9611467      138181.12      1.0771261    
      3130   300.67301     -15050.503     -14891.351     -22.661317      138198.6       1.0665672    
      3140   301.83317     -15050.854     -14891.087     -41.0585        138215.15      1.056027     
      3150   302.8826      -15051.174     -14890.852     -55.42301       138230.14      1.0456875    
      3160   303.81748     -15051.45      -14890.633     -72.423061      138243.09      1.0357438    
      3170   304.6074      -15051.688     -14890.453     -87.459484      138253.46      1.0263731    
      3180   305.21547     -15051.877     -14890.32      -98.286676      138260.77      1.0177338    
      3190   305.60543     -15052.015     -14890.251     -102.4569       138264.67      1.0099773    
      3200   305.76446     -15052.082     -14890.235     -103.19712      138265.07      1.0032595    
      3210   305.67347     -15052.085     -14890.286     -98.379179      138261.98      0.99771734   
      3220   305.28981     -15051.996     -14890.4       -89.377199      138255.6       0.99349457   
      3230   304.62298     -15051.82      -14890.577     -71.765283      138246.28      0.99073128   
      3240   303.7166      -15051.565     -14890.802     -51.921559      138234.61      0.98955211   
      3250   302.60479     -15051.248     -14891.073     -25.883444      138221.31      0.99005493   
      3260   301.3722      -15050.889     -14891.366      1.1205877      138207.22      0.99230757   
      3270   300.13044     -15050.54      -14891.675      27.253322      138193.28      0.99633892   
      3280   298.97852     -15050.237     -14891.982      45.524811      138180.36      1.0021312    
      3290   297.97077     -15050.005     -14892.283      62.259788      138169.08      1.0096011    
      3300   297.14425     -15049.835     -14892.55       76.673689      138159.98      1.0186229    
      3310   296.49728     -15049.74      -14892.798      86.916414      138153.51      1.0290193    
      3320   296.00999     -15049.686     -14893.001      92.108235      138150         1.0405538    
      3330   295.69835     -15049.679     -14893.16       89.168656      138149.56      1.052934     
      3340   295.5829      -15049.723     -14893.265      87.539069      138152.09      1.0658156    
      3350   295.64196     -15049.821     -14893.332      83.451492      138157.49      1.0788685    
      3360   295.85537     -15049.944     -14893.342      76.307165      138165.59      1.0917698    
      3370   296.2325      -15050.123     -14893.321      59.35101       138176.11      1.1041818    
      3380   296.78187     -15050.348     -14893.255      35.545476      138188.46      1.1157461    
      3390   297.49998     -15050.631     -14893.158      3.9895552      138201.78      1.1260974    
      3400   298.38081     -15050.972     -14893.033     -22.97982       138215.06      1.1348868    
      3410   299.35436     -15051.338     -14892.884     -48.449538      138227.37      1.1418515    
      3420   300.32774     -15051.717     -14892.747     -76.339882      138237.87      1.1467943    
      3430   301.19717     -15052.036     -14892.606     -100.06076      138245.67      1.1495665    
      3440   301.83696     -15052.242     -14892.474     -112.57884      138250.03      1.1501071    
      3450   302.17051     -15052.317     -14892.372     -116.13262      138250.56      1.1484564    
      3460   302.17144     -15052.226     -14892.28      -115.85744      138247.16      1.1447453    
      3470   301.86234     -15051.997     -14892.215     -109.51386      138239.93      1.1391633    
      3480   301.28883     -15051.658     -14892.18      -96.608436      138229.09      1.1319498    
      3490   300.53109     -15051.215     -14892.138     -71.400156      138215.16      1.1233973    
      3500   299.70033     -15050.755     -14892.117     -44.175506      138198.97      1.1138642    
      3510   298.91998     -15050.314     -14892.09      -14.258864      138181.48      1.10373      
      3520   298.26284     -15049.915     -14892.038      16.808658      138163.69      1.0933787    
      3530   297.8123      -15049.621     -14891.983      40.841461      138146.64      1.0831721    
      3540   297.64102     -15049.441     -14891.894      58.903061      138131.11      1.0734042    
      3550   297.78009     -15049.409     -14891.788      76.04125       138117.72      1.0643047    
      3560   298.15864     -15049.464     -14891.642      90.946524      138107.01      1.0560602    
      3570   298.69089     -15049.598     -14891.495      99.260082      138099.42      1.0488136    
      3580   299.30969     -15049.762     -14891.331      99.028411      138095.19      1.0426247    
      3590   299.92688     -15049.91      -14891.153      100.72301      138094.32      1.0375148    
      3600   300.49225     -15050.038     -14890.981      103.41874      138096.82      1.0335223    
      3610   300.95361     -15050.112     -14890.811      100.07297      138102.73      1.0306772    
      3620   301.29055     -15050.133     -14890.654      90.743983      138111.89      1.0289587    
      3630   301.51021     -15050.105     -14890.51       75.441652      138123.97      1.0283039    
      3640   301.61767     -15050.028     -14890.376      60.988477      138138.45      1.028611     
      3650   301.65611     -15049.95      -14890.277      40.022854      138154.77      1.0297679    
      3660   301.65999     -15049.846     -14890.171      20.136827      138172.26      1.0316519    
      3670   301.63924     -15049.762     -14890.098     -0.88672487     138190.21      1.0341641    
      3680   301.57389     -15049.672     -14890.043     -19.972913      138207.95      1.0372028    
      3690   301.43736     -15049.557     -14890         -35.947799      138224.84      1.040668     
      3700   301.22035     -15049.412     -14889.97      -40.919386      138240.38      1.044501     
      3710   300.95834     -15049.254     -14889.951     -46.420554      138254.37      1.0487109    
      3720   300.71088     -15049.121     -14889.949     -49.890217      138266.66      1.0532984    
      3730   300.53478     -15049.031     -14889.952     -53.125419      138277.12      1.0582546    
      3740   300.47003     -15049.001     -14889.956     -55.442257      138285.69      1.0635618    
      3750   300.5022      -15049.028     -14889.966     -55.769519      138292.29      1.0691904    
      3760   300.59105     -15049.093     -14889.984     -60.084737      138296.91      1.075085     
      3770   300.68084     -15049.161     -14890.005     -58.791235      138299.47      1.0811572    
      3780   300.76196     -15049.234     -14890.035     -54.321192      138300.01      1.0873378    
      3790   300.82464     -15049.303     -14890.07      -49.368249      138298.68      1.0935723    
      3800   300.87553     -15049.379     -14890.119     -45.588921      138295.67      1.0998102    
      3810   300.93003     -15049.467     -14890.178     -39.598406      138291.14      1.1059976    
      3820   300.95775     -15049.553     -14890.25      -36.376835      138285.27      1.1120486    
      3830   300.89612     -15049.596     -14890.325     -28.555262      138278.2       1.1178561    
      3840   300.75204     -15049.61      -14890.416     -28.869219      138270.17      1.1233178    
      3850   300.55995     -15049.6       -14890.507     -22.023561      138261.25      1.1283068    
      3860   300.33361     -15049.588     -14890.615     -16.589142      138251.6       1.1327291    
      3870   300.10467     -15049.575     -14890.724     -6.0304318      138241.47      1.1365015    
      3880   299.90729     -15049.579     -14890.832      4.5991558      138231.18      1.1395347    
      3890   299.77052     -15049.607     -14890.933      14.298797      138221.09      1.1417559    
      3900   299.69799     -15049.678     -14891.042      23.076996      138211.52      1.1431027    
      3910   299.69019     -15049.777     -14891.145      29.586688      138202.77      1.1435207    
      3920   299.76605     -15049.914     -14891.242      33.59183       138195.05      1.1429727    
      3930   299.97731     -15050.115     -14891.331      31.550747      138188.46      1.1414377    
      3940   300.32205     -15050.395     -14891.428      22.485318      138182.93      1.1388692    
      3950   300.75643     -15050.729     -14891.532      11.700334      138178.17      1.1352175    
      3960   301.21026     -15051.074     -14891.638      5.6739154      138173.85      1.1304575    
      3970   301.61039     -15051.404     -14891.756      0.21273534     138169.72      1.1246207    
      3980   301.90865     -15051.706     -14891.9       -7.6292975      138165.6       1.1177834    
      3990   302.04919     -15051.942     -14892.062     -13.764529      138161.23      1.1100365    
      4000   302.0024      -15052.083     -14892.227     -23.166533      138156.37      1.1015001    
      4010   301.73254     -15052.148     -14892.435     -26.438137      138150.77      1.0923201    
      4020   301.18553     -15052.08      -14892.656     -24.677305      138144.35      1.0827081    
      4030   300.36165     -15051.877     -14892.889     -22.022499      138137.12      1.0728945    
      4040   299.29865     -15051.549     -14893.124     -14.306207      138129.2       1.0631322    
      4050   298.08593     -15051.146     -14893.364     -7.0704269      138120.81      1.0536853    
      4060   296.81779     -15050.678     -14893.566      1.7950005      138112.23      1.0447872    
      4070   295.58429     -15050.194     -14893.736      16.518952      138103.77      1.0366524    
      4080   294.49325     -15049.736     -14893.855      27.595473      138095.88      1.029485     
      4090   293.60197     -15049.335     -14893.925      43.782991      138088.97      1.0234439    
      4100   292.95623     -15048.997     -14893.929      58.412431      138083.55      1.0186777    
      4110   292.60161     -15048.739     -14893.859      68.852673      138080.1       1.0152966    
      4120   292.56364     -15048.559     -14893.699      75.863121      138078.95      1.0133583    
      4130   292.85271     -15048.487     -14893.474      77.371924      138080.31      1.0128835    
      4140   293.42903     -15048.49      -14893.172      74.140352      138084.23      1.0138401    
      4150   294.22644     -15048.54      -14892.8        65.936484      138090.59      1.0161568    
      4160   295.15527     -15048.612     -14892.381      58.393042      138099.11      1.0197219    
      4170   296.12128     -15048.634     -14891.891      49.439187      138109.51      1.0244022    
      4180   297.05178     -15048.618     -14891.383      38.657885      138121.48      1.0300486    
      4190   297.88204     -15048.502     -14890.827      31.935485      138134.67      1.0364894    
      4200   298.59972     -15048.319     -14890.264      27.211282      138148.84      1.0435558    
      4210   299.16589     -15048.039     -14889.684      23.200148      138163.82      1.0510923    
      4220   299.57005     -15047.664     -14889.096      19.547092      138179.45      1.0589416    
      4230   299.82477     -15047.215     -14888.512      17.707134      138195.64      1.0669722    
      4240   299.99567     -15046.719     -14887.925      15.057245      138212.33      1.075092     
      4250   300.15091     -15046.225     -14887.349      12.859374      138229.43      1.0832102    
      4260   300.3628      -15045.764     -14886.776      8.7343683      138246.86      1.0912447    
      4270   300.7175      -15045.387     -14886.211      3.3629292      138264.49      1.0990951    
      4280   301.26628     -15045.123     -14885.657     -5.5250611      138282.11      1.1066707    
      4290   302.04673     -15044.981     -14885.102     -15.026929      138299.44      1.1138852    
      4300   303.09421     -15045.015     -14884.581     -26.486025      138316.17      1.1206498    
      4310   304.39193     -15045.223     -14884.102     -41.684596      138331.9       1.126891     
      4320   305.87585     -15045.563     -14883.657     -56.369416      138346.13      1.1325421    
      4330   307.41447     -15045.99      -14883.27      -74.877415      138358.35      1.137546     
      4340   308.86271     -15046.459     -14882.972     -96.450829      138367.96      1.1418356    
      4350   310.07593     -15046.896     -14882.767     -113.81         138374.26      1.1453201    
      4360   310.90671     -15047.238     -14882.669     -117.9354       138376.68      1.1479132    
      4370   311.26856     -15047.451     -14882.69      -116.40495      138375.1       1.1495824    
      4380   311.13519     -15047.524     -14882.834     -110.08639      138369.58      1.1503125    
      4390   310.4685      -15047.439     -14883.102     -93.305825      138360.38      1.1501301    
      4400   309.26217     -15047.181     -14883.482     -69.705058      138348.06      1.1491265    
      4410   307.57327     -15046.764     -14883.959     -42.4768        138333.43      1.1474382    
      4420   305.53731     -15046.245     -14884.518     -10.09604       138317.39      1.1451898    
      4430   303.28373     -15045.654     -14885.12       21.03549       138301.03      1.1425113    
      4440   300.99035     -15045.077     -14885.757      43.494034      138285.36      1.1395281    
      4450   298.80058     -15044.558     -14886.396      67.614975      138271.18      1.1363543    
      4460   296.83137     -15044.13      -14887.011      87.695436      138259.28      1.1331087    
      4470   295.16541     -15043.816     -14887.579      101.35516      138250.33      1.1299034    
      4480   293.8667      -15043.646     -14888.096      105.3694       138244.76      1.126821     
      4490   293.00068     -15043.635     -14888.544      96.642141      138242.69      1.1239279    
      4500   292.61028     -15043.809     -14888.924      75.610326      138243.82      1.1212402    
      4510   292.69148     -15044.151     -14889.224      48.428028      138247.48      1.1186953    
      4520   293.20394     -15044.637     -14889.438      22.034518      138252.76      1.1161929    
      4530   294.07787     -15045.259     -14889.597     -4.3756739      138258.77      1.1136216    
      4540   295.23326     -15045.96      -14889.687     -33.758086      138264.6       1.110864     
      4550   296.59446     -15046.727     -14889.733     -61.336292      138269.28      1.107787     
      4560   298.07152     -15047.521     -14889.745     -85.509622      138271.88      1.1042653    
      4570   299.55142     -15048.291     -14889.732     -102.27053      138271.58      1.100222     
      4580   300.9452      -15049.021     -14889.724     -112.08816      138267.84      1.0956273    
      4590   302.14857     -15049.641     -14889.707     -116.03977      138260.28      1.0904818    
      4600   303.08312     -15050.155     -14889.727     -110.77863      138248.79      1.0848011    
      4610   303.72883     -15050.539     -14889.769     -100.83515      138233.52      1.078664     
      4620   304.09611     -15050.822     -14889.858     -81.67101       138214.82      1.0721996    
      4630   304.24336     -15051.027     -14889.985     -56.610418      138193.3       1.0655736    
      4640   304.19875     -15051.183     -14890.164     -25.976157      138169.83      1.0589638    
      4650   303.98953     -15051.291     -14890.383      11.510921      138145.43      1.052581     
      4660   303.62784     -15051.366     -14890.65       48.311162      138121.36      1.0466829    
      4670   303.14487     -15051.412     -14890.951      82.769064      138098.81      1.0415383    
      4680   302.56997     -15051.443     -14891.287      113.82586      138078.97      1.0374133    
      4690   301.90861     -15051.452     -14891.646      140.93153      138062.88      1.0345525    
      4700   301.14946     -15051.434     -14892.029      162.06097      138051.45      1.0331592    
      4710   300.2913      -15051.371     -14892.421      176.89621      138045.41      1.033383     
      4720   299.31078     -15051.253     -14892.822      182.28363      138045.27      1.0353171    
      4730   298.22337     -15051.065     -14893.21       178.39157      138051.24      1.0389696    
      4740   297.07977     -15050.833     -14893.583      163.34371      138063.2       1.0442912    
      4750   295.95479     -15050.577     -14893.922      146.04948      138080.72      1.051179     
      4760   294.9417      -15050.342     -14894.223      117.30714      138103.21      1.0594943    
      4770   294.07851     -15050.121     -14894.459      76.881205      138129.71      1.0690266    
      4780   293.43464     -15049.955     -14894.634      35.744002      138158.93      1.0794727    
      4790   293.04269     -15049.855     -14894.742     -11.91859       138189.44      1.090489     
      4800   292.93445     -15049.825     -14894.769     -61.721076      138219.66      1.1016936    
      4810   293.10982     -15049.881     -14894.732     -112.15488      138247.89      1.1126567    
      4820   293.55121     -15050         -14894.617     -149.6616       138272.45      1.1229466    
      4830   294.23646     -15050.183     -14894.437     -184.41508      138292.01      1.1321821    
      4840   295.13556     -15050.405     -14894.184     -209.67637      138305.39      1.1400092    
      4850   296.18432     -15050.663     -14893.887     -231.56738      138311.7       1.1461483    
      4860   297.30055     -15050.917     -14893.55      -241.94735      138310.21      1.150376     
      4870   298.39959     -15051.134     -14893.185     -240.79506      138300.51      1.1525189    
      4880   299.41045     -15051.281     -14892.797     -222.94089      138282.63      1.1524833    
      4890   300.27881     -15051.362     -14892.419     -193.27756      138257.13      1.1502722    
      4900   300.94721     -15051.324     -14892.027     -149.53869      138224.99      1.1459762    
      4910   301.37021     -15051.184     -14891.662     -97.838176      138187.65      1.1397943    
      4920   301.53222     -15050.906     -14891.299     -37.964682      138146.82      1.1320089    
      4930   301.45015     -15050.516     -14890.952      20.684284      138104.49      1.1229651    
      4940   301.1655      -15050.053     -14890.64       77.055743      138062.63      1.1130235    
      4950   300.73718     -15049.517     -14890.33       134.27435      138023.14      1.1025463    
      4960   300.25121     -15048.953     -14890.024      186.55185      137987.95      1.0918923    
      4970   299.77193     -15048.403     -14889.728      232.28648      137958.83      1.0814286    
      4980   299.36492     -15047.888     -14889.428      267.48604      137937.32      1.0715341    
      4990   299.06727     -15047.435     -14889.132      296.19296      137924.7       1.0625426    
      5000   298.92949     -15047.05      -14888.82       314.42137      137921.93      1.0547473    
      5010   298.97393     -15046.752     -14888.499      318.65142      137929.69      1.0484198    
      5020   299.19747     -15046.533     -14888.162      304.0605       137948.14      1.0437668    
      5030   299.59799     -15046.41      -14887.827      277.14482      137976.89      1.040915     
      5040   300.13862     -15046.346     -14887.476      238.99757      138015.07      1.0399177    
      5050   300.78196     -15046.337     -14887.127      185.00788      138061.38      1.0407516    
      5060   301.46002     -15046.349     -14886.78       125.87847      138114.08      1.0433201    
      5070   302.1288      -15046.368     -14886.445      67.475012      138171.21      1.0474781    
      5080   302.73818     -15046.373     -14886.128      7.031946       138230.78      1.0530519    
      5090   303.23076     -15046.354     -14885.847     -56.605002      138290.72      1.0598205    
      5100   303.59348     -15046.289     -14885.591     -116.28124      138348.88      1.0675411    
      5110   303.77884     -15046.169     -14885.373     -169.24562      138403.21      1.07596      
      5120   303.78547     -15045.994     -14885.194     -208.15197      138451.95      1.0848191    
      5130   303.62211     -15045.771     -14885.058     -231.20529      138493.75      1.0939087    
      5140   303.30442     -15045.515     -14884.969     -246.75546      138527.79      1.103069     
      5150   302.87587     -15045.236     -14884.918     -257.94847      138553.51      1.1121699    
      5160   302.3998      -15044.974     -14884.907     -253.28676      138570.54      1.121092     
      5170   301.95846     -15044.749     -14884.916     -242.07601      138578.99      1.1297661    
      5180   301.61534     -15044.597     -14884.946     -226.82971      138579.21      1.138118     
      5190   301.40789     -15044.543     -14885.002     -206.30478      138571.71      1.1460441    
      5200   301.36971     -15044.592     -14885.071     -174.91243      138557.2       1.1534472    
      5210   301.52244     -15044.754     -14885.152     -144.61818      138536.68      1.1602626    
      5220   301.82437     -15045.002     -14885.24      -117.74432      138511.18      1.1663967    
      5230   302.26454     -15045.354     -14885.36      -81.838605      138481.67      1.171714     
      5240   302.86194     -15045.804     -14885.493     -47.916388      138449.33      1.1761011    
      5250   303.58139     -15046.343     -14885.651     -18.056911      138415.31      1.1794441    
      5260   304.37066     -15046.964     -14885.854      8.7387012      138380.65      1.1816283    
      5270   305.15797     -15047.612     -14886.086      32.554509      138346.24      1.1825279    
      5280   305.85649     -15048.283     -14886.387      53.778845      138312.91      1.1820486    
      5290   306.41106     -15048.945     -14886.756      69.616139      138281.36      1.1801251    
      5300   306.78909     -15049.575     -14887.186      78.320073      138252.12      1.1766966    
      5310   306.92782     -15050.161     -14887.698      90.787685      138225.51      1.1717189    
      5320   306.78188     -15050.663     -14888.277      94.35413       138201.9       1.1652264    
      5330   306.33463     -15051.08      -14888.931      99.426558      138181.47      1.1572799    
      5340   305.58591     -15051.401     -14889.649      102.74767      138164.37      1.1479703    
      5350   304.56508     -15051.626     -14890.413      101.34421      138150.7       1.1374382    
      5360   303.30847     -15051.76      -14891.212      94.760273      138140.4       1.1258651    
      5370   301.88866     -15051.822     -14892.026      88.360006      138133.26      1.1134677    
      5380   300.36328     -15051.84      -14892.851      82.811305      138129.05      1.1004908    
      5390   298.77578     -15051.796     -14893.648      81.809266      138127.63      1.0871949    
      5400   297.15076     -15051.709     -14894.421      72.012053      138128.91      1.0738521    
      5410   295.50108     -15051.553     -14895.138      64.310001      138132.61      1.060711     
      5420   293.85364     -15051.345     -14895.802      60.703058      138138.47      1.0480201    
      5430   292.24581     -15051.068     -14896.377      55.178461      138146.34      1.0360243    
      5440   290.71474     -15050.746     -14896.865      40.446459      138156.01      1.0249182    
      5450   289.31868     -15050.394     -14897.251      25.533125      138167         1.0148417    
      5460   288.11676     -15050.034     -14897.528      12.367182      138178.8       1.0059363    
      5470   287.18462     -15049.702     -14897.69      -5.3665291      138190.97      0.99831324   
      5480   286.63269     -15049.424     -14897.703     -25.820671      138202.9       0.99201262   
      5490   286.57884     -15049.286     -14897.594     -47.765501      138213.9       0.9870303    
      5500   287.10606     -15049.323     -14897.352     -66.74258       138223.27      0.98332278   
      5510   288.23676     -15049.549     -14896.979     -86.596152      138230.33      0.98083891   
      5520   289.91707     -15049.944     -14896.485     -105.94128      138234.44      0.9795006    
      5530   292.06461     -15050.498     -14895.902     -122.7305       138234.95      0.97920932   
      5540   294.54874     -15051.141     -14895.23      -136.61889      138231.3       0.97985837   
      5550   297.212       -15051.839     -14894.519     -140.21489      138223.05      0.98133477   
      5560   299.90397     -15052.514     -14893.768     -134.58904      138210.09      0.98354726   
      5570   302.47899     -15053.146     -14893.037     -116.80214      138192.61      0.98643585   
      5580   304.80095     -15053.674     -14892.336     -87.794822      138171.24      0.99000158   
      5590   306.7521      -15054.056     -14891.686     -51.109708      138146.96      0.99429183   
      5600   308.22343     -15054.264     -14891.115     -7.2699494      138121.01      0.99937138   
      5610   309.13901     -15054.262     -14890.628      41.232162      138094.86      1.0053375    
      5620   309.47035     -15054.055     -14890.246      85.09236       138070.14      1.0122895    
      5630   309.21999     -15053.638     -14889.961      131.40406      138048.34      1.0203111    
      5640   308.42163     -15053.034     -14889.78       177.86878      138031.01      1.0294924    
      5650   307.17139     -15052.273     -14889.681      217.3571       138019.66      1.0399015    
      5660   305.60999     -15051.427     -14889.661      252.60225      138015.64      1.0515574    
      5670   303.91462     -15050.582     -14889.714      279.79366      138020.08      1.0644433    
      5680   302.26522     -15049.783     -14889.788      297.57897      138033.87      1.0784908    
      5690   300.8063      -15049.125     -14889.902      289.47237      138057.48      1.09356      
      5700   299.62632     -15048.614     -14890.016      270.55183      138090.66      1.1093896    
      5710   298.75341     -15048.274     -14890.138      235.62055      138132.71      1.1256437    
      5720   298.21761     -15048.094     -14890.241      183.79628      138182.42      1.1419111    
      5730   297.97806     -15048.051     -14890.325      116.63445      138238.02      1.1576939    
      5740   297.98011     -15048.115     -14890.388      39.111595      138297.24      1.172409     
      5750   298.17215     -15048.253     -14890.424     -41.766839      138357.45      1.185425     
      5760   298.47008     -15048.431     -14890.444     -124.22623      138415.92      1.1961217    
      5770   298.80883     -15048.62      -14890.455     -199.63647      138469.89      1.2039068    
      5780   299.12891     -15048.779     -14890.444     -267.57191      138516.81      1.2082742    
      5790   299.35288     -15048.885     -14890.431     -328.23452      138554.41      1.2088315    
      5800   299.46327     -15048.932     -14890.42      -376.06689      138580.7       1.2053108    
      5810   299.44552     -15048.909     -14890.407     -407.63296      138594.14      1.197602     
      5820   299.31973     -15048.818     -14890.382     -417.15928      138593.72      1.1857689    
      5830   299.12444     -15048.695     -14890.363     -405.4319       138579.24      1.1700842    
      5840   298.89502     -15048.54      -14890.329     -372.63353      138551.18      1.151001     
      5850   298.65778     -15048.377     -14890.291     -322.69675      138510.75      1.1291342    
      5860   298.43939     -15048.198     -14890.228     -261.8698       138459.74      1.1052202    
      5870   298.25825     -15048.013     -14890.139     -185.82835      138400.35      1.0800622    
      5880   298.13362     -15047.836     -14890.028     -104.3171       138335.22      1.054488     
      5890   298.08704     -15047.679     -14889.895     -15.00062       138267.24      1.0293097    
      5900   298.15205     -15047.555     -14889.737      68.87111       138199.46      1.0052876    
      5910   298.33973     -15047.457     -14889.54       149.96748      138134.75      0.98306985   
      5920   298.68212     -15047.445     -14889.347      216.3972       138075.78      0.96320014   
      5930   299.17547     -15047.481     -14889.122      270.89449      138024.7       0.94609485   
      5940   299.77908     -15047.561     -14888.881      318.3743       137983.26      0.93206761   
      5950   300.45966     -15047.701     -14888.662      356.72507      137952.95      0.9213353    
      5960   301.17895     -15047.857     -14888.437      378.63191      137934.88      0.91402313   
      5970   301.85721     -15048.015     -14888.235      386.65572      137929.61      0.91016058   
      5980   302.45341     -15048.151     -14888.057      379.37363      137937.27      0.90970399   
      5990   302.92352     -15048.255     -14887.911      352.81342      137957.45      0.91254574   
      6000   303.22298     -15048.306     -14887.804      313.27891      137989.18      0.91849504   
      6010   303.35839     -15048.298     -14887.724      266.93624      138031         0.92729222   
      6020   303.35999     -15048.268     -14887.693      212.67546      138081.27      0.9386403    
      6030   303.24        -15048.203     -14887.692      151.77099      138138.1       0.95218817   
      6040   303.02848     -15048.115     -14887.716      79.980044      138199.33      0.96752511   
      6050   302.74975     -15048.033     -14887.782      10.367973      138262.53      0.9841637    
      6060   302.4193      -15047.944     -14887.868     -63.844224      138325.28      1.0015711    
      6070   302.05486     -15047.854     -14887.97      -136.08978      138385.09      1.0191757    
      6080   301.67971     -15047.782     -14888.097     -199.50678      138439.55      1.0363925    
      6090   301.31587     -15047.726     -14888.233     -252.55367      138486.56      1.0526684    
      6100   300.98591     -15047.701     -14888.383     -297.11653      138524.42      1.0674988    
      6110   300.70426     -15047.706     -14888.537     -332.24126      138551.74      1.0804242    
      6120   300.4691      -15047.757     -14888.712     -354.91728      138567.48      1.0910716    
      6130   300.26906     -15047.823     -14888.885     -366.71657      138571.05      1.099163     
      6140   300.08437     -15047.903     -14889.063     -358.5126       138562.26      1.104532     
      6150   299.89259     -15047.981     -14889.242     -334.00505      138541.55      1.107151     
      6160   299.66847     -15048.051     -14889.43      -295.38003      138509.9       1.1071229    
      6170   299.41532     -15048.098     -14889.611     -242.0481       138468.82      1.1046869    
      6180   299.09434     -15048.105     -14889.789     -185.38176      138420.21      1.1001579    
      6190   298.69355     -15048.059     -14889.954     -115.9782       138366.15      1.0938837    
      6200   298.25645     -15047.977     -14890.103     -43.676915      138309.04      1.0862509    
      6210   297.844       -15047.887     -14890.232      31.148127      138251.32      1.0776439    
      6220   297.48692     -15047.815     -14890.35       101.68392      138195.47      1.0684467    
      6230   297.23679     -15047.77      -14890.436      163.72562      138143.84      1.0590299    
      6240   297.13489     -15047.774     -14890.495      218.74495      138098.44      1.0497172    
      6250   297.20229     -15047.834     -14890.519      261.84197      138060.97      1.040806     
      6260   297.43761     -15047.957     -14890.517      287.9234       138032.75      1.0325266    
      6270   297.85319     -15048.153     -14890.494      304.12285      138014.54      1.0250268    
      6280   298.42513     -15048.405     -14890.443      309.42293      138006.71      1.0184256    
      6290   299.12741     -15048.721     -14890.386      297.44589      138009.27      1.0128008    
      6300   299.90952     -15049.068     -14890.32       267.83541      138021.65      1.0081362    
      6310   300.68152     -15049.401     -14890.245      227.32189      138042.76      1.0043358    
      6320   301.35662     -15049.696     -14890.182      177.23156      138071.11      1.0012673    
      6330   301.89236     -15049.922     -14890.124      124.3154       138104.97      0.99876823   
      6340   302.25893     -15050.088     -14890.096      67.527348      138142.49      0.99669165   
      6350   302.45926     -15050.172     -14890.074      11.447867      138181.72      0.99488684   
      6360   302.53639     -15050.226     -14890.087     -41.588687      138220.72      0.99319842   
      6370   302.55191     -15050.262     -14890.115     -86.602459      138257.76      0.99150024   
      6380   302.53963     -15050.319     -14890.179     -124.28896      138291.33      0.98969199   
      6390   302.48935     -15050.373     -14890.259     -157.60181      138320.22      0.98771653   
      6400   302.3761      -15050.428     -14890.374     -182.95033      138343.39      0.98556664   
      6410   302.17151     -15050.455     -14890.51      -195.73654      138360.09      0.98327238   
      6420   301.89489     -15050.473     -14890.674     -205.19405      138369.95      0.98089219   
      6430   301.53177     -15050.469     -14890.862     -200.06135      138372.8       0.9784958    
      6440   301.11203     -15050.454     -14891.069     -189.51533      138368.86      0.97618695   
      6450   300.65756     -15050.428     -14891.284     -167.99039      138358.63      0.97405193   
      6460   300.18197     -15050.406     -14891.514     -140.44807      138342.89      0.97219117   
      6470   299.71545     -15050.387     -14891.741     -110.51168      138322.64      0.97069109   
      6480   299.29844     -15050.408     -14891.983     -73.450706      138298.97      0.96962102   
      6490   298.9642      -15050.451     -14892.203     -34.587127      138273.12      0.96906134   
      6500   298.69374     -15050.515     -14892.41       4.9826605      138246.43      0.96909207   
      6510   298.48375     -15050.599     -14892.605      42.004757      138220.22      0.96976631   
      6520   298.3018      -15050.682     -14892.784      74.951535      138195.72      0.97108761   
      6530   298.14509     -15050.767     -14892.952      95.801513      138173.97      0.9730334    
      6540   298.02544     -15050.841     -14893.09       108.46975      138155.68      0.97554155   
      6550   297.91026     -15050.903     -14893.213      122.33499      138141.25      0.97852886   
      6560   297.77398     -15050.93      -14893.312      129.2769       138131.05      0.98192298   
      6570   297.60445     -15050.912     -14893.384      128.61187      138125.27      0.98562434   
      6580   297.41498     -15050.863     -14893.435      121.11908      138123.82      0.98950515   
      6590   297.24236     -15050.789     -14893.453      109.6571       138126.42      0.99341025   
      6600   297.14084     -15050.729     -14893.447      85.391377      138132.58      0.99716574   
      6610   297.15195     -15050.691     -14893.403      62.319587      138141.52      1.0005629    
      6620   297.28839     -15050.694     -14893.334      37.95282       138152.41      1.0034182    
      6630   297.54329     -15050.73      -14893.235      13.801747      138164.42      1.0055829    
      6640   297.85987     -15050.773     -14893.11      -11.93538       138176.7       1.0069522    
      6650   298.17592     -15050.795     -14892.964     -28.323205      138188.46      1.0074552    
      6660   298.45284     -15050.771     -14892.794     -41.072631      138199.13      1.0070934    
      6670   298.67525     -15050.714     -14892.619     -46.699043      138208.31      1.0059245    
      6680   298.84742     -15050.606     -14892.42      -46.280738      138215.81      1.0040695    
      6690   298.96203     -15050.463     -14892.216     -42.611425      138221.67      1.0017212    
      6700   299.00942     -15050.271     -14892         -36.666739      138226.02      0.99910694   
      6710   298.9793      -15050.027     -14891.772     -30.371496      138229.06      0.99643825   
      6720   298.88728     -15049.746     -14891.539     -23.185987      138231.04      0.99391251   
      6730   298.75255     -15049.424     -14891.288     -16.401653      138232.19      0.99168329   
      6740   298.64206     -15049.112     -14891.035     -3.0696083      138232.78      0.98988861   
      6750   298.59939     -15048.808     -14890.753      11.736275      138233.24      0.98867002   
      6760   298.64576     -15048.544     -14890.465      30.518581      138234.08      0.98817157   
      6770   298.83016     -15048.324     -14890.147      43.297857      138235.9       0.98850606   
      6780   299.19035     -15048.193     -14889.826      53.825986      138239.12      0.98971232   
      6790   299.73811     -15048.159     -14889.502      59.621473      138244.09      0.99178516   
      6800   300.44344     -15048.194     -14889.164      61.447499      138250.98      0.99467324   
      6810   301.24238     -15048.289     -14888.835      56.327093      138259.82      0.99827346   
      6820   302.10642     -15048.422     -14888.511      50.280111      138270.47      1.0024508    
      6830   302.97917     -15048.58      -14888.207      40.577077      138282.66      1.0070525    
      6840   303.77738     -15048.735     -14887.94       26.583665      138296.06      1.0119147    
      6850   304.4315      -15048.853     -14887.711      14.802783      138310.21      1.0168743    
      6860   304.94313     -15048.955     -14887.542      0.34713331     138324.69      1.021775     
      6870   305.33121     -15049.021     -14887.403     -10.364779      138339.04      1.0264625    
      6880   305.60681     -15049.1       -14887.336     -21.903435      138352.89      1.0307944    
      6890   305.80623     -15049.194     -14887.325     -39.764981      138365.83      1.0346431    
      6900   305.94099     -15049.326     -14887.385     -58.714898      138377.29      1.0378761    
      6910   306.01657     -15049.484     -14887.504     -77.892323      138386.66      1.0403637    
      6920   306.04877     -15049.684     -14887.686     -90.067743      138393.34      1.0419992    
      6930   306.02546     -15049.92      -14887.934     -96.920197      138396.91      1.0427228    
      6940   305.95311     -15050.2       -14888.253     -103.3287       138397.17      1.0425338    
      6950   305.84799     -15050.526     -14888.635     -103.63911      138393.96      1.0414411    
      6960   305.70838     -15050.902     -14889.085     -106.15543      138387.24      1.0394958    
      6970   305.52178     -15051.299     -14889.58      -108.95531      138376.96      1.0367634    
      6980   305.23977     -15051.701     -14890.132     -107.67779      138363.07      1.0333       
      6990   304.8399      -15052.096     -14890.738     -103.31626      138345.61      1.0291589    
      7000   304.29497     -15052.451     -14891.382     -100.46874      138324.73      1.0244107    
      7010   303.59777     -15052.751     -14892.051     -95.801028      138300.56      1.0191216    
      7020   302.7458      -15053.005     -14892.755     -80.86654       138273.28      1.0133609    
      7030   301.72326     -15053.171     -14893.463     -61.563388      138243.39      1.0072308    
      7040   300.5505      -15053.258     -14894.17      -34.929986      138211.59      1.0008454    
      7050   299.29278     -15053.285     -14894.863     -12.922875      138178.71      0.99433052   
      7060   298.00217     -15053.259     -14895.52       13.571084      138145.53      0.98779116   
      7070   296.76088     -15053.229     -14896.147      42.475042      138112.92      0.98133314   
      7080   295.61614     -15053.193     -14896.718      75.666749      138081.87      0.97509915   
      7090   294.58707     -15053.16      -14897.229      104.07164      138053.46      0.969277     
      7100   293.70399     -15053.15      -14897.687      120.21726      138028.59      0.96403556   
      7110   292.99304     -15053.166     -14898.079      136.17621      138007.81      0.95947428   
      7120   292.4414      -15053.183     -14898.387      150.58637      137991.65      0.95568868   
      7130   292.02828     -15053.193     -14898.617      162.20434      137980.56      0.95277982   
      7140   291.78104     -15053.217     -14898.771      170.48996      137974.94      0.95084725   
      7150   291.70877     -15053.239     -14898.832      171.97294      137975.02      0.94997293   
      7160   291.82754     -15053.292     -14898.822      168.53977      137980.85      0.95020151   
      7170   292.14097     -15053.355     -14898.719      160.49506      137992.29      0.95156188   
      7180   292.65511     -15053.438     -14898.53       145.58715      138009.09      0.95408416   
      7190   293.32758     -15053.531     -14898.267      120.14772      138030.72      0.9577655    
      7200   294.13318     -15053.635     -14897.944      90.542755      138056.34      0.9625466    
      7210   295.02326     -15053.714     -14897.552      58.393865      138084.97      0.96835269   
      7220   295.93049     -15053.75      -14897.108      20.908267      138115.54      0.97507311   
      7230   296.80965     -15053.734     -14896.627     -20.598661      138146.78      0.98255884   
      7240   297.62069     -15053.652     -14896.116     -51.256755      138177.36      0.9906496    
      7250   298.34892     -15053.503     -14895.581     -77.761688      138206.21      0.99919428   
      7260   299.02096     -15053.317     -14895.04      -100.6408       138232.43      1.0080265    
      7270   299.63788     -15053.098     -14894.493     -119.72945      138255.25      1.0169697    
      7280   300.20217     -15052.858     -14893.955     -136.17032      138274.03      1.0258453    
      7290   300.71506     -15052.585     -14893.41      -142.57991      138288.24      1.0344789    
      7300   301.19843     -15052.325     -14892.895     -145.05667      138297.63      1.0427156    
      7310   301.64609     -15052.059     -14892.391     -138.28438      138302.13      1.0504197    
      7320   302.08036     -15051.805     -14891.907     -126.91119      138301.95      1.0574847    
      7330   302.53517     -15051.594     -14891.456     -110.90442      138297.47      1.0638289    
      7340   303.00899     -15051.426     -14891.037     -88.239193      138289.23      1.0693817    
      7350   303.51217     -15051.307     -14890.651     -67.779668      138277.96      1.0740937    
      7360   303.99073     -15051.203     -14890.295     -45.405476      138264.36      1.0779058    
      7370   304.36284     -15051.09      -14889.984     -18.779441      138249.18      1.0807437    
      7380   304.59943     -15050.957     -14889.726      10.98443       138233.31      1.0825713    
      7390   304.68632     -15050.787     -14889.51       42.30054       138217.74      1.0834028    
      7400   304.63024     -15050.591     -14889.344      81.570568      138203.55      1.0832993    
      7410   304.3888      -15050.355     -14889.236      108.93164      138192.02      1.0823726    
      7420   303.96418     -15050.064     -14889.17       129.22889      138184.09      1.0806976    
      7430   303.36899     -15049.73      -14889.151      141.30633      138180.46      1.0783445    
      7440   302.61056     -15049.346     -14889.168      142.18989      138181.54      1.0753801    
      7450   301.695       -15048.902     -14889.209      135.94798      138187.38      1.0718659    
      7460   300.68228     -15048.438     -14889.28       133.72857      138197.83      1.0678734    
      7470   299.64877     -15047.961     -14889.351      127.29692      138212.82      1.0635084    
      7480   298.6991      -15047.534     -14889.427      113.40584      138232.14      1.0588874    
      7490   297.9291      -15047.178     -14889.478      91.382409      138255.35      1.054106     
      7500   297.42525     -15046.955     -14889.522      66.999626      138281.77      1.0492606    
      7510   297.26021     -15046.867     -14889.521      25.154036      138310.5       1.0444275    
      7520   297.48688     -15046.959     -14889.493     -21.576377      138340.19      1.0396129    
      7530   298.08601     -15047.221     -14889.438     -72.165424      138369.26      1.0347895    
      7540   298.9879      -15047.618     -14889.358     -123.72518      138396         1.0299064    
      7550   300.0861      -15048.104     -14889.263     -172.04688      138418.65      1.0248953    
[...]
     16830   1093.8628     -14408.662     -13829.658      3738.2126      155871.85      7.909745     
     16840   1095.089      -14407.043     -13827.39       3675.9811      155974.15      7.9787571    
     16850   1096.6676     -14405.634     -13825.145      3603.5448      156079.05      8.0495602    
     16860   1098.4342     -14404.324     -13822.901      3531.9902      156185.78      8.1218152    
     16870   1099.2746     -14402.539     -13820.671      3474.5324      156293.95      8.1953586    
     16880   1098.4257     -14399.867     -13818.448      3450.628       156403.57      8.2702132    
     16890   1095.8185     -14396.24      -13816.201      3441.4075      156515.25      8.3466866    
     16900   1092.4854     -14392.213     -13813.938      3444.7075      156630         8.4252677    
     16910   1090.3753     -14388.771     -13811.614      3443.9035      156748.91      8.5065091    
     16920   1090.7593     -14386.564     -13809.203      3425.8922      156873.06      8.5909546    
     16930   1092.9544     -14385.265     -13806.742      3405.2511      157002.99      8.6789134    
     16940   1095.8474     -14384.284     -13804.23       3376.1202      157138.58      8.7703582    
     16950   1098.5269     -14383.178     -13801.705      3329.2233      157278.98      8.8648761    
     16960   1100.8204     -14381.854     -13799.167      3314.671       157422.58      8.9616388    
     16970   1102.4196     -14380.181     -13796.648      3320.1459      157567.71      9.0597572    
     16980   1103.3005     -14378.134     -13794.134      3343.6375      157712.74      9.1583606    
     16990   1103.6756     -14375.83      -13791.632      3378.7528      157856.34      9.2567066    
     17000   1104.254      -14373.617     -13789.113      3420.1318      157997.7       9.3543325    
     17010   1105.5963     -14371.795     -13786.58       3469.707       158136.4       9.4509901    
     17020   1107.8702     -14370.455     -13784.037      3522.9102      158272.16      9.5465033    
     17030   1111.2466     -14369.686     -13781.48       3540.3511      158404.79      9.6407536    
     17040   1115.6541     -14369.461     -13778.923      3532.5842      158533.82      9.7334576    
     17050   1120.608      -14369.555     -13776.394      3524.3389      158658.79      9.8243455    
     17060   1125.4706     -14369.644     -13773.909      3502.953       158779.63      9.9133548    
     17070   1129.2951     -14369.253     -13771.494      3501.493       158896.6       10.000628    
     17080   1131.4797     -14368.053     -13769.138      3493.4317      159010.4       10.086538    
     17090   1131.7631     -14365.916     -13766.851      3480.177       159121.97      10.171625    
     17100   1130.6933     -14363.101     -13764.602      3488.2301      159232.28      10.256458    
     17110   1129.2179     -14360.08      -13762.362      3488.6737      159342.46      10.341715    
     17120   1128.3183     -14357.353     -13760.111      3469.6334      159453.53      10.42802     
     17130   1128.4232     -14355.111     -13757.814      3433.1254      159565.87      10.515657    
     17140   1129.1242     -14353.146     -13755.478      3394.1646      159679.45      10.604647    
     17150   1129.6368     -14351.04      -13753.1        3347.3544      159794.09      10.694908    
     17160   1129.8512     -14348.738     -13750.685      3300.7837      159909.4       10.786217    
     17170   1130.092      -14346.418     -13748.237      3272.3925      160024.91      10.878298    
     17180   1130.4412     -14344.124     -13745.759      3225.9088      160140.39      10.971       
     17190   1130.5798     -14341.695     -13743.256      3187.0541      160255.76      11.064288    
     17200   1130.7684     -14339.268     -13740.729      3153.6347      160371.03      11.158169    
     17210   1131.6842     -14337.197     -13738.174      3109.2046      160486.21      11.252659    
     17220   1134.0329     -14335.864     -13735.598      3053.9857      160600.96      11.347567    
     17230   1137.7928     -14335.264     -13733.007      2994.2703      160714.56      11.442457    
     17240   1142.0137     -14334.916     -13730.425      2928.3408      160826.04      11.536735    
     17250   1145.5915     -14334.256     -13727.871      2843.4116      160934.35      11.629728    
     17260   1147.9961     -14333.007     -13725.349      2783.3871      161038.18      11.720589    
     17270   1149.471      -14331.307     -13722.868      2748.6563      161136.25      11.808455    
     17280   1150.3985     -14329.352     -13720.422      2718.4494      161227.42      11.892527    
     17290   1150.7342     -14327.115     -13718.008      2692.5553      161310.75      11.97212     
     17300   1150.5378     -14324.588     -13715.585      2669.6187      161385.64      12.046778    
     17310   1150.9241     -14322.367     -13713.16       2643.7124      161451.75      12.116206    
     17320   1152.8533     -14320.963     -13710.734      2601.0924      161509.38      12.180527    
     17330   1156.0575     -14320.221     -13708.296      2565.3443      161559.32      12.240219    
     17340   1159.0967     -14319.397     -13705.864      2532.9992      161602.64      12.295933    
     17350   1160.3255     -14317.641     -13703.457      2526.2863      161640.74      12.348545    
     17360   1159.1571     -14314.645     -13701.079      2560.8697      161675.54      12.399237    
     17370   1156.7971     -14311.008     -13698.692      2603.0758      161708.99      12.449213    
     17380   1154.8533     -14307.576     -13696.289      2662.2231      161742.71      12.499423    
     17390   1154.1756     -14304.771     -13693.843      2710.0542      161778.33      12.550856    
     17400   1154.9632     -14302.681     -13691.335      2732.0896      161817.26      12.604409    
     17410   1156.6329     -14301.006     -13688.777      2770.73        161860.56      12.660794    
     17420   1158.2794     -14299.293     -13686.192      2803.3895      161909.5       12.720894    
     17430   1159.5408     -14297.359     -13683.591      2817.2191      161965.11      12.785423    
     17440   1160.7453     -14295.402     -13680.996      2821.7125      162027.9       12.854755    
     17450   1162.6116     -14293.781     -13678.387      2811.9643      162097.96      12.929037    
     17460   1165.7837     -14292.85      -13675.777      2770.3041      162174.84      13.008036    
     17470   1169.8242     -14292.389     -13673.177      2717.4472      162257.51      13.091194    
     17480   1173.4081     -14291.721     -13670.612      2671.5721      162344.74      13.177825    
     17490   1175.7723     -14290.44      -13668.08       2611.6769      162435.05      13.267056    
     17500   1177.3767     -14288.791     -13665.582      2554.1406      162526.94      13.357929    
     17510   1178.9665     -14287.18      -13663.129      2490.41        162619.15      13.44962     
     17520   1180.2965     -14285.437     -13660.682      2419.651       162710.47      13.541302    
     17530   1181.0172     -14283.394     -13658.257      2368.919       162799.93      13.632277    
     17540   1180.8615     -14280.893     -13655.839      2339.3827      162886.96      13.722066    
     17550   1180.3121     -14278.182     -13653.418      2321.8942      162971.42      13.810456    
     17560   1180.5356     -14275.857     -13650.976      2310.4799      163053.42      13.897362    
     17570   1182.237      -14274.291     -13648.509      2280.7056      163133.27      13.982871    
     17580   1185.1197     -14273.334     -13646.026      2266.8883      163211.45      14.067175    
     17590   1188.744      -14272.767     -13643.54       2253.3612      163288.5       14.150581    
     17600   1192.7875     -14272.442     -13641.076      2242.497       163364.85      14.233356    
     17610   1197.2088     -14272.353     -13638.646      2231.761       163440.82      14.315749    
     17620   1202.2537     -14272.651     -13636.274      2243.9042      163516.63      14.397979    
     17630   1208.166      -14273.492     -13633.985      2240.118       163592.65      14.480404    
     17640   1214.1733     -14274.473     -13631.786      2244.2099      163669.14      14.563331    
     17650   1218.8225     -14274.867     -13629.72       2281.7944      163746.8       14.647374    
     17660   1220.6083     -14273.88      -13627.787      2328.5747      163826.89      14.733535    
     17670   1220.5564     -14272.045     -13625.98       2399.5714      163910.97      14.822993    
     17680   1220.2891     -14270.193     -13624.27       2452.1875      164000.55      14.916887    
     17690   1220.2167     -14268.518     -13622.632      2531.2579      164096.65      15.01599     
     17700   1219.784      -14266.681     -13621.024      2622.5993      164200.08      15.120945    
     17710   1218.5672     -14264.461     -13619.449      2676.344       164311.66      15.232387    
     17720   1216.8764     -14261.987     -13617.87       2730.5854      164431.53      15.350483    
     17730   1215.813      -14259.814     -13616.26       2769.9244      164559.78      15.475335    
     17740   1216.0062     -14258.257     -13614.6        2801.6341      164696.36      15.606963    
     17750   1217.3578     -14257.258     -13612.886      2796.9207      164840.99      15.745198    
     17760   1219.5463     -14256.65      -13611.12       2759.7806      164992.96      15.889583    
     17770   1221.9297     -14256.101     -13609.308      2719.0331      165151.1       16.0393      
     17780   1223.5714     -14255.143     -13607.481      2682.3728      165313.97      16.193333    
     17790   1223.6862     -14253.358     -13605.636      2651.6066      165480.22      16.350697    
     17800   1222.4787     -14250.858     -13603.776      2611.9829      165648.62      16.51044     
     17810   1221.1897     -14248.282     -13601.882      2591.8748      165817.72      16.671414    
     17820   1220.5311     -14246.012     -13599.96       2572.5564      165986.1       16.832485    
     17830   1219.882      -14243.671     -13597.963      2531.2599      166152.53      16.992636    
     17840   1218.5398     -14240.908     -13595.91       2506.9522      166315.85      17.150913    
     17850   1216.3374     -14237.627     -13593.795      2477.2356      166475.4       17.306751    
     17860   1213.2152     -14233.781     -13591.602      2449.7443      166630.96      17.459904    
     17870   1209.9757     -14229.796     -13589.331      2417.8255      166782.56      17.610325    
     17880   1207.8796     -14226.305     -13586.95       2379.7349      166930.38      17.758095    
     17890   1208.2522     -14224.029     -13584.477      2329.525       167074.51      17.903236    
     17900   1211.247      -14223.061     -13581.923      2262.5865      167214.9       18.045701    
     17910   1214.9479     -14222.426     -13579.329      2186.9175      167351.48      18.185477    
     17920   1217.9248     -14221.418     -13576.746      2119.2099      167484.21      18.322567    
     17930   1219.8442     -14219.879     -13574.191      2059.4722      167613.11      18.457015    
     17940   1220.5022     -14217.701     -13571.665      2040.3424      167738.09      18.588769    
     17950   1219.8696     -14214.869     -13569.167      2030.4578      167859.38      18.718006    
     17960   1217.9377     -14211.352     -13566.672      2052.6662      167977.05      18.84475     
     17970   1215.8644     -14207.732     -13564.151      2070.9409      168091.26      18.969098    
     17980   1215.2321     -14204.832     -13561.585      2080.9186      168201.86      19.090874    
     17990   1217.0537     -14203.146     -13558.934      2073.977       168307.99      19.209338    
     18000   1221.0544     -14202.573     -13556.244      2055.8319      168408.19      19.323264    
     18010   1226.2686     -14202.605     -13553.517      2031.4593      168500.7       19.431207    
     18020   1231.5602     -14202.705     -13550.815      2001.4902      168584.44      19.532281    
     18030   1236.1242     -14202.47      -13548.164      1992.8283      168659.09      19.626222    
     18040   1240.2505     -14202.066     -13545.577      1977.1467      168725.01      19.71329     
     18050   1244.6855     -14201.892     -13543.054      1964.134       168782.99      19.794121    
     18060   1249.6459     -14202.077     -13540.614      1939.9713      168834.09      19.869569    
     18070   1254.7854     -14202.438     -13538.255      1906.4837      168879.31      19.940477    
     18080   1259.8442     -14202.844     -13535.983      1888.084       168919.7       20.00777     
     18090   1264.944      -14203.368     -13533.808      1883.6445      168956.8       20.072743    
     18100   1269.9853     -14203.975     -13531.746      1865.5164      168992.49      20.136965    
     18110   1274.5586     -14204.451     -13529.801      1852.218       169028.25      20.201694    
     18120   1277.9816     -14204.441     -13527.98       1835.0992      169064.99      20.26769     
     18130   1279.5445     -14203.58      -13526.291      1844.784       169103.03      20.335252    
     18140   1279.6302     -14202.036     -13524.702      1848.6012      169142.75      20.404715    
     18150   1279.1334     -14200.279     -13523.208      1880.4993      169184.65      20.476561    
     18160   1278.6568     -14198.59      -13521.771      1894.9316      169229.57      20.551558    
     18170   1278.0532     -14196.871     -13520.372      1913.2994      169278.29      20.630418    
     18180   1276.9205     -14194.883     -13518.983      1912.4564      169331.37      20.713636    
     18190   1274.819      -14192.369     -13517.582      1917.3719      169388.88      20.80127     
     18200   1272.2052     -14189.538     -13516.134      1929.9026      169450.69      20.89321     
     18210   1269.5825     -14186.632     -13514.616      1966.3497      169516.73      20.989403    
     18220   1267.1027     -14183.697     -13512.994      1990.9477      169587.2       21.090016    
     18230   1264.6483     -14180.644     -13511.24       2011.1289      169662.25      21.195215    
     18240   1262.5352     -14177.633     -13509.347      2013.3575      169742.01      21.305113    
     18250   1262.4963     -14175.564     -13507.3        1996.2111      169826.41      21.419642    
     18260   1266.2488     -14175.361     -13505.11       1936.6229      169914.99      21.538447    
     18270   1273.4492     -14176.886     -13502.823      1858.1244      170006.73      21.66066     
     18280   1282.3812     -14179.318     -13500.528      1758.0104      170100.05      21.784983    
     18290   1290.4806     -14181.367     -13498.29       1651.3395      170192.86      21.909636    
     18300   1295.6503     -14181.994     -13496.18       1581.7015      170283.01      22.032773    
     18310   1297.4971     -14181.026     -13494.235      1565.622       170368.85      22.152887    
     18320   1297.442      -14179.199     -13492.437      1585.7471      170449.61      22.269218    
     18330   1296.6648     -14177.105     -13490.754      1644.8205      170525.43      22.381762    
     18340   1294.4992     -14174.373     -13489.168      1704.1654      170597.28      22.491216    
     18350   1289.1479     -14169.979     -13487.607      1813.8354      170666.92      22.598997    
     18360   1280.7259     -14163.944     -13486.03       1938.0939      170737.17      22.707398    
     18370   1271.8235     -14157.547     -13484.345      2064.5727      170811.13      22.818949    
     18380   1265.8924     -14152.523     -13482.461      2171.6066      170891.08      22.935501    
     18390   1264.5198     -14149.689     -13480.353      2246.2782      170978.14      23.057923    
     18400   1267.0849     -14148.72      -13478.026      2288.8482      171072.1       23.185966    
     18410   1272.3226     -14148.986     -13475.52       2291.3956      171172.13      23.318899    
     18420   1278.867      -14149.88      -13472.95       2262.6912      171277.08      23.455713    
     18430   1284.9961     -14150.564     -13470.39       2228.564       171385.91      23.595504    
     18440   1290.0382     -14150.751     -13467.908      2192.7291      171498.22      23.737918    
     18450   1293.7144     -14150.337     -13465.548      2165.2848      171614.01      23.883016    
     18460   1295.7119     -14149.172     -13463.325      2150.2933      171734.07      24.031552    
     18470   1296.6325     -14147.54      -13461.206      2136.6051      171859.79      24.184882    
     18480   1296.782      -14145.577     -13459.164      2129.6954      171992.4       24.344232    
     18490   1296.2914     -14143.315     -13457.162      2111.274       172132.74      24.510463    
     18500   1295.4484     -14140.879     -13455.172      2085.9447      172280.95      24.683811    
     18510   1295.067      -14138.656     -13453.151      2062.6296      172436.48      24.863896    
     18520   1295.4137     -14136.777     -13451.089      2037.5555      172598.33      25.049894    
     18530   1296.3801     -14135.165     -13448.965      2025.4921      172765.12      25.240598    
     18540   1297.9971     -14133.849     -13446.792      1997.707       172935.65      25.434945    
     18550   1300.5661     -14132.984     -13444.568      1958.7385      173108.38      25.63155     
     18560   1303.4568     -14132.269     -13442.322      1928.8925      173281.54      25.82881     
     18570   1306.55       -14131.66      -13440.077      1892.2971      173453.6       26.025309    
     18580   1310.0246     -14131.26      -13437.837      1844.2177      173623.11      26.219743    
     18590   1314.4096     -14131.374     -13435.63       1815.7989      173788.98      26.411119    
     18600   1319.6356     -14131.992     -13433.482      1789.6472      173950.59      26.598849    
     18610   1324.7862     -14132.655     -13431.419      1764.4045      174107.69      26.782732    
     18620   1328.8115     -14132.818     -13429.451      1767.4814      174260.74      26.963179    
     18630   1331.4723     -14132.379     -13427.604      1757.496       174410.82      27.141221    
     18640   1332.8459     -14131.349     -13425.846      1745.1929      174558.81      27.317745    
     18650   1332.6855     -14129.603     -13424.185      1749.3542      174705.57      27.493667    
     18660   1330.8842     -14127.039     -13422.575      1734.4386      174851.91      27.669826    
     18670   1328.2286     -14124.044     -13420.986      1724.3302      174997.92      27.846355    
     18680   1325.225      -14120.835     -13419.366      1716.7526      175143.21      28.022897    
     18690   1322.7743     -14117.845     -13417.673      1694.8929      175286.93      28.198578    
     18700   1321.5952     -14115.421     -13415.874      1615.2949      175427.52      28.371779    
     18710   1322.2458     -14113.848     -13413.956      1534.3232      175562.69      28.540166    
     18720   1324.2779     -14112.896     -13411.929      1420.9601      175690.55      28.701769    
     18730   1327.227      -14112.334     -13409.806      1312.7759      175808.95      28.854382    
     18740   1331.2705     -14112.317     -13407.649      1204.8918      175915.79      28.995799    
     18750   1336.3177     -14112.824     -13405.484      1073.6018      176009.42      29.124259    
     18760   1341.3671     -14113.383     -13403.37       952.47108      176088.57      29.238353    
     18770   1345.6134     -14113.603     -13401.342      847.96662      176152.16      29.336898    
     18780   1348.5797   