LAMMPS (2 Aug 2023)
OMP_NUM_THREADS environment is not set. Defaulting to 1 thread. (src/comm.cpp:98)
  using 1 OpenMP thread(s) per MPI task
read_restart    ../structure.ready
Reading restart file ...
  restart file = 2 Aug 2023, LAMMPS = 2 Aug 2023
  restoring atom style full from restart
  orthogonal box = (-0.73569318 -0.82717062 -9.2097329) to (24.671166 24.762643 81.01615)
  1 by 1 by 1 MPI processor grid
  pair style chgnet/gpu stores no restart info
  1536 atoms
Finding 1-2 1-3 1-4 neighbors ...
  special bond factors lj:    0        0        0       
  special bond factors coul:  0        0        0       
     0 = max # of 1-2 neighbors
     0 = max # of 1-3 neighbors
     0 = max # of 1-4 neighbors
     1 = max # of special neighbors
  special bonds CPU = 0.001 seconds
  read_restart CPU = 0.076 seconds

pair_style      chgnet/gpu /ocean/projects/cts180021p/wuziqi/clease/lammps-ASC/potentials/CHGNET
pair_coeff      * * MPtrj-efsm Cl K Li

neighbor        0.3 bin
neigh_modify    delay 10

timestep	    0.001
compute	        msd all msd
Resetting peratom fix info from restart file:
  fix style: STORE/ATOM, fix ID: msd_COMPUTE_STORE
thermo_style	custom step temp pe etotal press vol c_msd[4]
thermo	        10
dump	        1 all custom 10 xyz-mix.dump type id x y z
dump	        2 all custom 10 force-mix.dump type id fx fy fz

fix             2 gLiquid npt temp 1500 750.0 $(100.0*dt) z 1.01325 1.01325 $(1000.0*dt) couple none
fix             2 gLiquid npt temp 1500 750.0 0.10000000000000000555 z 1.01325 1.01325 $(1000.0*dt) couple none
fix             2 gLiquid npt temp 1500 750.0 0.10000000000000000555 z 1.01325 1.01325 1 couple none
run             10000
All restart file peratom fix info was re-assigned
Neighbor list info ...
  update: every = 1 steps, delay = 10 steps, check = yes
  max neighbors/atom: 2000, page size: 100000
  master list distance cutoff = 6.3
  ghost atom cutoff = 6.3
  binsize = 3.15, bins = 9 9 29
  1 neighbor lists, perpetual/occasional/extra = 1 0 0
  (1) pair chgnet/gpu, perpetual
      attributes: full, newton on
      pair build: full/bin
      stencil: full/bin/3d
      bin: standard
Per MPI rank memory allocation (min/avg/max) = 6.519 | 6.519 | 6.519 Mbytes
   Step          Temp          PotEng         TotEng         Press          Volume        c_msd[4]   
     20000   1512.4261     -5388.1073     -5088.0203      2618.0836      58660.97       49.242492    
     20010   1521.4937     -5389.9369     -5088.0507      2461.3837      58661.128      49.35739     
     20020   1515.6407     -5388.8826     -5088.1578      2514.4402      58661.523      49.445333    
     20030   1508.7301     -5387.6924     -5088.3387      2722.0671      58662.173      49.523422    
     20040   1491.8008     -5384.5364     -5088.5417      2996.6036      58663.361      49.61047     
     20050   1485.4805     -5383.4828     -5088.7422      3221.3987      58665.356      49.704683    
     20060   1506.2896     -5387.8059     -5088.9365      3241.8015      58667.994      49.794629    
     20070   1509.2997     -5388.6438     -5089.1771      3228.0008      58671.119      49.885726    
     20080   1491.4557     -5385.4047     -5089.4785      3226.753       58674.961      49.984522    
     20090   1471.5344     -5381.7759     -5089.8024      3001.3928      58679.925      50.085851    
     20100   1460.9185     -5379.9393     -5090.0722      2636.2263      58686.129      50.19362     
     20110   1457.4774     -5379.4504     -5090.2661      2207.7065      58693.093      50.31251     
     20120   1443.0967     -5376.6647     -5090.3336      2060.1058      58700.233      50.440748    
     20130   1451.019      -5378.1665     -5090.2636      2035.2504      58707.149      50.57581     
     20140   1462.032      -5380.1063     -5090.0182      2147.6849      58713.664      50.72452     
     20150   1460.9652     -5379.4969     -5089.6205      2469.0149      58719.937      50.891564    
     20160   1454.4221     -5377.6        -5089.0218      2805.7958      58726.24       51.068339    
     20170   1482.1434     -5382.2798     -5088.2013      2670.187       58732.829      51.24562     
     20180   1491.9875     -5383.2133     -5087.1816      2756.9012      58740.102      51.420818    
     20190   1477.3365     -5379.137      -5086.0123      2965.9657      58748.539      51.592319    
     20200   1468.1417     -5375.9692     -5084.6689      2978.634       58758.17       51.753047    
     20210   1473.9403     -5375.5796     -5083.1287      2698.2841      58768.585      51.910212    
     20220   1498.8641     -5378.8429     -5081.4468      2280.73        58779.335      52.074076    
     20230   1549.2942     -5387.1493     -5079.7471      1811.5668      58789.986      52.244435    
     20240   1561.8211     -5388.1208     -5078.2332      1753.9683      58800.067      52.410395    
     20250   1571.3384     -5388.8624     -5077.0864      1625.8504      58809.372      52.567919    
     20260   1560.2922     -5385.8928     -5076.3085      1587.0088      58817.935      52.714841    
     20270   1542.6919     -5381.9509     -5075.8588      1753.3936      58825.669      52.845778    
     20280   1538.2336     -5380.8805     -5075.6729      1975.1841      58832.478      52.964627    
     20290   1520.2966     -5377.3407     -5075.6921      2284.1864      58838.408      53.079661    
     20300   1501.2227     -5373.7251     -5075.861       2624.0599      58843.873      53.192762    
     20310   1501.9296     -5374.147      -5076.1426      2737.7516      58849.592      53.314727    
     20320   1491.8934     -5372.5232     -5076.5102      2859.1619      58855.938      53.45557     
     20330   1476.3334     -5369.8553     -5076.9297      2978.6571      58863.082      53.608528    
     20340   1472.1445     -5369.4631     -5077.3686      2828.1503      58870.935      53.761808    
     20350   1469.268      -5369.3284     -5077.8046      2678.0536      58879.154      53.910244    
     20360   1476.3227     -5371.1532     -5078.2296      2491.0399      58887.509      54.0486      
     20370   1502.1878     -5376.787      -5078.7314      2299.5384      58895.987      54.165858    
     20380   1507.4601     -5378.4587     -5079.3571      2385.5543      58904.814      54.288334    
     20390   1510.2226     -5379.8137     -5080.1639      2566.2957      58914.37       54.424884    
     20400   1499.8763     -5378.7543     -5081.1573      2751.0103      58925.05       54.559389    
     20410   1500.0146     -5379.9778     -5082.3534      2734.2666      58937.211      54.69252     
     20420   1490.0039     -5379.3413     -5083.7032      2662.7819      58950.871      54.828691    
     20430   1503.2984     -5383.4821     -5085.2061      2449.9104      58965.942      54.968697    
     20440   1485.2544     -5381.5397     -5086.8439      2490.3954      58982.144      55.124729    
     20450   1471.0326     -5380.3792     -5088.5052      2578.3929      58999.194      55.292846    
     20460   1464.6744     -5380.6758     -5090.0634      2483.6346      59016.796      55.460313    
     20470   1480.1335     -5385.178      -5091.4983      2179.876       59034.475      55.628558    
     20480   1492.9846     -5389.0455     -5092.816       1887.4657      59051.823      55.79647     
     20490   1486.1291     -5388.8851     -5094.0158      1664.5349      59068.754      55.964529    
     20500   1483.3063     -5389.3729     -5095.0637      1596.8577      59085.442      56.131033    
     20510   1474.4967     -5388.5343     -5095.973       1709.7273      59102.113      56.288662    
     20520   1461.2677     -5386.6615     -5096.7251      1742.8064      59118.732      56.445988    
     20530   1481.938      -5391.375      -5097.3373      1314.6584      59134.921      56.61101     
     20540   1476.4919     -5390.8378     -5097.8806      1184.2835      59150.028      56.771312    
     20550   1472.167      -5390.5056     -5098.4066      1140.5361      59163.854      56.921316    
     20560   1467.9589     -5390.1471     -5098.883       903.96159      59176.396      57.065508    
     20570   1457.4033     -5388.5087     -5099.339       753.30688      59187.355      57.203585    
     20580   1439.4907     -5385.3505     -5099.7349      855.19516      59196.442      57.332655    
     20590   1429.3023     -5383.634      -5100.04        890.03212      59203.675      57.45624     
     20600   1433.6805     -5384.696      -5100.2333      814.28119      59209.222      57.579626    
     20610   1445.6566     -5387.1892     -5100.3502      727.22279      59212.957      57.697142    
     20620   1459.8647     -5390.101      -5100.4429      563.21217      59214.329      57.806158    
     20630   1471.4072     -5392.5212     -5100.573       480.93018      59213.126      57.904853    
     20640   1438.7078     -5386.1869     -5100.7267      729.05407      59209.617      57.99772     
     20650   1420.9205     -5382.7943     -5100.8633      990.31516      59203.94       58.091205    
     20660   1406.9145     -5380.0437     -5100.8917      1234.947       59195.958      58.169857    
     20670   1400.3369     -5378.6144     -5100.7675      1585.0424      59185.733      58.21812     
     20680   1424.6635     -5383.1752     -5100.5015      1823.4741      59173.709      58.247931    
     20690   1434.5666     -5384.7349     -5100.0963      1978.0258      59160.35       58.285778    
     20700   1455.0408     -5388.3329     -5099.6319      1763.1266      59146.007      58.325985    
     20710   1465.2317     -5389.8853     -5099.1623      1463.7314      59130.662      58.347103    
     20720   1457.6274     -5387.9612     -5098.747       1361.8957      59113.985      58.350814    
     20730   1448.7536     -5385.8123     -5098.3588      1363.631       59095.65       58.346662    
     20740   1457.4959     -5387.1595     -5097.9715      1227.797       59075.515      58.335705    
     20750   1472.7315     -5389.8179     -5097.6069      1093.8616      59053.244      58.325108    
     20760   1483.5555     -5391.6687     -5097.31        1136.673       59028.619      58.325405    
     20770   1496.5486     -5394.0941     -5097.1574      993.85603      59001.832      58.344639    
     20780   1490.7135     -5392.9636     -5097.1847      980.3141       58972.961      58.359288    
     20790   1474.3542     -5389.9292     -5097.3962      1043.7295      58942.04       58.343921    
     20800   1454.0131     -5386.2378     -5097.7408      1235.2431      58909.322      58.29531     
     20810   1457.5627     -5387.3965     -5098.1952      1123.6023      58875.056      58.227263    
     20820   1471.7361     -5390.8074     -5098.7938      980.08708      58839.053      58.152334    
     20830   1477.8853     -5392.8252     -5099.5916      1045.3439      58801.007      58.070059    
     20840   1487.6655     -5395.8376     -5100.6635      1238.9634      58760.859      57.971106    
     20850   1475.17       -5394.731      -5102.0361      1558.0305      58718.909      57.860089    
     20860   1453.1701     -5391.9708     -5103.6411      1748.3815      58675.726      57.748348    
     20870   1450.5982     -5393.2339     -5105.4144      1566.2864      58631.665      57.645356    
     20880   1425.9423     -5390.1855     -5107.2582      1454.2302      58586.654      57.545877    
     20890   1398.5268     -5386.4572     -5108.9694      1423.0598      58540.745      57.443319    
     20900   1404.9725     -5389.2374     -5110.4708      1306.1715      58494.209      57.345908    
     20910   1386.9172     -5386.9017     -5111.7175      1510.4387      58447.005      57.257312    
     20920   1363.6148     -5383.24       -5112.6793      1974.0006      58399.089      57.174622    
     20930   1357.1614     -5382.5874     -5113.3071      2489.8675      58350.637      57.088421    
     20940   1378.5951     -5387.1632     -5113.6302      2818.5889      58301.915      56.992196    
     20950   1401.231      -5391.7888     -5113.7645      2958.3003      58253.179      56.894275    
     20960   1424.3344     -5396.4016     -5113.7933      2878.7309      58204.755      56.800465    
     20970   1428.162      -5397.16       -5113.7922      2832.3442      58156.957      56.702138    
     20980   1425.0436     -5396.5397     -5113.7906      2773.0729      58109.892      56.598745    
     20990   1447.5327     -5401.0294     -5113.8182      2566.1748      58063.42       56.495757    
     21000   1447.7014     -5401.1455     -5113.9008      2485.317       58017.305      56.388534    
     21010   1454.9267     -5402.7729     -5114.0947      2228.6103      57971.248      56.272282    
     21020   1448.6927     -5401.8311     -5114.3897      2191.6837      57924.873      56.142022    
     21030   1423.1899     -5397.137      -5114.7557      2567.6709      57878.1        56.009474    
     21040   1407.8995     -5394.4574     -5115.11        2927.0741      57831.104      55.88673     
     21050   1404.4622     -5394.0615     -5115.3961      3061.2291      57784.121      55.769422    
     21060   1415.8484     -5396.551      -5115.6264      2859.2037      57737.371      55.652644    
     21070   1422.3262     -5398.0334     -5115.8235      2687.7842      57691.218      55.527363    
     21080   1426.2681     -5399.0101     -5116.0181      2790.3703      57646.47       55.383429    
     21090   1424.3611     -5398.8237     -5116.2101      3014.1011      57603.928      55.224209    
     21100   1431.4319     -5400.457      -5116.4404      3217.6723      57564.062      55.069653    
     21110   1442.0116     -5402.8539     -5116.7381      3312.9834      57526.9        54.938793    
     21120   1442.084      -5403.2831     -5117.153       3299.8494      57492.099      54.839789    
     21130   1435.0216     -5402.428      -5117.6991      3209.9481      57459.148      54.747789    
     21140   1424.1707     -5400.9445     -5118.3686      3256.5198      57427.339      54.672337    
     21150   1424.7903     -5401.8519     -5119.1531      3228.456       57396.262      54.622756    
     21160   1417.1625     -5401.2367     -5120.0514      3298.4477      57366.152      54.604183    
     21170   1401.8413     -5399.1925     -5121.0471      3370.5365      57337.464      54.614225    
     21180   1397.1402     -5399.3339     -5122.1212      3302.3727      57310.414      54.636317    
     21190   1398.499      -5400.7606     -5123.2784      3296.3423      57284.967      54.650904    
     21200   1407.2325     -5403.7683     -5124.5532      3396.566       57260.941      54.64842     
     21210   1408.9334     -5405.5074     -5125.9549      3646.975       57238.35       54.634991    
     21220   1407.2252     -5406.7174     -5127.5038      3763.4334      57217.409      54.622741    
     21230   1409.5847     -5408.8228     -5129.141       3580.0061      57198.111      54.608808    
     21240   1434.3243     -5415.4852     -5130.8948      3010.9971      57180.115      54.59171     
     21250   1445.5303     -5419.5637     -5132.7498      2641.0782      57162.738      54.578316    
     21260   1440.5426     -5420.4507     -5134.6264      2499.6586      57145.381      54.569867    
     21270   1433.3529     -5420.8052     -5136.4074      2277.6945      57127.715      54.56357     
     21280   1411.3895     -5417.9879     -5137.948       2159.3158      57109.519      54.555115    
     21290   1381.7076     -5413.2964     -5139.1458      2438.7013      57090.892      54.543985    
     21300   1368.8594     -5411.5869     -5139.9856      2759.1081      57072.223      54.534736    
     21310   1380.9272     -5414.5265     -5140.5308      3090.2925      57053.94       54.527802    
     21320   1383.5734     -5415.4076     -5140.8868      3450.0216      57036.491      54.521632    
     21330   1389.2333     -5416.7629     -5141.1191      3508.5821      57020.122      54.514911    
     21340   1404.2292     -5419.9083     -5141.2891      3267.2939      57004.732      54.510351    
     21350   1396.5758     -5418.5394     -5141.4388      3164.5126      56990.087      54.509267    
     21360   1381.2706     -5415.6222     -5141.5583      3150.6785      56976.103      54.501867    
     21370   1392.061      -5417.8381     -5141.6333      2948.2842      56962.836      54.478553    
     21380   1396.7538     -5418.813      -5141.677       2933.0265      56950.047      54.439652    
     21390   1400.21       -5419.5472     -5141.7255      2972.2655      56937.565      54.399837    
     21400   1390.5005     -5417.6836     -5141.7884      3163.6212      56925.322      54.377855    
     21410   1362.3446     -5412.1194     -5141.8107      3543.3096      56913.392      54.377404    
     21420   1367.6477     -5413.1118     -5141.7509      3574.3832      56902.107      54.385719    
     21430   1365.9625     -5412.6079     -5141.5814      3612.088       56891.809      54.400957    
     21440   1374.4281     -5414.0317     -5141.3255      3630.3983      56882.813      54.415878    
     21450   1376.7852     -5414.1614     -5140.9875      3758.5598      56875.3        54.422777    
     21460   1371.3237     -5412.6841     -5140.5938      3971.2974      56869.331      54.427137    
     21470   1356.4161     -5409.2571     -5140.1247      4151.854       56864.719      54.447062    
     21480   1338.2732     -5405.0522     -5139.5197      4280.0679      56861.132      54.491346    
     21490   1344.8967     -5405.592      -5138.7453      4263.2426      56858.362      54.554295    
     21500   1352.2899     -5406.0963     -5137.7826      4053.82        56856.506      54.621552    
     21510   1387.9835     -5412.085      -5136.6892      3488.2257      56855.641      54.681446    
     21520   1395.8392     -5412.4915     -5135.537       3203.4894      56855.598      54.741189    
     21530   1393.0874     -5410.8501     -5134.4416      3225.9959      56856.361      54.800663    
     21540   1409.5848     -5413.0708     -5133.389       3213.5216      56857.943      54.849896    
     21550   1443.5294     -5418.8778     -5132.4609      3042.4459      56860.243      54.880997    
     21560   1423.2042     -5414.1127     -5131.7286      3290.8684      56863.211      54.917187    
     21570   1412.5689     -5411.4694     -5131.1955      3499.8434      56867.211      54.983143    
     21580   1436.3112     -5415.8009     -5130.8162      3331.2743      56872.487      55.075376    
     21590   1415.9249     -5411.5734     -5130.6336      3615.1167      56878.989      55.180231    
     21600   1388.0272     -5405.9846     -5130.5801      3860.5421      56887.106      55.291473    
     21610   1389.6757     -5406.2853     -5130.5537      3630.5834      56897.122      55.417019    
     21620   1404.2324     -5409.2007     -5130.5809      3441.7047      56908.788      55.563024    
     21630   1393.8052     -5407.2195     -5130.6686      3584.2398      56921.745      55.728629    
     21640   1397.8693     -5408.1885     -5130.8312      3599.4707      56935.732      55.898856    
     21650   1418.6533     -5412.5618     -5131.0806      3328.8568      56950.448      56.056042    
     21660   1412.1627     -5411.6858     -5131.4925      3267.8399      56965.625      56.205946    
     21670   1389.2852     -5407.6974     -5132.0433      3238.6128      56981.155      56.358094    
     21680   1409.6233     -5412.4153     -5132.7258      2581.789       56996.917      56.517103    
     21690   1398.7673     -5411.1064     -5133.571       2145.2895      57012.612      56.68625     
     21700   1390.6402     -5410.5121     -5134.5892      1870.4372      57028.136      56.856481    
     21710   1384.2557     -5410.3986     -5135.7424      1719.7033      57043.579      57.023912    
     21720   1375.5398     -5409.951      -5137.0243      1808.7593      57059.087      57.190042    
     21730   1372.0406     -5410.6216     -5138.3891      2121.9471      57074.753      57.364218    
     21740   1369.9941     -5411.6232     -5139.7967      2166.6414      57090.471      57.542382    
     21750   1381.9131     -5415.4336     -5141.2422      1949.9073      57105.908      57.6978      
     21760   1386.1476     -5417.7275     -5142.696       1809.7251      57120.896      57.827801    
     21770   1367.9866     -5415.5325     -5144.1043      1874.1101      57135.506      57.962433    
     21780   1336.5211     -5410.5326     -5145.3477      2139.1145      57149.9        58.129827    
     21790   1341.8312     -5412.5845     -5146.3459      1907.1781      57164.313      58.308281    
     21800   1333.3095     -5411.6301     -5147.0824      1838.7092      57178.759      58.476726    
     21810   1335.5327     -5412.5808     -5147.592       1775.7166      57193.141      58.631143    
     21820   1343.3937     -5414.4653     -5147.9168      1753.5896      57207.048      58.772161    
     21830   1341.4389     -5414.2723     -5148.1117      2078.411       57220.081      58.91365     
     21840   1331.2156     -5412.3457     -5148.2135      2459.0972      57232.553      59.072413    
     21850   1328.4477     -5411.7777     -5148.1947      2509.076       57245.052      59.247671    
     21860   1336.895      -5413.3425     -5148.0834      2469.4296      57257.588      59.427237    
     21870   1322.75       -5410.3433     -5147.8907      2500.5562      57270.064      59.603479    
     21880   1339.195      -5413.3462     -5147.6307      2246.5265      57282.511      59.766325    
     21890   1354.9556     -5416.1631     -5147.3205      2055.4075      57294.715      59.915704    
     21900   1355.2783     -5415.9236     -5147.017       2041.3975      57306.377      60.054432    
     21910   1344.3197     -5413.4594     -5146.7271      2122.7447      57317.368      60.178576    
     21920   1329.9529     -5410.3041     -5146.4224      2234.4396      57327.696      60.29771     
     21930   1335.7986     -5411.0947     -5146.0532      2213.7438      57337.4        60.424675    
     21940   1345.208      -5412.52       -5145.6115      2006.9888      57346.441      60.566893    
     21950   1355.1673     -5414.0479     -5145.1632      1844.6826      57354.717      60.717733    
     21960   1361.0313     -5414.777      -5144.7289      1823.1277      57362.104      60.855603    
     21970   1356.3503     -5413.4458     -5144.3265      2019.0739      57368.409      60.977213    
     21980   1346.2141     -5411.0471     -5143.939       2405.8776      57373.869      61.093026    
     21990   1347.7202     -5410.9611     -5143.5541      2852.1104      57379.146      61.20858     
     22000   1351.0435     -5411.2192     -5143.1529      3038.017       57384.808      61.323769    
     22010   1350.151      -5410.6439     -5142.7546      2946.8088      57390.938      61.436576    
     22020   1339.5288     -5408.12       -5142.3383      2922.1308      57397.343      61.562634    
     22030   1345.7107     -5408.8967     -5141.8885      2733.3236      57404.014      61.705796    
     22040   1357.2616     -5410.7245     -5141.4243      2512.0033      57410.815      61.852328    
     22050   1364.6715     -5411.7422     -5140.9718      2371.1377      57417.567      61.986319    
     22060   1379.9086     -5414.3657     -5140.5721      2158.2745      57424.271      62.09444     
     22070   1379.9225     -5414.0533     -5140.257       2316.9841      57430.868      62.181598    
     22080   1370.0815     -5411.907      -5140.0632      2694.3843      57437.676      62.259803    
     22090   1364.3298     -5410.6443     -5139.9417      3083.9059      57445.309      62.336606    
     22100   1378.0282     -5413.3488     -5139.9282      3294.605       57454.113      62.413599    
     22110   1380.5271     -5413.934      -5140.0176      3346.4976      57463.86       62.475201    
     22120   1380.7124     -5414.2299     -5140.2767      3119.1256      57474.12       62.532157    
     22130   1377.34       -5414.0002     -5140.7163      2643.2733      57484.527      62.607203    
     22140   1379.7987     -5415.1567     -5141.3849      2140.4877      57494.731      62.701616    
     22150   1361.0551     -5412.3545     -5142.3017      1973.3375      57504.145      62.802552    
     22160   1345.806      -5410.4762     -5143.449       2019.0259      57512.474      62.888803    
     22170   1343.7863     -5411.4331     -5144.8067      2054.9592      57519.785      62.948163    
     22180   1351.0144     -5414.41       -5146.3494      2041.9338      57526.278      62.989301    
     22190   1360.0852     -5417.9286     -5148.0682      1780.3811      57532.129      63.026445    
     22200   1362.1757     -5420.1903     -5149.9151      1527.9915      57537.19       63.070983    
     22210   1363.0185     -5422.2301     -5151.7877      1504.7696      57541.117      63.123709    
     22220   1358.2293     -5423.076      -5153.5839      1507.0019      57543.782      63.175211    
     22230   1350.242      -5423.0958     -5155.1885      1510.131       57545.151      63.222792    
     22240   1345.5281     -5423.5518     -5156.5797      1404.9197      57545.237      63.274104    
     22250   1322.4485     -5420.0944     -5157.7016      1499.1602      57544.166      63.329962    
     22260   1298.968      -5416.3066     -5158.5728      1560.1131      57542.049      63.371776    
     22270   1276.3869     -5412.4149     -5159.1615      1568.6288      57538.909      63.392041    
     22280   1277.7023     -5413.0031     -5159.4886      1436.7098      57534.824      63.403692    
     22290   1287.9618     -5415.1761     -5159.6261      1342.0516      57529.619      63.422457    
     22300   1281.73       -5413.9193     -5159.6057      1479.1906      57523.202      63.459441    
     22310   1304.1794     -5418.2281     -5159.4603      1459.2655      57515.754      63.510842    
     22320   1321.6233     -5421.4717     -5159.2427      1547.2152      57507.461      63.567449    
     22330   1308.2615     -5418.5691     -5158.9913      1892.0145      57498.623      63.616836    
     22340   1325.1952     -5421.653      -5158.7152      1821.7418      57489.829      63.647381    
     22350   1348.2959     -5425.9567     -5158.4355      1584.5238      57481.344      63.675781    
     22360   1348.6903     -5425.8376     -5158.2382      1603.6732      57473.096      63.722556    
     22370   1333.5719     -5422.715      -5158.1152      1835.8999      57465.113      63.789155    
     22380   1340.5168     -5424.0626     -5158.0849      1908.6392      57457.558      63.873196    
     22390   1350.9843     -5426.1573     -5158.1027      1919.7516      57450.385      63.960842    
     22400   1365.2781     -5429.0973     -5158.2066      1980.4921      57443.331      64.057081    
     22410   1369.1564     -5430.1498     -5158.4895      2183.507       57436.04       64.165659    
     22420   1350.6703     -5426.9473     -5158.9549      2482.6819      57428.689      64.282258    
     22430   1331.3935     -5423.7063     -5159.5388      2508.3074      57421.48       64.396184    
     22440   1347.7072     -5427.6464     -5160.242       1984.0003      57413.913      64.481193    
     22450   1345.6197     -5428.0635     -5161.0732      1578.5642      57405.032      64.532574    
     22460   1332.5531     -5426.436      -5162.0384      1338.7316      57394.35       64.561771    
     22470   1315.2552     -5424.0286     -5163.0631      1219.4933      57381.721      64.586503    
     22480   1313.5916     -5424.7529     -5164.1175      1154.6279      57367.159      64.61758     
     22490   1311.1924     -5425.3268     -5165.1674      1266.8272      57350.67       64.651601    
     22500   1296.6869     -5423.4628     -5166.1815      1598.9376      57332.411      64.681591    
     22510   1293.4224     -5423.7502     -5167.1167      1775.279       57312.542      64.702053    
     22520   1292.8867     -5424.4882     -5167.9609      1895.1655      57290.975      64.71246     
     22530   1285.441      -5423.759      -5168.7091      2068.8848      57267.82       64.710246    
     22540   1283.74       -5424.0509     -5169.3385      2160.139       57243.295      64.704337    
     22550   1296.3349     -5427.0765     -5169.8651      2102.1226      57217.603      64.708643    
     22560   1296.3376     -5427.5365     -5170.3245      2221.028       57190.834      64.72439     
     22570   1291.3079     -5426.9414     -5170.7274      2434.3315      57163.116      64.740408    
     22580   1291.6986     -5427.3501     -5171.0586      2661.2979      57134.57       64.738617    
     22590   1305.5549     -5430.3911     -5171.3503      2725.1512      57105.287      64.718794    
     22600   1302.9887     -5430.1417     -5171.6101      2973.5925      57075.586      64.693847    
     22610   1299.6475     -5429.7231     -5171.8545      3160.5359      57046.08       64.677814    
     22620   1301.0614     -5430.2347     -5172.0855      3112.2112      57017.213      64.670784    
     22630   1306.1432     -5431.4659     -5172.3084      2835.055       56989.074      64.657752    
     22640   1312.5727     -5432.9883     -5172.5551      2663.4894      56961.522      64.626251    
     22650   1303.2573     -5431.4264     -5172.8415      2801.2168      56934.125      64.575998    
     22660   1291.2513     -5429.3441     -5173.1414      2966.9839      56906.394      64.517461    
     22670   1302.5939     -5431.9153     -5173.462       2704.5157      56878.128      64.462309    
     22680   1292.9926     -5430.3556     -5173.8073      2625.7879      56849.275      64.402011    
     22690   1264.842      -5425.1001     -5174.1373      2846.977       56819.807      64.336596    
     22700   1254.7363     -5423.3518     -5174.3942      2861.2177      56789.681      64.271331    
     22710   1261.7988     -5424.8972     -5174.5383      2578.3748      56758.988      64.207032    
     22720   1274.2597     -5427.4087     -5174.5773      2427.4572      56727.843      64.150102    
     22730   1275.1817     -5427.5281     -5174.5138      2496.8638      56696.368      64.102813    
     22740   1285.4353     -5429.4049     -5174.3561      2432.1314      56664.771      64.064051    
     22750   1313.1962     -5434.6849     -5174.128       2234.3026      56633.106      64.04791     
     22760   1330.49       -5437.8655     -5173.8772      2298.6848      56601.272      64.061       
     22770   1347.7743     -5441.1251     -5173.7074      2441.1783      56569.257      64.08946     
     22780   1358.4782     -5443.2473     -5173.7058      2712.8934      56537.175      64.11065     
     22790   1362.1835     -5444.2405     -5173.9638      2829.2594      56505.213      64.106896    
     22800   1357.3281     -5443.8647     -5174.5514      2886.642       56473.595      64.091668    
     22810   1342.9311     -5441.9326     -5175.4758      3012.0675      56442.617      64.078147    
     22820   1329.6476     -5440.515      -5176.6939      2974.0198      56412.534      64.060965    
     22830   1318.6153     -5439.7661     -5178.134       2855.6863      56383.3        64.036996    
     22840   1320.4351     -5441.7081     -5179.7149      2562.4055      56354.747      64.000897    
     22850   1323.668      -5444.0105     -5181.3758      2385.3552      56326.865      63.96383     
     22860   1320.4843     -5445.071      -5183.068       2444.6927      56299.527      63.93656     
     22870   1329.7815     -5448.5925     -5184.7448      2491.4077      56272.519      63.918913    
     22880   1308.3979     -5445.9712     -5186.3663      2866.516       56245.726      63.90391     
     22890   1273.7369     -5440.5234     -5187.7958      3343.6074      56219.519      63.897978    
     22900   1253.3694     -5437.6553     -5188.9688      3559.0406      56194.645      63.911918    
     22910   1247.7251     -5437.4539     -5189.8873      3438.0171      56171.689      63.938356    
     22920   1260.8957     -5440.7856     -5190.6059      3213.3422      56150.734      63.968491    
     22930   1270.3867     -5443.2594     -5191.1965      3046.4108      56131.625      63.99622     
     22940   1281.9746     -5446.0873     -5191.7252      2998.2759      56114.158      64.009051    
     22950   1285.0798     -5447.209      -5192.2307      2923.1867      56098.099      64.005565    
     22960   1282.6733     -5447.2467     -5192.746       2853.9369      56083.162      63.999653    
     22970   1267.245      -5444.6898     -5193.2503      2941.9955      56069.119      64.00577     
     22980   1254.0676     -5442.524      -5193.6991      2962.2904      56056.113      64.027947    
     22990   1259.6177     -5444.009      -5194.0829      2702.6175      56044.208      64.054378    
     23000   1258.4132     -5444.0999     -5194.4126      2522.4462      56032.998      64.068132    
     23010   1237.095      -5440.1254     -5194.668       2383.0485      56022.132      64.068504    
     23020   1239.4677     -5440.7428     -5194.8147      2193.9114      56011.319      64.062817    
     23030   1264.645      -5445.7826     -5194.8589      1963.6305      56000.259      64.059977    
     23040   1282.1778     -5449.2737     -5194.8712      1977.8114      55988.814      64.057492    
     23050   1279.2937     -5448.7416     -5194.9114      2278.2264      55977.097      64.051889    
     23060   1271.9618     -5447.3544     -5194.9789      2620.3085      55965.407      64.048037    
     23070   1254.1245     -5443.8845     -5195.0483      2840.9876      55954.023      64.06465     
     23080   1245.559      -5442.2025     -5195.0658      2862.4673      55943.075      64.098424    
     23090   1251.9926     -5443.4205     -5195.0073      2881.1106      55932.521      64.134847    
     23100   1260.3268     -5444.9575     -5194.8906      2831.7456      55922.381      64.173865    
     23110   1272.6938     -5447.2632     -5194.7425      2764.5687      55912.688      64.219489    
     23120   1282.9264     -5449.1492     -5194.5982      2763.4132      55903.425      64.267436    
     23130   1278.0336     -5448.0842     -5194.5041      2795.4419      55894.69       64.306308    
     23140   1256.6863     -5443.7827     -5194.4382      3010.2011      55886.522      64.338036    
     23150   1263.1117     -5444.9788     -5194.3593      2894.4251      55879.029      64.383364    
     23160   1265.3114     -5445.312      -5194.2561      2725.8372      55872.133      64.449636    
     23170   1276.7202     -5447.4924     -5194.1729      2456.0437      55865.464      64.530026    
     23180   1281.2916     -5448.3512     -5194.1246      2303.4859      55858.361      64.6111      
     23190   1281.7058     -5448.4581     -5194.1494      2366.1906      55850.44       64.677552    
     23200   1267.706      -5445.772      -5194.2409      2566.0791      55841.868      64.727801    
     23210   1272.6009     -5446.8853     -5194.383       2684.0069      55833.1        64.776046    
     23220   1278.4862     -5448.264      -5194.5941      2913.9158      55824.327      64.832556    
     23230   1255.4123     -5443.964      -5194.8722      3539.8545      55815.629      64.897775    
     23240   1255.4869     -5444.3049     -5195.1984      3846.7877      55807.472      64.96902     
     23250   1255.9009     -5444.7231     -5195.5344      3898.8811      55800.181      65.047788    
     23260   1271.0341     -5448.1267     -5195.9353      3710.894       55793.733      65.132103    
     23270   1264.6717     -5447.3481     -5196.4192      3730.0519      55787.692      65.209357    
     23280   1275.1367     -5450.0189     -5197.0135      3827.7543      55781.767      65.258077    
     23290   1298.4567     -5455.3942     -5197.7618      3738.3793      55775.847      65.27049     
     23300   1301.8521     -5457.0725     -5198.7664      3747.2904      55769.881      65.269669    
     23310   1272.2944     -5452.4187     -5199.9773      3879.6573      55764.235      65.290694    
     23320   1258.5944     -5451.041      -5201.3179      3786.4085      55759.338      65.350295    
     23330   1257.7923     -5452.2546     -5202.6906      3555.696       55755.283      65.453196    
     23340   1251.9495     -5452.4575     -5204.0528      3335.2058      55751.923      65.593718    
     23350   1232.0034     -5449.7717     -5205.3246      3299.8316      55749.106      65.739893    
     23360   1237.3401     -5451.9606     -5206.4546      3056.6837      55746.722      65.86284     
     23370   1237.5923     -5452.9812     -5207.4252      2857.6141      55744.452      65.965266    
     23380   1241.7348     -5454.6478     -5208.2699      2732.3063      55741.963      66.055444    
     23390   1241.4798     -5455.3334     -5209.006       2763.0509      55739.133      66.139353    
     23400   1230.9665     -5453.8828     -5209.6414      2959.0002      55736.287      66.220231    
     23410   1217.1704     -5451.6504     -5210.1463      3181.1935      55733.981      66.304328    
     23420   1232.708      -5455.1301     -5210.5432      3113.4121      55732.448      66.391009    
     23430   1228.9515     -5454.691      -5210.8495      3074.2555      55731.472      66.486387    
     23440   1222.3836     -5453.6235     -5211.0851      3060.4805      55730.69       66.590953    
     23450   1229.3394     -5455.1737     -5211.2552      2831.1302      55729.805      66.697588    
     23460   1212.4361     -5451.9199     -5211.3552      2824.2867      55728.667      66.81178     
     23470   1196.0275     -5448.665      -5211.356       2969.7628      55727.291      66.947477    
     23480   1191.1297     -5447.5583     -5211.2212      3112.5428      55725.757      67.103985    
     23490   1189.114      -5446.8805     -5210.9432      3279.4037      55724.293      67.266226    
     23500   1168.021      -5442.2443     -5210.4922      3644.5251      55723.152      67.420109    
     23510   1164.1632     -5440.8252     -5209.8385      3753.0706      55722.631      67.553056    
     23520   1189.017      -5444.892      -5208.974       3464.605       55722.781      67.670661    
     23530   1204.5388     -5446.9471     -5207.9494      3124.233       55723.322      67.788075    
     23540   1225.754      -5450.0739     -5206.8667      2616.803       55723.909      67.899887    
     23550   1238.5498     -5451.5588     -5205.8128      2249.954       55724.064      67.997782    
     23560   1243.9948     -5451.6866     -5204.8603      2337.2331      55723.432      68.077622    
     23570   1236.7943     -5449.4114     -5204.0137      2627.1217      55722.155      68.138385    
     23580   1263.4682     -5454.0271     -5203.3369      2424.7214      55720.475      68.186124    
     23590   1252.2744     -5451.2655     -5202.7963      2501.3247      55718.286      68.231817    
     23600   1250.3173     -5450.502      -5202.4211      2597.2504      55715.863      68.293689    
     23610   1250.6982     -5450.3082     -5202.1518      2585.7232      55713.803      68.395703    
     23620   1261.1151     -5452.2188     -5201.9955      2453.6878      55712.187      68.541702    
     23630   1258.1057     -5451.5889     -5201.9627      2607.3395      55710.678      68.71396     
     23640   1232.3478     -5446.5366     -5202.0212      3018.1093      55709.294      68.878567    
     23650   1216.3152     -5443.4388     -5202.1045      3259.599       55708.53       69.001215    
     23660   1212.513      -5442.7332     -5202.1532      3292.3476      55708.708      69.086332    
     23670   1215.5705     -5443.3315     -5202.1449      3264.1308      55709.748      69.142856    
     23680   1216.9794     -5443.5623     -5202.0961      3354.9808      55711.484      69.181509    
     23690   1225.7573     -5445.2582     -5202.0504      3388.8467      55713.937      69.21585     
     23700   1238.4551     -5447.7341     -5202.0069      3272.0932      55717.164      69.262474    
     23710   1239.4702     -5447.9425     -5202.0139      2937.0053      55720.724      69.337072    
     23720   1222.234      -5444.5803     -5202.0716      2784.1289      55723.889      69.439402    
     23730   1217.4542     -5443.6967     -5202.1363      2588.7379      55726.137      69.546136    
     23740   1216.0176     -5443.4733     -5202.198       2541.6608      55727.261      69.637035    
     23750   1215.5784     -5443.4286     -5202.2404      2512.5863      55727.319      69.709114    
     23760   1211.7153     -5442.6855     -5202.2639      2567.2154      55726.475      69.781554    
     23770   1216.8216     -5443.7157     -5202.2809      2559.3294      55725.079      69.855463    
     23780   1229.2331     -5446.1862     -5202.2887      2471.0272      55723.477      69.919559    
     23790   1245.8508     -5449.548      -5202.3533      2371.4141      55721.827      69.968665    
     23800   1237.6624     -5448.0875     -5202.5176      2521.8971      55719.808      69.995745    
     23810   1210.1732     -5442.8752     -5202.7595      2937.0022      55717.21       70.014212    
     23820   1198.9763     -5440.9047     -5203.0106      3115.3026      55714.091      70.036034    
     23830   1207.6197     -5442.8591     -5203.2501      3047.3885      55710.477      70.06032     
     23840   1218.5003     -5445.2673     -5203.4994      2898.6251      55706.5        70.084142    
     23850   1228.863      -5447.6455     -5203.8215      2845.6791      55702.326      70.101406    
     23860   1229.3493     -5448.1743     -5204.2538      2909.8143      55698.082      70.110942    
     23870   1243.1079     -5451.5383     -5204.8879      2984.3278      55693.827      70.12209     
     23880   1229.3921     -5449.6802     -5205.7512      3332.046       55689.605      70.147977    
     23890   1241.3903     -5453.2405     -5206.9309      3304.1423      55685.377      70.201254    
     23900   1242.1275     -5454.9265     -5208.4706      3093.8681      55680.872      70.288203    
     23910   1229.0693     -5454.2073     -5210.3423      3018.0267      55675.748      70.390885    
     23920   1208.0095     -5452.0378     -5212.3515      3047.4087      55670.052      70.489892    
     23930   1197.597      -5451.9023     -5214.282       2908.3496      55663.9        70.572388    
     23940   1182.6525     -5450.5851     -5215.9299      2786.664       55657.131      70.634985    
     23950   1179.3876     -5451.2443     -5217.2369      2622.802       55649.677      70.693465    
     23960   1174.6447     -5451.286      -5218.2197      2435.7035      55641.496      70.768361    
     23970   1163.6966     -5449.8131     -5218.919       2362.5409      55632.419      70.864075    
     23980   1158.4658     -5449.2279     -5219.3717      2240.6456      55622.485      70.971135    
     23990   1153.4094     -5448.4816     -5219.6286      2153.1523      55611.823      71.074551    
     24000   1149.0804     -5447.6964     -5219.7024      2251.4371      55600.521      71.174499    
     24010   1150.5802     -5447.907      -5219.6154      2523.7204      55588.816      71.2832      
     24020   1152.1193     -5447.9659     -5219.369       2783.9708      55577.127      71.402326    
     24030   1182.8188     -5453.688      -5218.9998      2819.709       55565.625      71.511485    
     24040   1210.2943     -5458.7153     -5218.5756      2881.118       55554.337      71.596174    
     24050   1245.6302     -5465.3723     -5218.2214      2780.7528      55543.293      71.663642    
     24060   1247.4616     -5465.5294     -5218.0152      2802.4576      55532.406      71.736513    
     24070   1236.659      -5463.3761     -5218.0052      2816.6463      55521.663      71.830126    
     24080   1209.6747     -5458.1404     -5218.1236      2864.2883      55511.024      71.949406    
     24090   1197.9217     -5455.9984     -5218.3136      2911.739       55500.697      72.085028    
     24100   1197.9297     -5456.2123     -5218.5259      2844.7907      55491.167      72.220104    
     24110   1193.8907     -5455.641      -5218.756       2897.4491      55482.796      72.349632    
     24120   1178.2716     -5452.7728     -5218.9869      3045.1366      55475.568      72.468156    
     24130   1176.6818     -5452.6663     -5219.1957      2938.3461      55469.321      72.576091    
     24140   1178.5706     -5453.2112     -5219.3659      2675.0146      55463.616      72.680372    
     24150   1184.3126     -5454.4915     -5219.5069      2462.5387      55457.911      72.787768    
     24160   1192.4894     -5456.2537     -5219.6467      2312.6512      55451.894      72.901601    
     24170   1193.2333     -5456.5627     -5219.8082      2318.1672      55445.366      73.007462    
     24180   1193.3636     -5456.7839     -5220.0035      2283.4406      55438.051      73.091275    
     24190   1186.4511     -5455.6512     -5220.2423      2431.7679      55429.765      73.156797    
     24200   1168.6275     -5452.3638     -5220.4913      2688.275       55420.67       73.214331    
     24210   1155.5438     -5449.9801     -5220.7037      2823.012       55411.095      73.252515    
     24220   1146.2143     -5448.2578     -5220.8325      2808.6454      55401.228      73.261774    
     24230   1135.5514     -5446.1528     -5220.8432      2728.0223      55391.107      73.262164    
     24240   1137.7582     -5446.4495     -5220.7019      2622.3502      55380.666      73.264157    
     24250   1135.1299     -5445.6013     -5220.3753      2616.497       55369.77       73.26896     
     24260   1151.1815     -5448.2659     -5219.855       2536.0785      55358.377      73.279223    
     24270   1172.4848     -5451.7921     -5219.1543      2489.6769      55346.493      73.300581    
     24280   1177.9402     -5452.0404     -5218.3202      2645.226       55334.344      73.339201    
     24290   1199.0533     -5455.3037     -5217.3944      2628.1964      55322.294      73.381176    
     24300   1224.9455     -5459.4943     -5216.4475      2383.5026      55310.386      73.407464    
     24310   1220.1539     -5457.6742     -5215.5782      2323.7098      55298.75       73.421065    
     24320   1214.9877     -5455.9094     -5214.8385      2336.1127      55287.692      73.435585    
     24330   1202.1844     -5452.7238     -5214.1932      2546.973       55277.263      73.4615      
     24340   1208.059      -5453.3361     -5213.6399      2771.4991      55267.499      73.507729    
     24350   1210.9191     -5453.4335     -5213.1698      3103.7217      55258.541      73.568228    
     24360   1220.0943     -5454.9031     -5212.8189      3380.5141      55250.625      73.625348    
     24370   1225.0317     -5455.6783     -5212.6145      3548.3386      55243.852      73.669809    
     24380   1222.5756     -5455.1646     -5212.588       3555.1045      55238.236      73.700772    
     24390   1214.1059     -5453.64       -5212.744       3477.7999      55233.661      73.734027    
     24400   1204.6578     -5452.11       -5213.0886      3503.0721      55229.975      73.795904    
     24410   1190.0618     -5449.7113     -5213.586       3601.1665      55227.175      73.879358    
     24420   1181.9589     -5448.7372     -5214.2196      3627.1252      55225.444      73.962817    
     24430   1188.2006     -5450.7418     -5214.9858      3417.5331      55224.826      74.040766    
     24440   1184          -5450.8301     -5215.9075      3198.1796      55224.966      74.12177     
     24450   1170.103      -5449.1345     -5216.9693      3095.4627      55225.448      74.207468    
     24460   1157.6253     -5447.7986     -5218.1091      3081.4566      55225.917      74.283789    
     24470   1142.9415     -5446.0452     -5219.2692      3076.7537      55226.225      74.3543      
     24480   1128.1907     -5444.2094     -5220.3602      3113.6835      55226.363      74.439754    
     24490   1136.344      -5446.8018     -5221.3348      3044.5335      55226.391      74.544584    
     24500   1148.5112     -5450.0889     -5222.2078      2956.8606      55226.322      74.655448    
     24510   1145.8251     -5450.3467     -5222.9986      3065.3413      55226.334      74.761623    
     24520   1153.5        -5452.5674     -5223.6965      3036.2717      55226.675      74.854048    
     24530   1176.7156     -5457.8361     -5224.3588      2728.6408      55227.181      74.92507     
     24540   1200.2432     -5463.1882     -5225.0428      2272.0703      55227.432      74.978147    
     24550   1229.4745     -5469.7936     -5225.8482      1836.819       55227.009      75.003773    
     24560   1225.7275     -5470.025      -5226.8231      1895.2765      55225.776      74.995438    
     24570   1205.578      -5467.1151     -5227.9112      2311.9526      55223.804      74.94887     
     24580   1189.6868     -5465.0544     -5229.0035      2691.9272      55221.151      74.868786    
     24590   1175.2204     -5463.1835     -5230.0029      2895.5492      55217.878      74.78382     
     24600   1167.1192     -5462.4485     -5230.8753      2894.1616      55214.02       74.724355    
     24610   1162.9966     -5462.3606     -5231.6054      2765.2212      55209.701      74.70131     
     24620   1161.4883     -5462.6682     -5232.2123      2646.8015      55204.996      74.697344    
     24630   1170.0863     -5464.8999     -5232.738       2493.4619      55199.77       74.694826    
     24640   1171.7257     -5465.714      -5233.2268      2472.3935      55193.871      74.692301    
     24650   1158.7247     -5463.601      -5233.6934      2478.7086      55187.177      74.697209    
     24660   1147.2036     -5461.7479     -5234.1263      2554.5471      55179.701      74.707047    
     24670   1132.2167     -5459.1259     -5234.4778      2738.1472      55171.752      74.71623     
     24680   1137.66       -5460.4911     -5234.763       2725.6573      55163.666      74.718938    
     24690   1130.2221     -5459.2189     -5234.9666      2837.0422      55155.427      74.729854    
     24700   1132.9784     -5459.9209     -5235.1218      2802.7393      55147.017      74.765549    
     24710   1132.9143     -5459.9985     -5235.2121      2846.9928      55138.273      74.819177    
     24720   1145.802      -5462.6111     -5235.2676      2894.6431      55128.941      74.871594    
     24730   1153.1955     -5464.1221     -5235.3116      3215.8301      55119.007      74.915361    
     24740   1152.6943     -5464.095      -5235.3839      3514.0367      55108.773      74.941458    
     24750   1165.8152     -5466.8064     -5235.492       3472.9493      55098.576      74.943952    
     24760   1182.5391     -5470.3136     -5235.6809      3143.9125      55088.482      74.936586    
     24770   1178.6922     -5469.884      -5236.0146      2915.6391      55078.475      74.930728    
     24780   1167.3067     -5468.0804     -5236.4701      2816.1548      55068.557      74.934062    
     24790   1173.2042     -5469.8427     -5237.0621      2768.6354      55058.682      74.956577    
     24800   1158.9454     -5467.7102     -5237.7588      3121.797       55048.829      74.989803    
     24810   1152.6877     -5467.2437     -5238.5339      3370.6239      55039.374      75.032938    
     24820   1170.0477     -5471.5375     -5239.3832      3246.4434      55030.788      75.088681    
     24830   1172.9306     -5473.0737     -5240.3475      3079.6687      55023.004      75.143787    
     24840   1156.2011     -5470.823      -5241.4161      3121.6763      55015.614      75.195865    
     24850   1129.8968     -5466.6665     -5242.4788      3380.4075      55008.657      75.256133    
     24860   1122.5233     -5466.1754     -5243.4507      3546.875       55002.664      75.320124    
     24870   1131.6219     -5468.8403     -5244.3103      3541.1929      54997.909      75.373767    
     24880   1146.4866     -5472.5903     -5245.111       3332.8322      54994.276      75.418818    
     24890   1140.9053     -5472.2333     -5245.8613      3248.6428      54991.644      75.456665    
     24900   1133.6338     -5471.4858     -5246.5567      3117.1555      54990.1        75.482131    
     24910   1110.4745     -5467.4879     -5247.1539      3097.6749      54989.648      75.503201    
     24920   1111.8679     -5468.2449     -5247.6344      2754.349       54990.166      75.524315    
     24930   1125.9063     -5471.4075     -5248.0115      2463.3131      54991.272      75.541162    
     24940   1121.6101     -5470.8691     -5248.3256      2624.8553      54992.587      75.558628    
     24950   1112.7894     -5469.3746     -5248.5813      3050.957       54994.136      75.582385    
     24960   1105.5351     -5468.1116     -5248.7576      3450.0062      54996.094      75.610636    
     24970   1117.6374     -5470.6154     -5248.8601      3501.1527      54998.679      75.633533    
     24980   1129.6531     -5473.0543     -5248.915       3393.2177      55001.965      75.650206    
     24990   1151.6889     -5477.5122     -5249.0006      3185.6499      55005.833      75.669189    
     25000   1143.2226     -5475.9738     -5249.142       3320.49        55010.16       75.679946    
     25010   1144.0818     -5476.3605     -5249.3583      3337.9267      55014.961      75.681988    
     25020   1134.8969     -5474.7935     -5249.6137      3539.1951      55020.216      75.688202    
     25030   1136.0402     -5475.3204     -5249.9138      3578.7722      55026.122      75.705876    
     25040   1137.055      -5475.8613     -5250.2533      3567.5251      55032.909      75.742538    
     25050   1132.1872     -5475.2728     -5250.6307      3389.4739      55040.543      75.807627    
     25060   1135.682      -5476.3751     -5251.0395      2926.8296      55048.543      75.904997    
     25070   1145.3639     -5478.7471     -5251.4905      2374.0571      55056.107      76.018657    
     25080   1145.7781     -5479.3711     -5252.0323      2128.2614      55062.459      76.112649    
     25090   1134.2227     -5477.7015     -5252.6555      2252.5338      55067.085      76.182885    
     25100   1117.8167     -5475.0992     -5253.3084      2485.3854      55069.688      76.243468    
     25110   1117.9878     -5475.7855     -5253.9607      2481.9385      55070.238      76.299506    
     25120   1127.2953     -5478.2867     -5254.6152      2208.3915      55068.891      76.346075    
     25130   1127.389      -5478.9734     -5255.2833      1991.1069      55065.835      76.388473    
     25140   1124.3325     -5479.0565     -5255.9728      1805.8046      55061.366      76.425017    
     25150   1110.7961     -5477.0504     -5256.6526      1889.6825      55055.722      76.447138    
     25160   1087.5748     -5473.0477     -5257.2573      2121.7245      55049.012      76.453345    
     25170   1094.7042     -5474.9561     -5257.7511      2152.0423      55041.122      76.448749    
     25180   1108.0231     -5478.0073     -5258.1597      2210.8523      55031.782      76.44128     
     25190   1111.7471     -5479.1111     -5258.5245      2414.712       55020.954      76.434608    
     25200   1104.1834     -5477.9301     -5258.8443      2724.622       55008.835      76.429633    
     25210   1101.5651     -5477.6803     -5259.114       2837.7029      54995.579      76.421349    
     25220   1097.8842     -5477.1639     -5259.328       2859.0123      54981.096      76.409732    
     25230   1092.1232     -5476.1689     -5259.4761      2974.0181      54965.475      76.403498    
     25240   1099.2426     -5477.6642     -5259.5587      3018.056       54949.23       76.405187    
     25250   1114.2236     -5480.6876     -5259.6097      2915.472       54933.011      76.412353    
     25260   1105.9366     -5479.0847     -5259.651       2904.3833      54917.248      76.435691    
     25270   1106.6474     -5479.2762     -5259.7016      2849.5353      54902.102      76.492716    
     25280   1104.2741     -5478.8529     -5259.7491      2684.4548      54887.372      76.564991    
     25290   1097.7554     -5477.6016     -5259.7912      2618.8215      54872.696      76.626431    
     25300   1096.2139     -5477.3218     -5259.8172      2531.3371      54857.718      76.669157    
     25310   1099.3731     -5477.9634     -5259.832       2528.9176      54842.058      76.692429    
     25320   1104.4473     -5478.9719     -5259.8338      2679.458       54825.566      76.697222    
     25330   1114.2594     -5480.9348     -5259.8498      2845.3436      54808.287      76.683231    
     25340   1121.4736     -5482.4293     -5259.9129      2956.4395      54790.342      76.658654    
     25350   1120.5623     -5482.3751     -5260.0395      3041.967       54771.785      76.634354    
     25360   1112.6398     -5480.9908     -5260.2272      3083.487       54752.752      76.617906    
     25370   1109.8073     -5480.6503     -5260.4486      3029.9325      54733.457      76.621296    
     25380   1112.1854     -5481.3728     -5260.6993      2922.4522      54714.121      76.633897    
     25390   1106.6681     -5480.5547     -5260.9759      2849.885       54694.822      76.63222     
     25400   1113.8673     -5482.3019     -5261.2946      2646.735       54675.685      76.607175    
     25410   1120.5236     -5483.981      -5261.653       2614.5268      54656.757      76.563409    
     25420   1140.0825     -5488.3209     -5262.1122      2529.1597      54637.919      76.518837    
     25430   1140.64       -5489.038      -5262.7186      2592.6782      54619.026      76.493954    
     25440   1125.2394     -5486.7338     -5263.4701      2818.5782      54600.091      76.495148    
     25450   1100.6318     -5482.6626     -5264.2815      3044.5478      54581.186      76.509389    
     25460   1095.3133     -5482.4158     -5265.0899      3142.7294      54562.344      76.52209     
     25470   1092.8503     -5482.6989     -5265.8617      3250.7413      54543.722      76.533155    
     25480   1076.5222     -5480.1643     -5266.5669      3460.1154      54525.549      76.547125    
     25490   1066.6591     -5478.8079     -5267.1674      3611.5209      54508.132      76.561368    
     25500   1079.4454     -5481.8361     -5267.6586      3395.0909      54491.768      76.573679    
     25510   1093.9688     -5485.1506     -5268.0915      3085.8147      54476.395      76.581458    
     25520   1086.1336     -5484.0033     -5268.4988      3043.9819      54461.735      76.588298    
     25530   1077.4121     -5482.6498     -5268.8758      3108.8001      54447.703      76.607419    
     25540   1058.5148     -5479.1946     -5269.1701      3239.6186      54434.395      76.646432    
     25550   1068.0918     -5481.3054     -5269.3807      3080.6258      54421.993      76.70024     
     25560   1070.0883     -5481.8324     -5269.5116      2995.7453      54410.465      76.762571    
     25570   1061.7305     -5480.2529     -5269.5904      3048.0179      54399.686      76.822579    
     25580   1054.6589     -5478.8577     -5269.5982      3089.7539      54389.456      76.868382    
     25590   1059.5176     -5479.7534     -5269.53        3084.0752      54379.598      76.901486    
     25600   1069.5821     -5481.6101     -5269.3897      3102.6146      54370.288      76.932927    
     25610   1088.4036     -5485.1917     -5269.2368      3061.2928      54361.886      76.966608    
     25620   1084.608      -5484.2966     -5269.0949      3113.887       54354.621      76.991702    
     25630   1080.8598     -5483.4456     -5268.9875      2979.5972      54348.746      77.02228     
     25640   1076.0121     -5482.3938     -5268.8976      2717.6087      54344.255      77.068944    
     25650   1073.4394     -5481.8005     -5268.8148      2552.4462      54340.888      77.122313    
     25660   1066.4943     -5480.3218     -5268.714       2587.504       54338.467      77.183265    
     25670   1062.9555     -5479.4993     -5268.5937      2792.0555      54337.01       77.255208    
     25680   1077.6596     -5482.2605     -5268.4374      2837.5572      54336.728      77.340223    
     25690   1100.5884     -5486.6788     -5268.3063      2772.8517      54337.688      77.43861     
     25700   1092.9266     -5485.1019     -5268.2496      2959.033       54339.691      77.540977    
     25710   1090.1876     -5484.5815     -5268.2727      3103.4781      54342.689      77.635457    
     25720   1102.7852     -5487.1769     -5268.3685      2953.3799      54346.531      77.715695    
     25730   1112.6829     -5489.3518     -5268.5796      2717.7415      54350.962      77.794202    
     25740   1117.0168     -5490.5823     -5268.9502      2579.6912      54355.85       77.882032    
     25750   1116.5631     -5491.0616     -5269.5195      2658.3992      54361.361      77.980952    
     25760   1098.3788     -5488.2158     -5270.2817      2998.1985      54367.859      78.085566    
     25770   1101.7449     -5489.8217     -5271.2197      3116.9381      54375.686      78.176884    
     25780   1111.8198     -5492.9681     -5272.3672      3017.3587      54385.009      78.253405    
     25790   1090.3943     -5490.0505     -5273.7007      3164.5085      54395.859      78.336691    
     25800   1063.6347     -5486.1281     -5275.0877      3321.1996      54408.393      78.447575    
     25810   1053.3396     -5485.3821     -5276.3844      3255.5168      54422.86       78.588387    
     25820   1049.3561     -5485.6934     -5277.4861      3002.1385      54439.299      78.751425    
     25830   1055.7116     -5487.8302     -5278.3619      2631.0956      54457.349      78.932873    
     25840   1048.2608     -5486.9912     -5279.0013      2417.7848      54476.627      79.128009    
     25850   1047.8901     -5487.3618     -5279.4454      2333.4161      54496.908      79.324527    
     25860   1055.5446     -5489.1566     -5279.7215      2173.6283      54517.915      79.507166    
     25870   1062.1326     -5490.6475     -5279.9051      2242.8873      54539.234      79.67281     
     25880   1046.6119     -5487.7068     -5280.044       2583.3685      54560.622      79.838944    
     25890   1033.2828     -5485.1272     -5280.1091      2833.1457      54582.198      80.018235    
     25900   1046.9501     -5487.8353     -5280.1054      2709.8121      54604.051      80.211554    
     25910   1051.0272     -5488.5883     -5280.0494      2555.67        54625.795      80.405209    
     25920   1048.2504     -5487.9565     -5279.9687      2516.9791      54646.865      80.581302    
     25930   1047.6562     -5487.7471     -5279.8771      2580.9161      54666.875      80.743311    
     25940   1047.3453     -5487.5651     -5279.7568      2715.6492      54685.788      80.904969    
     25950   1045.8902     -5487.1388     -5279.6192      2815.3449      54704.014      81.069889    
     25960   1055.0267     -5488.8102     -5279.4778      2828.5165      54722.184      81.244491    
     25970   1065.1718     -5490.6918     -5279.3464      2835.9216      54740.826      81.425269    
     25980   1065.1101     -5490.5779     -5279.2448      2879.4179      54760.177      81.591837    
     25990   1076.6561     -5492.829      -5279.205       2690.5235      54780.295      81.745256    
     26000   1081.4118     -5493.8104     -5279.2428      2395.1974      54801.016      81.900727    
     26010   1071.5058     -5491.9896     -5279.3875      2225.6122      54822.031      82.061324    
     26020   1044.6106     -5486.859      -5279.5933      2215.0649      54843.063      82.221224    
     26030   1041.0083     -5486.3547     -5279.8038      1962.1301      54863.873      82.380814    
     26040   1047.3203     -5487.8042     -5280.0008      1565.7552      54883.981      82.542925    
     26050   1045.5108     -5487.6401     -5280.1958      1223.5231      54902.888      82.696243    
     26060   1043.0166     -5487.3464     -5280.397       910.81771      54920.249      82.827775    
     26070   1037.1386     -5486.3818     -5280.5987      736.95585      54935.793      82.943346    
     26080   1024.1051     -5483.9802     -5280.7831      919.97517      54949.285      83.049976    
     26090   1010.1267     -5481.3369     -5280.9133      1349.123       54960.87       83.14281     
     26100   1008.4363     -5481.0476     -5280.9594      1700.9448      54971.108      83.224957    
     26110   1009.0305     -5481.0923     -5280.8862      1904.46        54980.556      83.315033    
     26120   1023.2636     -5483.7407     -5280.7106      1920.6887      54989.439      83.419899    
     26130   1032.345      -5485.2781     -5280.446       1860.5554      54997.655      83.536166    
     26140   1042.8832     -5487.0601     -5280.1371      1746.1594      55004.901      83.652043    
     26150   1054.9332     -5489.1233     -5279.8094      1717.9032      55010.854      83.748379    
     26160   1058.5396     -5489.5364     -5279.507       1888.4967      55015.426      83.810958    
     26170   1057.9486     -5489.1746     -5279.2624      2109.1319      55018.754      83.842746    
     26180   1045.522      -5486.5063     -5279.0598      2396.7277      55021.091      83.869568    
     26190   1044.1024     -5486.0508     -5278.8859      2483.157       55022.755      83.910866    
     26200   1057.2317     -5488.5037     -5278.7337      2395.9307      55023.916      83.964188    
     26210   1062.5725     -5489.4686     -5278.639       2347.3593      55024.635      84.027629    
     26220   1052.2263     -5487.3992     -5278.6224      2407.8693      55025.024      84.096221    
     26230   1065.1098     -5490.0249     -5278.6919      2319.3593      55025.201      84.159572    
     26240   1069.7544     -5491.1451     -5278.8905      2388.7915      55025.092      84.220751    
     26250   1068.8248     -5491.3143     -5279.2442      2558.5351      55024.68       84.28824     
     26260   1072.0492     -5492.5082     -5279.7983      2604.736       55024.141      84.356176    
     26270   1060.3842     -5490.9492     -5280.5538      2708.8232      55023.669      84.417741    
     26280   1034.6039     -5486.7473     -5281.4671      2897.3693      55023.579      84.476528    
     26290   1027.4541     -5486.3148     -5282.4532      2791.9456      55024.213      84.541196    
     26300   1033.0112     -5488.4462     -5283.4819      2448.0444      55025.448      84.613079    
     26310   1026.5623     -5488.2085     -5284.5238      2301.9371      55026.855      84.673473    
     26320   1032.24       -5490.3618     -5285.5506      2158.9046      55028.1        84.701532    
     26330   1033.6012     -5491.6267     -5286.5454      2096.6733      55028.867      84.707766    
     26340   1024.7871     -5490.8218     -5287.4893      2186.7108      55029.017      84.707451    
     26350   1018.3952     -5490.3959     -5288.3317      2147.6053      55028.636      84.703289    
     26360   1027.7511     -5492.9905     -5289.0699      1836.4979      55027.721      84.690543    
     26370   1037.3446     -5495.5719     -5289.7479      1426.722       55026.116      84.667199    
     26380   1042.6055     -5497.2653     -5290.3974      1119.1942      55023.504      84.647407    
     26390   1036.2748     -5496.6471     -5291.0353      1140.4462      55019.499      84.637192    
     26400   1015.2591     -5493.0696     -5291.6276      1444.2659      55013.98       84.63562     
     26410   1011.2769     -5492.7909     -5292.1391      1641.7653      55007.291      84.637279    
     26420   1007.9501     -5492.5536     -5292.5619      1807.7606      54999.77       84.634961    
     26430   1008.7689     -5493.0557     -5292.9015      1856.6445      54991.581      84.622705    
     26440   1013.8574     -5494.3542     -5293.1904      1886.6418      54982.688      84.599099    
     26450   1004.2412     -5492.6924     -5293.4365      2096.5342      54973.105      84.573874    
     26460   1000.9546     -5492.2288     -5293.625       2207.7446      54962.943      84.55145     
     26470   1018.6704     -5495.8894     -5293.7706      1968.7829      54952.286      84.537327    
     26480   1024.4855     -5497.192      -5293.9194      1696.5078      54941.11       84.535453    
     26490   1020.4355     -5496.5599     -5294.0909      1540.5124      54929.42       84.547644    
     26500   1015.2043     -5495.7136     -5294.2826      1528.1968      54917.21       84.569454    
     26510   1004.3901     -5493.7573     -5294.4719      1778.694       54904.489      84.59108     
     26520   1005.3007     -5494.1078     -5294.6417      2060.2166      54891.53       84.604771    
     26530   1009.5752     -5495.1075     -5294.7934      2143.43        54878.611      84.601548    
     26540   1015.3942     -5496.4105     -5294.9418      1982.721       54865.673      84.588548    
     26550   1020.1349     -5497.5297     -5295.1203      1899.7362      54852.38       84.575862    
     26560   1021.519      -5498.0186     -5295.3346      1928.8364      54838.749      84.561076    
     26570   1025.2364     -5499.033      -5295.6114      1951.4937      54824.998      84.543373    
     26580   1018.2943     -5497.9944     -5295.9502      2062.3491      54811.101      84.517526    
     26590   1015.308      -5497.8062     -5296.3545      2133.872       54796.96       84.486252    
     26600   1005.0491     -5496.2238     -5296.8076      2119.4903      54782.515      84.463957    
     26610   1009.9363     -5497.6923     -5297.3064      1952.1593      54767.619      84.453543    
     26620   1015.2961     -5499.3102     -5297.8609      1800.9991      54752.192      84.462182    
     26630   1008.0585     -5498.4957     -5298.4825      1759.7446      54736.259      84.494253    
     26640   1004.5667     -5498.4979     -5299.1775      1584.3865      54719.829      84.530001    
     26650   1003.1375     -5498.963      -5299.9262      1492.2649      54702.837      84.544148    
     26660   1001.1483     -5499.3768     -5300.7347      1518.828       54685.294      84.529082    
     26670   1003.9002     -5500.7831     -5301.5949      1534.6649      54667.406      84.501438    
     26680   1002.737      -5501.4624     -5302.505       1531.5706      54649.344      84.473854    
     26690   991.2229      -5500.1129     -5303.4401      1557.9932      54630.985      84.45193     
     26700   983.17451     -5499.4233     -5304.3474      1541.3838      54612.142      84.448522    
     26710   981.48158     -5499.9404     -5305.2004      1542.5067      54592.776      84.458631    
     26720   961.59485     -5496.7236     -5305.9294      1725.651       54572.948      84.466199    
     26730   964.68445     -5497.9288     -5306.5216      1746.6959      54552.743      84.463678    
     26740   977.80978     -5500.9863     -5306.9749      1699.0785      54532.139      84.456296    
     26750   991.51497     -5504.0728     -5307.342       1760.8225      54511.165      84.447781    
     26760   993.69458     -5504.8301     -5307.6668      1962.7853      54490.175      84.451254    
     26770   983.88004     -5503.1602     -5307.9443      2170.2309      54469.575      84.468934    
     26780   986.61014     -5503.92       -5308.1625      2124.2794      54449.597      84.502238    
     26790   999.9854      -5506.7622     -5308.3508      1944.2199      54430.31       84.55653     
     26800   992.17331     -5505.3856     -5308.5242      1976.0345      54411.595      84.622401    
     26810   995.46883     -5506.2081     -5308.6929      1949.6015      54393.3        84.677106    
     26820   1003.8139     -5508.0275     -5308.8564      1759.8023      54375.314      84.707722    
     26830   1006.7219     -5508.7906     -5309.0426      1543.9575      54357.514      84.722224    
     26840   1003.5969     -5508.3878     -5309.2598      1392.8341      54339.803      84.731047    
     26850   999.15786     -5507.7385     -5309.4913      1335.687       54322.092      84.742361    
     26860   1001.3456     -5508.4204     -5309.7391      1299.0021      54304.27       84.759575    
     26870   985.76183     -5505.5746     -5309.9853      1371.4258      54286.078      84.774032    
     26880   983.81123     -5505.42       -5310.2178      1313.4577      54267.218      84.766587    
     26890   978.95284     -5504.6583     -5310.4201      1325.2931      54247.56       84.733544    
     26900   969.40248     -5502.9229     -5310.5795      1437.7737      54227.245      84.694427    
     26910   959.14193     -5500.9867     -5310.6792      1655.2778      54206.199      84.665474    
     26920   961.56629     -5501.51       -5310.7215      1720.843       54184.223      84.650863    
     26930   970.64073     -5503.2902     -5310.7011      1714.2593      54161.126      84.645912    
     26940   987.43921     -5506.5776     -5310.6556      1684.0226      54137.041      84.659932    
     26950   1000.0052     -5509.0532     -5310.6379      1694.4193      54112.247      84.682119    
     26960   983.27781     -5505.7599     -5310.6635      2069.1734      54086.983      84.696252    
     26970   976.27451     -5504.4185     -5310.7116      2381.1418      54061.827      84.704543    
     26980   984.98562     -5506.1851     -5310.7498      2503.2895      54037.355      84.705242    
     26990   990.73342     -5507.3837     -5310.808       2636.2969      54013.999      84.697749    
     27000   991.83895     -5507.7067     -5310.9116      2804.5318      53992.151      84.684109    
     27010   991.26343     -5507.751      -5311.0701      2976.8952      53972.027      84.670694    
     27020   989.60761     -5507.6462     -5311.2939      3096.3969      53953.695      84.658562    
     27030   989.77317     -5507.9626     -5311.5775      2997.7599      53937.169      84.637309    
     27040   986.31712     -5507.6309     -5311.9314      2805.1024      53922.285      84.611685    
     27050   979.5057      -5506.6919     -5312.3439      2573.3679      53908.779      84.601119    
     27060   972.18093     -5505.7017     -5312.807       2442.959       53896.377      84.611007    
     27070   959.58824     -5503.6831     -5313.2871      2530.9235      53884.849      84.630874    
     27080   953.84263     -5503.0129     -5313.7569      2644.2613      53874.135      84.653283    
     27090   956.2532      -5503.9299     -5314.1956      2585.9945      53864.233      84.680618    
     27100   968.9757      -5506.8988     -5314.6401      2371.9632      53855.04       84.716535    
     27110   967.18738     -5507.0134     -5315.1096      2420.263       53846.416      84.754476    
     27120   958.23272     -5505.7299     -5315.6028      2654.8519      53838.297      84.783189    
     27130   964.4864      -5507.4932     -5316.1252      2623.7872      53830.708      84.806388    
     27140   967.28968     -5508.6105     -5316.6863      2479.8919      53823.597      84.838852    
     27150   960.15479     -5507.8213     -5317.3128      2328.2668      53816.885      84.894254    
     27160   954.61055     -5507.3815     -5317.9731      2147.5514      53810.432      84.967878    
     27170   955.14336     -5508.1985     -5318.6844      2017.3768      53803.963      85.052512    
     27180   948.09096     -5507.5342     -5319.4194      2114.4508      53797.301      85.14166     
     27190   947.99164     -5508.2809     -5320.1858      2290.7236      53790.642      85.229294    
     27200   941.29871     -5507.722      -5320.9549      2588.6311      53784.285      85.314354    
     27210   949.65741     -5510.1592     -5321.7335      2672.6213      53778.531      85.397754    
     27220   953.83026     -5511.7833     -5322.5297      2727.1847      53773.65       85.483455    
     27230   948.8812      -5511.6281     -5323.3564      2757.8207      53769.913      85.569188    
     27240   943.39837     -5511.3516     -5324.1678      2688.7466      53767.497      85.641309    
     27250   961.31201     -5515.7194     -5324.9813      2419.2782      53766.469      85.697652    
     27260   966.22278     -5517.5259     -5325.8134      2314.2538      53766.696      85.747055    
     27270   965.02563     -5518.1484     -5326.6735      2295.6525      53768.136      85.794598    
     27280   950.4348      -5516.0951     -5327.5152      2307.2141      53770.704      85.844437    
     27290   928.66719     -5512.5216     -5328.2607      2396.4069      53774.287      85.905296    
     27300   912.93177     -5509.9757     -5328.837       2522.9079      53778.939      85.985015    
     27310   910.24369     -5509.827      -5329.2216      2605.1683      53784.664      86.084078    
     27320   919.03676     -5511.7786     -5329.4285      2525.0237      53791.139      86.205682    
     27330   930.51273     -5514.1399     -5329.5128      2245.5836      53797.895      86.351152    
     27340   937.83013     -5515.5923     -5329.5134      2024.5898      53804.478      86.503907    
     27350   948.45275     -5517.6687     -5329.4821      1913.6766      53810.481      86.647154    
     27360   950.0359      -5517.954      -5329.4532      1988.6104      53815.69       86.769435    
     27370   944.27323     -5516.7891     -5329.4317      2221.418       53820.145      86.86372     
     27380   939.92395     -5515.9014     -5329.407       2378.1799      53824.124      86.933642    
     27390   934.86324     -5514.8588     -5329.3685      2580.114       53828.021      86.989817    
     27400   931.04348     -5514.0363     -5329.3039      2643.2069      53832.142      87.056015    
     27410   940.0441      -5515.7303     -5329.2121      2577.0224      53836.539      87.159643    
     27420   950.62719     -5517.7383     -5329.1202      2477.5773      53841.231      87.303967    
     27430   948.33191     -5517.2102     -5329.0476      2504.2402      53846.313      87.468616    
     27440   960.82088     -5519.6503     -5329.0096      2322.8975      53851.878      87.632609    
     27450   970.13811     -5521.5201     -5329.0308      2184.5761      53857.749      87.785157    
     27460   951.10294     -5517.8456     -5329.1331      2448.7798      53863.666      87.920455    
     27470   934.75685     -5514.7386     -5329.2695      2667.7906      53869.686      88.034959    
     27480   943.70383     -5516.6488     -5329.4044      2531.0422      53875.914      88.120702    
     27490   947.12598     -5517.4592     -5329.5359      2409.8371      53882.108      88.179808    
     27500   954.57045     -5519.1006     -5329.7001      2345.2254      53887.972      88.236418    
     27510   964.73545     -5521.3495     -5329.9322      2296.4959      53893.396      88.309117    
     27520   953.35255     -5519.4012     -5330.2424      2375.6558      53898.411      88.382527    
     27530   963.80779     -5521.8761     -5330.6428      2179.9008      53903.03       88.441147    
     27540   962.70867     -5522.1555     -5331.1403      2004.0541      53907.019      88.494233    
     27550   950.4232      -5520.3102     -5331.7326      1820.2582      53910.05       88.548825    
     27560   936.67048     -5518.2305     -5332.3816      1734.0396      53911.707      88.615493    
     27570   917.97827     -5515.1653     -5333.0252      1715.3679      53911.584      88.698282    
     27580   909.03504     -5513.9857     -5333.6201      1676.4691      53909.47       88.788576    
     27590   903.47202     -5513.3906     -5334.1288      1812.0932      53905.48       88.873128    
     27600   896.67213     -5512.4396     -5334.527       2029.3515      53899.98       88.940362    
[...]
     48200   763.49387     -5526.6379     -5375.1498      277.11677      57559.606      204.51785    
     48210   759.26086     -5525.6733     -5375.0251      259.24103      57593.611      204.71148    
     48220   761.00056     -5525.9407     -5374.9473      184.10397      57629.071      204.90382    
     48230   760.61145     -5525.8293     -5374.9131      91.393524      57665.495      205.09555    
     48240   749.48044     -5523.624      -5374.9164      104.84494      57702.362      205.28451    
     48250   755.56469     -5524.8461     -5374.9312     -40.940198      57739.571      205.46955    
     48260   761.95495     -5526.1436     -5374.9608     -228.70747      57776.235      205.65018    
     48270   762.34074     -5526.2897     -5375.0304     -290.54225      57811.256      205.81487    
     48280   758.5         -5525.6492     -5375.1519     -233.62614      57844.238      205.95651    
     48290   748.26159     -5523.7745     -5375.3087     -125.07346      57875.504      206.0831     
     48300   746.68076     -5523.6273     -5375.4752     -130.44735      57905.65       206.20093    
     48310   755.09482     -5525.4664     -5375.6448     -292.47925      57934.626      206.31571    
     48320   761.54128     -5526.9456     -5375.8449     -457.77987      57961.475      206.43314    
     48330   761.78536     -5527.2502     -5376.1011     -567.97542      57985.186      206.55098    
     48340   756.7851      -5526.5757     -5376.4187     -623.84987      58005.085      206.6618     
     48350   749.28035     -5525.4554     -5376.7875     -623.19345      58020.842      206.75465    
     48360   738.69862     -5523.7515     -5377.1831     -553.97541      58032.534      206.82391    
     48370   729.77761     -5522.3621     -5377.5637     -465.33777      58040.628      206.88341    
     48380   728.91792     -5522.5269     -5377.8991     -485.01228      58045.62       206.94496    
     48390   729.53356     -5522.9246     -5378.1747     -551.44209      58047.478      207.00716    
     48400   723.42738     -5521.9299     -5378.3916     -531.52501      58045.892      207.06681    
     48410   712.57477     -5519.9055     -5378.5205     -456.59595      58040.996      207.11981    
     48420   719.22452     -5521.2378     -5378.5333     -538.7726       58033.207      207.16284    
     48430   732.42379     -5523.7529     -5378.4296     -642.53529      58022.154      207.19725    
     48440   734.83204     -5524.0305     -5378.2293     -633.17102      58007.292      207.22773    
     48450   737.30223     -5524.2356     -5377.9443     -623.55234      57988.629      207.25511    
     48460   747.4143      -5525.8594     -5377.5617     -635.81677      57966.32       207.26987    
     48470   757.59195     -5527.4275     -5377.1104     -668.29498      57940.325      207.25967    
     48480   753.86856     -5526.1941     -5376.6158     -573.12156      57910.595      207.21785    
     48490   754.59464     -5525.8008     -5376.0784     -464.6584       57877.715      207.14499    
     48500   764.01929     -5527.0906     -5375.4982     -331.921        57842.489      207.04134    
     48510   772.91799     -5528.2625     -5374.9045     -116.15539      57805.789      206.91472    
     48520   778.10885     -5528.7297     -5374.3418      157.83503      57768.961      206.77486    
     48530   781.54223     -5528.9132     -5373.844       439.08893      57733.669      206.62773    
     48540   781.8738      -5528.5712     -5373.4362      782.22205      57701.736      206.48266    
     48550   779.31867     -5527.7509     -5373.1229      1043.3156      57675.154      206.36562    
     48560   780.95185     -5527.8702     -5372.9182      1157.4997      57655.427      206.29861    
     48570   791.7705      -5529.939      -5372.8404      1059.6035      57643.077      206.26869    
     48580   790.50416     -5529.78       -5372.9327      916.94936      57637.486      206.25498    
     48590   785.10738     -5528.9854     -5373.2088      668.11117      57637.636      206.25561    
     48600   793.25767     -5531.0739     -5373.6802      244.28752      57641.842      206.27178    
     48610   794.22882     -5531.9747     -5374.3884     -30.016837      57647.604      206.3002     
     48620   780.72744     -5530.2396     -5375.3321     -135.45784      57653.219      206.33847    
     48630   768.14141     -5528.848      -5376.4378     -210.35083      57657.964      206.37638    
     48640   755.20265     -5527.4359     -5377.5929     -298.61097      57661.324      206.4009     
     48650   742.14864     -5525.9293     -5378.6764     -312.45559      57662.824      206.40656    
     48660   735.1643      -5525.4716     -5379.6044     -283.66719      57662.397      206.39811    
     48670   734.06566     -5525.9974     -5380.3483     -213.47481      57660.236      206.38984    
     48680   740.13048     -5527.7725     -5380.92       -149.05861      57656.788      206.40143    
     48690   754.73738     -5531.1324     -5381.3817     -201.58941      57652.384      206.43983    
     48700   759.88163     -5532.5669     -5381.7955     -204.93578      57646.855      206.49524    
     48710   750.37514     -5531.0618     -5382.1766     -146.64755      57640.169      206.55296    
     48720   741.49965     -5529.6339     -5382.5098     -99.314099      57632.644      206.5997     
     48730   733.98436     -5528.4031     -5382.7701     -59.371061      57624.586      206.62433    
     48740   719.19584     -5525.6371     -5382.9383      125.93053      57616.375      206.61951    
     48750   711.6402      -5524.1803     -5382.9807      279.23421      57609.053      206.58547    
     48760   721.90302     -5526.1234     -5382.8875      180.57056      57603.425      206.53719    
     48770   732.27719     -5527.9812     -5382.6869      75.162973      57599.032      206.49094    
     48780   748.06138     -5530.8549     -5382.4288     -98.037476      57595.093      206.45133    
     48790   761.91817     -5533.337      -5382.1616     -127.81193      57590.684      206.41588    
     48800   769.75785     -5534.6682     -5381.9372     -39.374465      57585.591      206.39351    
     48810   775.32671     -5535.6317     -5381.7958      21.800311      57580.33       206.39922    
     48820   780.45153     -5536.6121     -5381.7593     -73.297674      57575.211      206.42799    
     48830   771.38306     -5534.8953     -5381.8418     -134.66403      57569.733      206.46035    
     48840   756.64716     -5532.1403     -5382.0106     -174.71632      57563.47       206.47513    
     48850   745.24628     -5530.0789     -5382.2113     -183.37192      57556.214      206.4687     
     48860   740.889       -5529.3995     -5382.3965     -209.2832       57547.889      206.44926    
     48870   747.09761     -5530.7941     -5382.5592     -280.50134      57538.323      206.41984    
     48880   750.24705     -5531.5781     -5382.7184     -299.86826      57527.154      206.38491    
     48890   746.21175     -5530.9395     -5382.8804     -199.38746      57514.357      206.34567    
     48900   745.90096     -5531.0402     -5383.0427     -123.65019      57500.442      206.29912    
     48910   741.85229     -5530.3956     -5383.2015      12.655918      57485.93       206.26002    
     48920   732.82266     -5528.736      -5383.3334      227.75388      57471.689      206.24393    
     48930   731.22648     -5528.4987     -5383.4129      457.82204      57458.995      206.25161    
     48940   727.58916     -5527.7856     -5383.4215      751.9754       57449.28       206.27134    
     48950   725.87465     -5527.3663     -5383.3424      1082.8511      57444.327      206.29703    
     48960   730.39529     -5528.075      -5383.1541      1285.3006      57446.037      206.33488    
     48970   738.00528     -5529.2897     -5382.8589      1376.4079      57455.637      206.39538    
     48980   739.28179     -5529.1465     -5382.4624      1359.1298      57473.632      206.48807    
     48990   743.73059     -5529.5237     -5381.9569      1193.9441      57499.872      206.61043    
     49000   751.77119     -5530.4989     -5381.3367      833.93367      57533.219      206.74959    
     49010   752.93111     -5530.0129     -5380.6206      606.81755      57571.633      206.8988     
     49020   750.69996     -5528.7773     -5379.8277      427.13295      57613.639      207.06375    
     49030   750.65745     -5527.9083     -5378.9671      265.80969      57658.099      207.2484     
     49040   744.49337     -5525.7773     -5378.0592      129.17711      57703.978      207.44267    
     49050   746.66735     -5525.269      -5377.1195     -81.480957      57750.376      207.62773    
     49060   758.32736     -5526.6372     -5376.1742     -291.46262      57796.009      207.78394    
     49070   766.69963     -5527.418      -5375.2938     -380.05811      57839.602      207.89493    
     49080   770.09537     -5527.3337     -5374.5358     -298.11592      57880.638      207.9666     
     49090   779.32833     -5528.5616     -5373.9317     -172.23213      57919.557      208.02381    
     49100   781.53634     -5528.5638     -5373.4958     -84.866205      57957.147      208.08912    
     49110   783.20463     -5528.6268     -5373.2278     -86.293985      57993.919      208.167      
     49120   778.63465     -5527.6091     -5373.1169     -77.012865      58029.957      208.25982    
     49130   767.93521     -5525.4902     -5373.1209     -20.182143      58065.365      208.37504    
     49140   761.83172     -5524.3594     -5373.2011      49.698399      58100.483      208.51219    
     49150   767.03164     -5525.5173     -5373.3273      24.220489      58135.689      208.66342    
     49160   772.99483     -5526.8888     -5373.5155      5.4032961      58170.899      208.81583    
     49170   771.82881     -5526.9258     -5373.7839      110.9748       58206.059      208.95582    
     49180   769.50282     -5526.8112     -5374.1308      198.97346      58241.755      209.07578    
     49190   765.43386     -5526.4116     -5374.5386      269.77514      58278.603      209.1818     
     49200   759.27864     -5525.6342     -5374.9824      240.10601      58316.978      209.28944    
     49210   752.26925     -5524.7029     -5375.4419      180.2182       58356.725      209.40584    
     49220   747.98489     -5524.2924     -5375.8814      65.789892      58397.406      209.53531    
     49230   747.05315     -5524.5161     -5376.2901     -69.87245       58438.313      209.68968    
     49240   742.08645     -5523.9042     -5376.6636     -62.380856      58478.733      209.8692     
     49250   737.50417     -5523.3135     -5376.9821     -47.412006      58518.607      210.05395    
     49260   737.76506     -5523.624      -5377.2409     -48.122758      58558.005      210.22601    
     49270   740.47023     -5524.3608     -5377.4409     -109.59065      58596.887      210.3903     
     49280   746.81019     -5525.7711     -5377.5933     -265.936        58634.846      210.56181    
     49290   754.84499     -5527.4989     -5377.7268     -435.37829      58670.95       210.74507    
     49300   758.95609     -5528.458      -5377.8703     -623.81203      58704.096      210.93342    
     49310   753.53513     -5527.5465     -5378.0343     -692.50821      58733.163      211.11491    
     49320   754.45485     -5527.9072     -5378.2126     -792.67257      58757.586      211.27708    
     49330   762.95636     -5529.791      -5378.4095     -937.40871      58776.743      211.40197    
     49340   767.58708     -5530.9541     -5378.6538     -1014.3432      58789.796      211.47885    
     49350   762.35639     -5530.229      -5378.9666     -983.86386      58796.267      211.51639    
     49360   746.20751     -5527.3726     -5379.3143     -786.14362      58796.455      211.53359    
     49370   738.6089      -5526.1941     -5379.6435     -686.10092      58791.479      211.54647    
     49380   739.35154     -5526.6277     -5379.9298     -727.4018       58781.963      211.55049    
     49390   731.91917     -5525.3851     -5380.1619     -705.85771      58767.793      211.5331     
     49400   722.63168     -5523.7013     -5380.3208     -631.27277      58749.096      211.50255    
     49410   724.69538     -5524.1726     -5380.3827     -622.42055      58726.276      211.47036    
     49420   733.95608     -5525.9777     -5380.3503     -705.722        58699.408      211.43014    
     49430   739.58149     -5526.9976     -5380.254      -837.87542      58667.971      211.3703     
     49440   741.21664     -5527.1851     -5380.1171     -957.46148      58631.202      211.28526    
     49450   738.71304     -5526.5142     -5379.9429     -1041.5089      58588.362      211.17908    
     49460   731.73809     -5524.8959     -5379.7086     -1050.7868      58538.953      211.04945    
     49470   728.76996     -5523.9712     -5379.3728     -992.08763      58482.974      210.8836     
     49480   738.56442     -5525.4514     -5378.9097     -943.28441      58420.839      210.68107    
     49490   750.36889     -5527.1807     -5378.2967     -845.42142      58352.983      210.45519    
     49500   759.49007     -5528.2284     -5377.5347     -761.33008      58280.068      210.22192    
     49510   765.47477     -5528.4976     -5376.6164     -747.51373      58202.641      209.99137    
     49520   763.05812     -5526.9316     -5375.53       -651.05334      58121.008      209.76566    
     49530   752.712       -5523.6171     -5374.2682     -454.15637      58035.924      209.54314    
     49540   751.87854     -5522.0281     -5372.8446     -233.74702      57948.684      209.31945    
     49550   754.52924     -5521.0525     -5371.3431      37.562827      57860.789      209.08861    
     49560   756.87196     -5520.0934     -5369.9191      323.07949      57774.068      208.85347    
     49570   770.92417     -5521.6849     -5368.7225      524.66601      57690.34       208.63345    
     49580   789.0196      -5524.3824     -5367.8297      686.77566      57610.894      208.44361    
     49590   800.06498     -5526.0201     -5367.2758      826.58895      57536.721      208.28282    
     49600   800.47561     -5525.848      -5367.0222      983.26163      57468.708      208.14323    
     49610   795.54135     -5524.8464     -5366.9996      1167.9783      57407.797      208.0221     
     49620   799.19409     -5525.7286     -5367.1571      1176.5803      57354.898      207.92703    
     49630   802.43881     -5526.6973     -5367.4819      1188.1692      57310.075      207.85481    
     49640   800.40856     -5526.7826     -5367.9701      1180.8534      57273.234      207.79631    
     49650   799.25712     -5527.1997     -5368.6156      1182.5932      57244.259      207.75188    
     49660   788.77353     -5525.8854     -5369.3814      1197.5904      57222.991      207.73738    
     49670   786.47031     -5526.2834     -5370.2365      1112.5003      57209.34       207.77037    
     49680   781.64427     -5526.2417     -5371.1523      1025.9395      57202.742      207.85087    
     49690   769.29017     -5524.7201     -5372.0819      947.14503      57202.552      207.96866    
     49700   763.45555     -5524.4586     -5372.9781      824.69488      57208.155      208.1129     
     49710   762.99453     -5525.213      -5373.824       702.62036      57218.733      208.26655    
     49720   761.31057     -5525.6799     -5374.625       553.6487       57233.431      208.41245    
     49730   756.34324     -5525.4481     -5375.3788      559.7527       57251.44       208.54383    
     49740   752.08425     -5525.3016     -5376.0773      639.71565      57272.682      208.67016    
     49750   748.63839     -5525.2606     -5376.72        661.24965      57297.502      208.80765    
     49760   746.44862     -5525.4056     -5377.2995      605.73139      57326.04       208.96354    
     49770   745.15127     -5525.6741     -5377.8254      498.65526      57357.926      209.13626    
     49780   743.13207     -5525.7429     -5378.2949      353.35349      57392.456      209.32644    
     49790   748.30851     -5527.1931     -5378.718       128.00797      57428.626      209.54059    
     49800   755.93955     -5529.1113     -5379.1221     -42.425289      57465.118      209.77588    
     49810   752.75953     -5528.8835     -5379.5253     -66.496581      57500.957      210.01224    
     49820   750.91885     -5528.9231     -5379.93       -131.88047      57535.858      210.23286    
     49830   753.07424     -5529.7456     -5380.3249     -266.75179      57569.439      210.43359    
     49840   759.41209     -5531.41       -5380.7318     -492.70386      57600.823      210.60642    
     49850   754.12137     -5530.7893     -5381.1608     -561.78844      57628.781      210.75455    
     49860   748.57318     -5530.1257     -5381.5981     -555.55149      57652.849      210.88785    
     49870   750.98407     -5531.0416     -5382.0356     -520.19956      57673.133      211.00815    
     49880   750.17802     -5531.3159     -5382.4699     -398.96903      57689.954      211.10779    
     49890   750.34297     -5531.7828     -5382.904      -322.53475      57704.04       211.18197    
     49900   757.28813     -5533.6025     -5383.3457     -362.59728      57715.872      211.22695    
     49910   755.62167     -5533.738      -5383.8119     -316.35171      57725.318      211.25091    
     49920   741.2628      -5531.3628     -5384.2856     -185.13963      57732.68       211.27653    
     49930   724.82965     -5528.5225     -5384.7059      3.7241115      57738.852      211.32454    
     49940   726.30294     -5529.1439     -5385.035       56.427379      57744.929      211.40209    
     49950   734.09154     -5530.9296     -5385.2753      11.083847      57751.242      211.48913    
     49960   732.05329     -5530.7032     -5385.4534      42.361698      57757.573      211.57083    
     49970   723.57692     -5529.1289     -5385.5609      155.98019      57764.113      211.65896    
     49980   719.94082     -5528.4185     -5385.5719      178.77412      57771.475      211.76493    
     49990   727.23377     -5529.7657     -5385.4722      5.4154563      57779.758      211.88001    
     50000   732.23455     -5530.5604     -5385.2746     -153.59662      57787.997      211.98512    
Loop time of 5523.06 on 1 procs for 20000 steps with 1536 atoms

Performance: 0.313 ns/day, 76.709 hours/ns, 3.621 timesteps/s, 5.562 katom-step/s
132.8% CPU use with 1 MPI tasks x 1 OpenMP threads

MPI task timing breakdown:
Section |  min time  |  avg time  |  max time  |%varavg| %total
---------------------------------------------------------------
Pair    | 5404.7     | 5404.7     | 5404.7     |   0.0 | 97.86
Bond    | 0.046862   | 0.046862   | 0.046862   |   0.0 |  0.00
Neigh   | 5.2132     | 5.2132     | 5.2132     |   0.0 |  0.09
Comm    | 0.69414    | 0.69414    | 0.69414    |   0.0 |  0.01
Output  | 110.68     | 110.68     | 110.68     |   0.0 |  2.00
Modify  | 1.5246     | 1.5246     | 1.5246     |   0.0 |  0.03
Other   |            | 0.2206     |            |       |  0.00

Nlocal:           1536 ave        1536 max        1536 min
Histogram: 1 0 0 0 0 0 0 0 0 0
Nghost:           2404 ave        2404 max        2404 min
Histogram: 1 0 0 0 0 0 0 0 0 0
Neighs:              0 ave           0 max           0 min
Histogram: 1 0 0 0 0 0 0 0 0 0
FullNghs:        40856 ave       40856 max       40856 min
Histogram: 1 0 0 0 0 0 0 0 0 0

Total # of neighbors = 40856
Ave neighs/atom = 26.598958
Ave special neighs/atom = 0
Neighbor list builds = 2000
Dangerous builds = 2000
unfix           3

write_data      structure.end.data
System init for write_data ...
write_restart   structure.end
System init for write_restart ...
                    
Total wall time: 2:22:33
