LAMMPS (29 Sep 2021 - Update 3)
OMP_NUM_THREADS environment is not set. Defaulting to 1 thread. (src/comm.cpp:98)
  using 1 OpenMP thread(s) per MPI task
units	metal
atom_style	full

read_data	mixed.data
Reading data file ...
  orthogonal box = (0.0000000 0.0000000 0.0000000) to (15.866041 15.852264 77.123517)
  2 by 1 by 8 MPI processor grid
  reading atoms ...
  864 atoms
Finding 1-2 1-3 1-4 neighbors ...
  special bond factors lj:    0        0        0       
  special bond factors coul:  0        0        0       
     0 = max # of 1-2 neighbors
     0 = max # of 1-3 neighbors
     0 = max # of 1-4 neighbors
     1 = max # of special neighbors
  special bonds CPU = 0.001 seconds
  read_data CPU = 0.010 seconds

pair_style	quip
pair_coeff	* * /ocean/projects/cts180021p/wuziqi/clease/mint-PD/PhaseDiagram-Clease/Liquid/GAP_potential/gap_LiKCl.xml "Potential xml_label=GAP_2021_9_27_0_1_17_37_618" 17 19 3

neighbor	0.3 bin
neigh_modify	delay 10

timestep	0.001
compute	msd all msd
thermo_style	custom step temp pe etotal press vol c_msd[4]
thermo	10
dump	1 all custom 10 xyz-mix.dump type id x y z
dump	2 all custom 10 force-mix.dump type id fx fy fz

fix     1 all nve
run     2000
Neighbor list info ...
  update every 1 steps, delay 10 steps, check yes
  max neighbors/atom: 2000, page size: 100000
  master list distance cutoff = 6.22
  ghost atom cutoff = 6.22
  binsize = 3.11, bins = 6 6 25
  1 neighbor lists, perpetual/occasional/extra = 1 0 0
  (1) pair quip, perpetual
      attributes: full, newton on
      pair build: full/bin
      stencil: full/bin/3d
      bin: standard
Per MPI rank memory allocation (min/avg/max) = 8.889 | 8.906 | 8.916 Mbytes
Step Temp PotEng TotEng Press Volume c_msd[4] 
       0            0   -8878.9247   -8878.9247   -11708.833    19397.542            0 
      10    108.80145    -8891.078    -8878.941   -13519.947    19397.542 0.00037756483 
      20    255.99871   -8907.5101   -8878.9531   -15433.074    19397.542  0.004636157 
      30    288.56988   -8911.1358   -8878.9454   -14361.122    19397.542  0.015943357 
      40    289.10053   -8911.1934   -8878.9438   -12512.136    19397.542  0.032214776 
      50    304.26419   -8912.8839   -8878.9428   -12190.839    19397.542  0.050010352 
      60    330.67215   -8915.8353   -8878.9484    -12512.07    19397.542  0.067008738 
      70    319.75479    -8914.613   -8878.9439   -12021.554    19397.542  0.084636553 
      80     311.7171   -8913.7131   -8878.9406   -11242.174    19397.542   0.10335882 
      90    344.97025   -8917.4272   -8878.9452   -11377.847    19397.542   0.12285636 
     100    369.47631   -8920.1625   -8878.9469   -11460.202    19397.542   0.14373353 
     110    369.44402   -8920.1551   -8878.9431   -10737.559    19397.542   0.16547428 
     120    381.04496   -8921.4513   -8878.9452   -10101.733    19397.542   0.18697263 
     130    387.01967   -8922.1174   -8878.9447    -9853.945    19397.542   0.20927079 
     140    390.46305   -8922.5002   -8878.9434   -10154.629    19397.542   0.23274757 
     150    401.17379   -8923.6966   -8878.9451   -10935.233    19397.542   0.25686229 
     160    405.60936   -8924.1923    -8878.946   -11533.497    19397.542   0.28181117 
     170    403.00983   -8923.9035   -8878.9472   -11313.905    19397.542   0.30705714 
     180    385.93942   -8921.9971   -8878.9449   -10395.352    19397.542   0.33328028 
     190    384.55592   -8921.8429   -8878.9451   -9702.4152    19397.542    0.3615061 
     200    397.89654   -8923.3338   -8878.9478   -9508.3306    19397.542   0.39138176 
     210    403.74057   -8923.9838    -8878.946   -9854.3562    19397.542   0.41959204 
     220    419.25516   -8925.7147   -8878.9462   -11120.155    19397.542   0.44190424 
     230    437.64496   -8927.7678   -8878.9478   -12741.979    19397.542   0.46059951 
     240    436.22365   -8927.6096   -8878.9482   -13773.271    19397.542   0.48016288 
     250     417.4692   -8925.5154   -8878.9461   -14188.084    19397.542   0.50051511 
     260    403.07006   -8923.9093   -8878.9463   -14452.366    19397.542   0.51954432 
     270    390.78955   -8922.5388   -8878.9456   -14869.677    19397.542   0.53842732 
     280    390.91941   -8922.5534   -8878.9458   -15753.944    19397.542   0.55789535 
     290    394.53071   -8922.9579   -8878.9474   -16866.473    19397.542   0.57907365 
     300    385.46639   -8921.9447   -8878.9454   -17556.881    19397.542   0.60332818 
     310    388.07639   -8922.2367   -8878.9462   -18102.563    19397.542   0.62988844 
     320    395.22438   -8923.0346   -8878.9467   -18476.923    19397.542   0.65693198 
     330     392.7193   -8922.7554    -8878.947   -18634.964    19397.542   0.68294096 
     340    387.36548    -8922.158   -8878.9468   -18928.114    19397.542    0.7064488 
     350    383.70376     -8921.75   -8878.9472   -19255.038    19397.542   0.72809194 
     360    380.16279   -8921.3526   -8878.9449   -19764.905    19397.542   0.74756432 
     370    391.53302   -8922.6238   -8878.9477   -20433.416    19397.542   0.76345228 
     380    397.18733   -8923.2529   -8878.9461   -20848.612    19397.542   0.77799013 
     390    399.66038   -8923.5327     -8878.95   -20962.623    19397.542    0.7926845 
     400    376.74168   -8920.9703   -8878.9442   -20594.318    19397.542   0.80792627 
     410    384.01385   -8921.7861   -8878.9488   -20827.442    19397.542   0.82090067 
     420    385.42711   -8921.9432   -8878.9482    -21282.02    19397.542   0.83289421 
     430    375.82197   -8920.8694   -8878.9459   -21749.833    19397.542   0.84474346 
     440    377.40301   -8921.0478   -8878.9479   -22280.425    19397.542   0.85654263 
     450    373.39276   -8920.5987   -8878.9462   -22358.315    19397.542   0.87121917 
     460    380.55104   -8921.3982   -8878.9472   -22127.174    19397.542   0.88923864 
     470    389.08947   -8922.3531   -8878.9496   -21563.629    19397.542   0.90990069 
     480    377.88025   -8921.0989   -8878.9458   -20903.426    19397.542   0.93174236 
     490    381.74982   -8921.5319   -8878.9472   -20620.986    19397.542   0.94962563 
     500    394.14575   -8922.9156   -8878.9481   -20486.731    19397.542   0.96309083 
     510    397.04898   -8923.2389   -8878.9475   -19997.235    19397.542   0.97658553 
     520    399.82595   -8923.5491    -8878.948   -19535.484    19397.542   0.99241283 
     530    404.27704   -8924.0446   -8878.9469    -19115.46    19397.542    1.0084992 
     540     411.3451   -8924.8362     -8878.95   -18661.849    19397.542    1.0226069 
     550    394.09812   -8922.9082    -8878.946   -17821.103    19397.542    1.0374953 
     560    386.81962   -8922.0987   -8878.9484   -17144.624    19397.542    1.0531551 
     570    383.04436   -8921.6747   -8878.9456   -16711.306    19397.542    1.0690946 
     580    397.22268   -8923.2587   -8878.9479   -16702.646    19397.542    1.0866029 
     590    408.28446   -8924.4929   -8878.9481   -16623.668    19397.542    1.1074158 
     600    405.74477   -8924.2095   -8878.9481   -16314.107    19397.542    1.1302748 
     610    396.02325   -8923.1251   -8878.9481    -15628.66    19397.542    1.1519665 
     620     395.3341   -8923.0495   -8878.9494   -15051.831    19397.542    1.1694303 
     630    394.27036   -8922.9318   -8878.9503   -14512.907    19397.542    1.1828305 
     640    383.62649   -8921.7417   -8878.9476   -14067.198    19397.542    1.1945401 
     650    385.14193   -8921.9112    -8878.948   -13839.463    19397.542    1.2068311 
     660     395.4713   -8923.0651   -8878.9497   -13755.797    19397.542    1.2218962 
     670     396.9724   -8923.2312   -8878.9483   -13681.042    19397.542    1.2411479 
     680    400.76426   -8923.6562   -8878.9504   -13529.754    19397.542    1.2649597 
     690    395.59922   -8923.0782   -8878.9485   -13202.541    19397.542    1.2892968 
     700    393.08673   -8922.7984    -8878.949    -12863.36    19397.542    1.3108518 
     710    392.46287   -8922.7295   -8878.9497   -12776.215    19397.542    1.3306314 
     720    392.69983   -8922.7538   -8878.9476   -12960.731    19397.542    1.3493343 
     730    407.70626    -8924.431   -8878.9507   -13617.908    19397.542    1.3652761 
     740    418.60831   -8925.6458   -8878.9494   -14182.857    19397.542    1.3758719 
     750    427.35697   -8926.6222   -8878.9499   -14411.802    19397.542    1.3817369 
     760    426.23067   -8926.4956    -8878.949   -14240.457    19397.542    1.3874968 
     770    425.68986   -8926.4355   -8878.9492   -14121.142    19397.542    1.3956033 
     780    424.34662   -8926.2861   -8878.9496   -14199.692    19397.542    1.4059418 
     790    416.51178   -8925.4118   -8878.9493   -14348.579    19397.542    1.4172819 
     800    406.85203   -8924.3329   -8878.9479   -14603.708    19397.542    1.4293586 
     810     409.3926   -8924.6176   -8878.9492   -14954.594    19397.542    1.4437899 
     820    411.52943   -8924.8561   -8878.9494   -15227.004    19397.542     1.461671 
     830    414.76526   -8925.2161   -8878.9484   -15348.177    19397.542    1.4822988 
     840    425.47297   -8926.4126   -8878.9505   -15497.059    19397.542    1.5061095 
     850    424.10961   -8926.2589   -8878.9489    -15461.05    19397.542    1.5339208 
     860    425.84903   -8926.4531    -8878.949   -15668.017    19397.542    1.5638872 
     870    428.28778   -8926.7265   -8878.9503   -15975.954    19397.542    1.5941429 
     880    422.32484   -8926.0597   -8878.9487   -16050.391    19397.542    1.6254163 
     890    420.59441   -8925.8681   -8878.9502   -16210.368    19397.542    1.6579317 
     900    412.78354   -8924.9958   -8878.9492   -16186.118    19397.542    1.6917804 
     910    408.88335   -8924.5603   -8878.9488   -16398.021    19397.542    1.7253326 
     920    415.25495   -8925.2723     -8878.95   -16866.947    19397.542    1.7566903 
     930    417.79568   -8925.5555   -8878.9498    -17314.63    19397.542    1.7866576 
     940    414.15774   -8925.1502   -8878.9503   -17816.895    19397.542    1.8175362 
     950    410.14766   -8924.7024   -8878.9498   -18397.528    19397.542     1.850555 
     960    412.13206   -8924.9218   -8878.9478   -18864.984    19397.542    1.8837942 
     970    427.90234   -8926.6835   -8878.9503   -19165.223    19397.542    1.9147148 
     980    431.11936    -8927.043    -8878.951    -19021.79    19397.542    1.9457246 
     990    415.64991   -8925.3145   -8878.9482   -18606.767    19397.542    1.9812421 
    1000    413.92707   -8925.1233   -8878.9491   -18513.829    19397.542    2.0201072 
    1010    417.45395   -8925.5177     -8878.95   -18558.895    19397.542    2.0574524 
    1020    414.66605   -8925.2045   -8878.9479    -18540.13    19397.542    2.0909232 
    1030    425.32279   -8926.3944    -8878.949   -18804.281    19397.542    2.1200334 
    1040    437.39791    -8927.743   -8878.9506    -19174.44    19397.542    2.1461906 
    1050    432.04437    -8927.144   -8878.9488   -19430.964    19397.542    2.1724444 
    1060    423.10855   -8926.1471   -8878.9487    -19670.97    19397.542     2.200914 
    1070    416.30819    -8925.389   -8878.9492   -19752.208    19397.542     2.232564 
    1080    410.19009   -8924.7058   -8878.9485   -19471.789    19397.542    2.2656179 
    1090    411.43188   -8924.8454   -8878.9496   -18927.842    19397.542    2.2963807 
    1100    413.58688   -8925.0849   -8878.9486   -18540.027    19397.542    2.3238349 
    1110    425.71996   -8926.4384   -8878.9486   -18620.545    19397.542    2.3474636 
    1120    443.01807   -8928.3709   -8878.9516   -18883.908    19397.542    2.3679172 
    1130    437.42575   -8927.7454   -8878.9499   -18767.479    19397.542    2.3882255 
    1140    422.48256   -8926.0773   -8878.9487   -18476.767    19397.542    2.4089666 
    1150    414.07643   -8925.1393   -8878.9485   -18282.798    19397.542    2.4284943 
    1160    416.01416   -8925.3558   -8878.9488   -18291.885    19397.542     2.446853 
    1170    419.66714   -8925.7642   -8878.9497   -18446.717    19397.542    2.4644412 
    1180    424.21945   -8926.2706   -8878.9483    -18449.36    19397.542    2.4806419 
    1190    440.19598   -8928.0557   -8878.9512   -18343.062    19397.542    2.4945267 
    1200    440.38662   -8928.0752   -8878.9494   -17908.359    19397.542     2.507228 
    1210    440.40752   -8928.0774   -8878.9493   -17509.071    19397.542    2.5196997 
    1220    445.29341   -8928.6232   -8878.9501   -17433.008    19397.542    2.5321836 
    1230    444.31811   -8928.5138   -8878.9494   -17404.254    19397.542    2.5456285 
    1240    444.21916   -8928.5028   -8878.9495   -17567.287    19397.542    2.5617678 
    1250    447.95301   -8928.9197   -8878.9499   -17998.888    19397.542    2.5810013 
    1260    447.05056     -8928.82   -8878.9509   -18113.089    19397.542    2.6027835 
    1270    433.76409   -8927.3363   -8878.9493   -17647.746    19397.542    2.6267411 
    1280    426.49744   -8926.5249   -8878.9485   -17215.404    19397.542    2.6522665 
    1290    438.76938   -8927.8949   -8878.9495   -17215.004    19397.542     2.679609 
    1300     454.8554   -8929.6913   -8878.9515   -17412.029    19397.542    2.7096074 
    1310    451.74789   -8929.3435   -8878.9504   -17515.094    19397.542    2.7419599 
    1320    440.03726   -8928.0361   -8878.9493    -17582.78    19397.542    2.7732724 
    1330    433.51813    -8927.309   -8878.9494   -17627.787    19397.542    2.7991894 
    1340    430.66307   -8926.9918   -8878.9507   -17406.648    19397.542    2.8192899 
    1350    422.06307   -8926.0311   -8878.9493    -17030.68    19397.542    2.8369839 
    1360    423.68793   -8926.2128   -8878.9498   -16872.793    19397.542    2.8564726 
    1370    432.23825   -8927.1671   -8878.9502   -16941.721    19397.542    2.8798412 
    1380    440.61409   -8928.1014   -8878.9502   -17160.411    19397.542     2.904214 
    1390    442.38617   -8928.3005   -8878.9516   -17288.698    19397.542    2.9262872 
    1400    432.82497   -8927.2303    -8878.948   -17111.965    19397.542    2.9462931 
    1410    443.20721   -8928.3906   -8878.9502   -17379.272    19397.542    2.9656964 
    1420     452.8574   -8929.4692   -8878.9523   -17581.285    19397.542    2.9866189 
    1430    440.33742   -8928.0699   -8878.9496    -17078.18    19397.542    3.0107644 
    1440    434.09539   -8927.3728   -8878.9488   -16559.852    19397.542    3.0372306 
    1450    446.59797     -8928.77   -8878.9513   -16458.202    19397.542    3.0634597 
    1460    455.16552   -8929.7248   -8878.9504   -16509.198    19397.542    3.0883146 
    1470     460.5176    -8930.323   -8878.9516   -16639.411    19397.542    3.1117695 
    1480    455.78137    -8929.792   -8878.9489   -16643.605    19397.542    3.1332037 
    1490    461.66937   -8930.4506   -8878.9507   -16632.215    19397.542     3.152331 
    1500    464.06114   -8930.7172   -8878.9504   -16316.323    19397.542    3.1724877 
    1510    464.69685   -8930.7871   -8878.9495    -16148.36    19397.542    3.1960897 
    1520    471.22077   -8931.5167   -8878.9514   -16208.841    19397.542    3.2225013 
    1530    471.47122   -8931.5429   -8878.9496   -16597.639    19397.542    3.2496574 
    1540    479.04999   -8932.3903   -8878.9516   -17340.131    19397.542    3.2743864 
    1550    475.60674   -8932.0055   -8878.9508   -17872.304    19397.542    3.2971604 
    1560    465.76065   -8930.9064   -8878.9501   -17822.552    19397.542    3.3221892 
    1570    460.06152    -8930.271   -8878.9505    -17442.47    19397.542    3.3512444 
    1580    459.40082   -8930.1971   -8878.9502   -16941.542    19397.542    3.3813068 
    1590    460.93829   -8930.3707   -8878.9523   -16350.345    19397.542    3.4083736 
    1600     448.2201   -8928.9504   -8878.9508   -15603.607    19397.542    3.4316634 
    1610     443.9941   -8928.4772    -8878.949    -15275.86    19397.542    3.4534934 
    1620    463.51034   -8930.6582    -8878.953   -15593.563    19397.542    3.4766509 
    1630    474.66564   -8931.9011   -8878.9514   -16126.405    19397.542    3.5034224 
    1640    481.75389   -8932.6918   -8878.9514   -16542.721    19397.542    3.5333548 
    1650    479.37897   -8932.4264    -8878.951   -16541.998    19397.542    3.5648125 
    1660    474.97776   -8931.9337   -8878.9492   -16284.173    19397.542    3.5952514 
    1670    481.99089    -8932.719   -8878.9522   -15990.017    19397.542    3.6221631 
    1680      474.213   -8931.8498   -8878.9506   -15457.654    19397.542    3.6454728 
    1690    462.13083    -8930.502   -8878.9506   -14731.806    19397.542     3.665115 
    1700    458.63731   -8930.1109   -8878.9492   -14389.905    19397.542    3.6801149 
    1710    473.55465   -8931.7771   -8878.9513   -14547.389    19397.542    3.6915037 
    1720    483.59001    -8932.897   -8878.9518   -15013.331    19397.542    3.7021408 
    1730    481.36556   -8932.6472   -8878.9501   -15645.926    19397.542    3.7142289 
    1740    484.05437   -8932.9483   -8878.9513   -16474.749    19397.542    3.7288904 
    1750    482.16869   -8932.7383   -8878.9516   -16722.219    19397.542     3.747119 
    1760    470.26243   -8931.4082   -8878.9497   -16475.495    19397.542    3.7689551 
    1770    472.75321   -8931.6852   -8878.9489   -16480.419    19397.542    3.7930019 
    1780    495.80424   -8934.2609   -8878.9532   -16801.632    19397.542     3.817904 
    1790    498.29189   -8934.5359   -8878.9506   -17030.699    19397.542    3.8432118 
    1800    497.22115   -8934.4163   -8878.9505   -17233.599    19397.542    3.8677962 
    1810    498.13201   -8934.5195   -8878.9521   -17294.852    19397.542    3.8916583 
    1820    485.17576   -8933.0725   -8878.9504   -16971.976    19397.542    3.9157232 
    1830    479.44537   -8932.4337   -8878.9509   -16627.564    19397.542    3.9391486 
    1840    478.88134   -8932.3712   -8878.9513   -16398.764    19397.542    3.9621449 
    1850     478.6415   -8932.3435   -8878.9503   -16406.049    19397.542    3.9857213 
    1860     486.1211   -8933.1789   -8878.9514   -16705.544    19397.542    4.0086822 
    1870    492.79459   -8933.9238   -8878.9519   -17221.514    19397.542    4.0297149 
    1880    491.36379   -8933.7648   -8878.9525   -18037.772    19397.542    4.0499732 
    1890    475.70955   -8932.0166   -8878.9505   -18910.363    19397.542    4.0709101 
    1900    464.92588   -8930.8141   -8878.9509   -19819.272    19397.542    4.0929306 
    1910    455.59431   -8929.7727   -8878.9505   -20229.987    19397.542    4.1160109 
    1920    452.87672   -8929.4684   -8878.9493   -20242.611    19397.542    4.1384657 
    1930    467.97161   -8931.1539   -8878.9509   -20369.825    19397.542    4.1581839 
    1940    485.34862   -8933.0926   -8878.9512   -20514.477    19397.542    4.1756159 
    1950    495.78252   -8934.2578   -8878.9525   -20428.878    19397.542    4.1936772 
    1960    500.11778   -8934.7389     -8878.95   -20591.437    19397.542    4.2145461 
    1970    511.99695   -8936.0681    -8878.954   -21344.221    19397.542    4.2363696 
    1980    499.23942   -8934.6421   -8878.9512   -21654.428    19397.542    4.2540635 
    1990    487.56603   -8933.3391   -8878.9504    -21588.86    19397.542    4.2657075 
    2000    485.14508   -8933.0707    -8878.952   -21134.343    19397.542    4.2770463 
Loop time of 1590.81 on 16 procs for 2000 steps with 864 atoms

Performance: 0.109 ns/day, 220.946 hours/ns, 1.257 timesteps/s
96.4% CPU use with 16 MPI tasks x 1 OpenMP threads

MPI task timing breakdown:
Section |  min time  |  avg time  |  max time  |%varavg| %total
---------------------------------------------------------------
Pair    | 386.09     | 841.27     | 1588.5     |1117.0 | 52.88
Bond    | 0.00017285 | 0.00047569 | 0.0013027  |   0.0 |  0.00
Neigh   | 0.014594   | 0.030245   | 0.063549   |   7.8 |  0.00
Comm    | 1.7179     | 654.02     | 1067.7     |1223.7 | 41.11
Output  | 0.26615    | 27.413     | 60.953     | 426.3 |  1.72
Modify  | 0.010101   | 0.01097    | 0.012565   |   0.7 |  0.00
Other   |            | 68.06      |            |       |  4.28

Nlocal:        54.0000 ave          90 max          29 min
Histogram: 3 3 0 2 3 1 0 2 0 2
Nghost:        493.750 ave         643 max         369 min
Histogram: 3 1 0 3 2 2 1 2 0 2
Neighs:         0.00000 ave           0 max           0 min
Histogram: 16 0 0 0 0 0 0 0 0 0
FullNghs:      2706.00 ave        5944 max         890 min
Histogram: 6 0 2 1 3 0 2 0 0 2

Total # of neighbors = 43296
Ave neighs/atom = 50.111111
Ave special neighs/atom = 0.0000000
Neighbor list builds = 200
Dangerous builds = 200
unfix   1

velocity    all create 937.5 1312343 dist gaussian
fix     2 all npt temp 937.5 937.5 $(100.0*dt) aniso 0.0 1.01325 $(1000.0*dt)
fix     2 all npt temp 937.5 937.5 0.10000000000000000555 aniso 0.0 1.01325 $(1000.0*dt)
fix     2 all npt temp 937.5 937.5 0.10000000000000000555 aniso 0.0 1.01325 1
run     3000
Per MPI rank memory allocation (min/avg/max) = 8.894 | 8.909 | 8.920 Mbytes
Step Temp PotEng TotEng Press Volume c_msd[4] 
    2000        937.5   -8933.0707   -8828.4911   -18355.736    19397.542    4.2770463 
    2010    813.71548   -8919.3602    -8828.589   -15186.372     19388.53    4.3048526 
    2020    647.26352   -8900.8445   -8828.6413   -10267.849     19364.38     4.332936 
    2030    668.23754   -8902.9334   -8828.3905   -9338.1496     19329.59    4.3485185 
    2040    711.63776   -8907.1596   -8827.7753   -9281.3152    19285.544    4.3511047 
    2050    729.80815   -8908.3995   -8826.9883   -8101.1192     19232.66    4.3460096 
    2060    742.75733   -8909.0543   -8826.1986   -6181.3604    19172.396    4.3361048 
    2070    754.59827   -8909.6412   -8825.4646   -4141.2884    19107.022    4.3249145 
    2080    758.09691   -8909.3064   -8824.7396    -1885.879    19039.041    4.3143227 
    2090    747.32498   -8907.2873   -8823.9221    837.78245    18971.156    4.3024502 
    2100    743.61012   -8905.8406   -8822.8897    3744.6447    18906.356    4.2871993 
    2110    755.99785   -8905.9108   -8821.5781     6355.828    18847.611    4.2677453 
    2120    794.32475   -8908.6255   -8820.0174    8396.5689    18797.354     4.245709 
    2130    806.26749   -8908.2573    -8818.317    10357.904    18757.297     4.225305 
    2140     793.3591   -8905.1329   -8816.6325    11539.204    18728.733    4.2069533 
    2150    811.07744   -8905.5021   -8815.0252    11150.979    18712.102    4.1883968 
    2160    836.55956   -8906.8043   -8813.4848    10016.695    18706.465    4.1700328 
    2170    842.71407   -8906.0495   -8812.0434    9153.6713    18710.297    4.1537202 
    2180    821.82282   -8902.3963   -8810.7207    8293.7932    18722.307    4.1410943 
    2190    786.81488   -8897.2382   -8809.4679    6960.2904    18741.291    4.1341402 
    2200    823.36827    -8900.033    -8808.185    4274.4658    18765.632    4.1336539 
    2210    851.02099   -8901.7524   -8806.8197    2360.1811    18792.828    4.1385231 
    2220     834.3574   -8898.5732   -8805.4994    1969.6019    18821.088    4.1464551 
    2230    846.93261   -8898.7043   -8804.2277    1614.8783    18849.892     4.155535 
    2240    837.04881   -8896.3188   -8802.9447    1350.2246    18878.945    4.1676749 
    2250    851.96471   -8896.6805   -8801.6426    270.38577    18907.913    4.1826239 
    2260    848.41029   -8894.9272   -8800.2857   -208.68103    18935.951    4.1989829 
    2270    847.15325   -8893.4221   -8798.9209   -252.51098    18962.644    4.2165919 
    2280    879.23853   -8895.6061   -8797.5257    -732.6476    18987.958    4.2379465 
    2290    886.51093   -8895.0149   -8796.1232   -904.41775    19011.612    4.2636957 
    2300    890.15691   -8894.0719   -8794.7735   -1331.5014     19033.46     4.288579 
    2310    872.04177   -8890.7474   -8793.4699   -1555.5002    19053.262    4.3082454 
    2320    862.46829    -8888.409   -8792.1993   -2138.6569    19070.827    4.3172162 
    2330    886.35048   -8889.7876   -8790.9139   -2614.4632    19085.745    4.3137848 
    2340    908.36679   -8890.9523   -8789.6227   -2503.4795    19097.731    4.3038058 
    2350     932.5338   -8892.4028   -8788.3772   -2790.9381    19106.904    4.2943911 
    2360    914.03855   -8889.1763   -8787.2139    -3103.593    19113.125    4.2897435 
    2370    901.96619   -8886.7578   -8786.1421   -3164.4759    19116.202    4.2897506 
    2380    908.35057   -8886.4335   -8785.1056   -3286.7215    19116.116    4.2912855 
    2390     890.1098   -8883.3892   -8784.0961    -2821.044     19112.92    4.2915279 
    2400    909.74002   -8884.5779    -8783.095   -2640.1127    19107.037    4.2894935 
    2410    934.17936    -8886.275   -8782.0658   -2008.8458    19098.789    4.2835782 
    2420    925.77327   -8884.3235   -8781.0521   -559.26879    19088.895    4.2708694 
    2430    936.19414   -8884.4853   -8780.0514   -261.43704      19078.6    4.2551666 
    2440    954.95546   -8885.5885   -8779.0618   -844.41578    19068.218    4.2423875 
    2450    965.03302   -8885.7851   -8778.1343   -569.94557    19057.348    4.2377608 
    2460     972.6766    -8885.806   -8777.3024    456.86808    19046.235    4.2441222 
    2470    964.05277    -8884.115   -8776.5735    1542.3987    19035.817    4.2545931 
    2480    969.84712    -8884.134   -8775.9461    1760.6618    19027.024    4.2636182 
    2490    981.23793   -8884.8657   -8775.4071      1833.81      19020.1    4.2716161 
    2500    978.25951   -8884.0873   -8774.9609    1568.6253    19015.043    4.2788694 
    2510    974.02344   -8883.2561   -8774.6023    1019.0052    19011.563     4.284959 
    2520     988.4464   -8884.5988   -8774.3362    448.54701    19009.128    4.2877438 
    2530    997.80168   -8885.5002    -8774.194    257.75014    19007.217    4.2857284 
    2540     980.6943   -8883.5804   -8774.1825    539.44692    19005.635    4.2818954 
    2550      981.904   -8883.8159    -8774.283    145.13347    19004.548    4.2783814 
    2560    993.38397    -8885.312   -8774.4985   -754.89043    19003.576     4.275845 
    2570    999.84445   -8886.3821    -8774.848   -1060.7306     19001.96    4.2756872 
    2580    1032.2484   -8890.5367   -8775.3879   -1713.5116    18999.306    4.2789191 
    2590    1020.8715   -8890.0337   -8776.1539   -1663.8472    18995.109    4.2874126 
    2600      988.505    -8887.359   -8777.0898   -1065.7896    18989.419    4.2981811 
    2610     984.9062   -8887.9853   -8778.1175   -1310.1868    18982.702    4.3054059 
    2620    981.67002   -8888.7122   -8779.2054   -1956.9314    18974.785    4.3088327 
    2630    978.13368   -8889.4347   -8780.3224   -2171.5352     18965.14     4.308846 
    2640      969.762   -8889.6238   -8781.4454   -1380.9299     18953.62     4.306838 
    2650    954.87099   -8889.0452   -8782.5279    48.924757    18940.961    4.3087453 
    2660    961.79182   -8890.8647   -8783.5753    632.09454    18928.426    4.3171428 
    2670    974.79892   -8893.3724   -8784.6321    924.33992    18916.621    4.3299769 
    2680    984.30033   -8895.5263   -8785.7261    1713.7597    18905.881    4.3447062 
    2690    986.69065   -8896.9141   -8786.8473    2581.6271    18896.923    4.3572886 
    2700    1012.7307   -8900.9941   -8788.0225    2348.9674    18890.417    4.3655555 
    2710    995.71804   -8900.3352   -8789.2613    2870.0126    18886.312    4.3709827 
    2720    965.53193   -8898.1771   -8790.4705    3399.4363    18884.965    4.3753727 
    2730    971.05684   -8899.9716   -8791.6487    3434.7824    18886.828    4.3804426 
    2740    941.48635   -8897.7845   -8792.7603    3445.2524    18891.955    4.3870158 
    2750    941.75143   -8898.8409   -8793.7871    2533.6248    18900.236     4.395333 
    2760    950.84382   -8900.8279   -8794.7599    1187.8445    18910.806    4.4065783 
    2770    934.10144   -8899.8805   -8795.6801    906.06683      18922.5     4.420451 
    2780    928.55586   -8900.0958    -8796.514    655.46866    18934.947    4.4354317 
    2790    946.50725   -8902.8589   -8797.2746   -17.766797    18947.868    4.4488018 
    2800    961.64748   -8905.2991   -8798.0259   -1115.1088     18960.59    4.4591725 
    2810    954.49335   -8905.2631    -8798.788   -1770.3235    18972.164    4.4700514 
    2820    955.35637    -8906.132   -8799.5605    -2086.195     18981.93    4.4859651 
    2830     960.0111   -8907.4433   -8800.3526   -1683.9499    18989.654    4.5081029 
    2840    956.16624   -8907.8345   -8801.1728   -1085.4399    18995.704    4.5323275 
    2850    939.64263   -8906.8049   -8801.9863    -781.9549    19000.621    4.5557563 
    2860     932.6598   -8906.8013   -8802.7617   -655.57559    19004.731    4.5811478 
    2870    928.77868   -8907.1118   -8803.5052    -872.1549    19008.134    4.6093332 
    2880    899.82639    -8904.558    -8804.181   -606.15481    19010.729    4.6395449 
    2890    912.30507   -8906.5372   -8804.7682   -850.46122     19012.66    4.6702069 
    2900    942.60016   -8910.4523   -8805.3038   -1227.2412    19013.758    4.7009658 
    2910    965.92084   -8913.5981   -8805.8482   -2015.6199    19013.644    4.7326207 
    2920    986.97019   -8916.5683   -8806.4703   -2844.1851    19011.595    4.7647105 
    2930    960.38651   -8914.3024   -8807.1699    -2853.886    19006.905    4.7977197 
    2940    941.78336   -8912.9464    -8807.889   -2413.3707     18999.55    4.8308436 
    2950    940.56407   -8913.5348   -8808.6135   -1810.4662    18989.944    4.8617864 
    2960    904.94477   -8910.2482   -8809.3003   -876.78648    18978.718    4.8903241 
    2970    917.71082    -8912.278    -8809.906   -1225.1605    18966.621    4.9143609 
    2980    978.55468   -8919.6729   -8810.5136   -2594.0048    18953.364    4.9319405 
    2990    976.35698   -8920.1215   -8811.2074   -2837.2936     18937.86    4.9500397 
    3000    956.00304   -8918.6175    -8811.974   -2589.5418    18919.809    4.9752881 
    3010    949.97671   -8918.7219   -8812.7506   -1598.6983    18899.557    5.0075614 
    3020    944.48065   -8918.8638   -8813.5055   -797.97544     18877.99    5.0415394 
    3030    942.51698   -8919.3595   -8814.2203   -388.70115    18855.877    5.0730863 
    3040    965.91331   -8922.6639   -8814.9149   -570.41143    18833.612    5.1036073 
    3050    994.85337   -8926.6562   -8815.6788   -809.16018    18811.101    5.1384063 
    3060    996.96518   -8927.7669   -8816.5539   -1049.5402     18788.13    5.1796921 
    3070    990.23874   -8927.9843   -8817.5217   -775.06119    18764.569    5.2239321 
    3080    985.16983   -8928.4096   -8818.5124   -394.23868    18740.663     5.267079 
    3090    993.34317   -8930.3498   -8819.5409   -1487.4077    18716.645    5.3110484 
    3100    994.12801   -8931.5364   -8820.6399   -3304.4869    18691.586    5.3546245 
    3110    993.12455   -8932.5834   -8821.7989   -4471.5879     18663.95    5.3957877 
    3120    1026.3005   -8937.5174   -8823.0321   -5631.7786    18632.656    5.4373958 
    3130    1059.0408   -8942.5735   -8824.4359   -5622.5565    18596.841    5.4816881 
    3140    1036.5539   -8941.5836   -8825.9545   -3934.0756     18556.71    5.5278114 
    3150    1014.9159   -8940.6491   -8827.4338   -2419.6498    18513.837    5.5769627 
    3160    1026.3139   -8943.3252   -8828.8383   -1824.6846    18469.672    5.6329142 
    3170    1035.2991   -8945.7145   -8830.2254   -1284.6199    18424.926    5.6947673 
    3180    1042.5283   -8947.9063   -8831.6107   -188.23438    18380.258    5.7585122 
    3190    1065.7957    -8951.933   -8833.0418    781.88816     18336.62    5.8217838 
    3200    1056.2773   -8952.3434   -8834.5141    1946.0199    18294.968    5.8845781 
    3210    1048.5125   -8952.9536   -8835.9904    1960.3335    18256.198    5.9453759 
    3220    1066.6901   -8956.5141   -8837.5232    891.57385    18220.264    6.0067762 
    3230    1071.8161   -8958.7116   -8839.1489    202.41943    18186.288    6.0701287 
    3240    1078.9202   -8961.1865   -8840.8313      282.737    18153.674    6.1270789 
    3250    1087.4948   -8963.8983   -8842.5866     344.6084    18122.372    6.1703467 
    3260    1038.5539   -8960.1616   -8844.3093    1235.9282    18092.526    6.2055694 
    3270    1033.9705   -8961.2645   -8845.9235    760.75767    18064.631    6.2430014 
    3280    1060.8311   -8965.8727   -8847.5354    107.13358     18038.32    6.2887917 
    3290    1072.2899   -8968.8169   -8849.2014    32.601381    18013.035    6.3420983 
    3300    1070.1664   -8970.3101   -8850.9314    277.42119    17988.673    6.3975251 
    3310    1052.0134   -8970.0183   -8852.6646    231.54621    17965.363    6.4514187 
    3320    1058.9929   -8972.5255   -8854.3933   -3.7383635    17943.048    6.5021326 
    3330     1038.746   -8971.9902   -8856.1165     571.6481    17921.572    6.5490008 
    3340      1041.65   -8973.9942   -8857.7965    839.39284    17901.291     6.594042 
    3350    1049.8062   -8976.5943   -8859.4868    204.08873    17882.333    6.6401429 
    3360    1056.0845     -8979.01   -8861.2021   -343.19873    17864.192    6.6785942 
    3370    1054.8285   -8980.6315   -8862.9638   -577.45747    17846.392     6.707185 
    3380    1054.6372   -8982.3996   -8864.7533   -1505.3604    17828.626    6.7365381 
    3390      1058.07   -8984.6271   -8866.5978   -2202.2619    17810.195    6.7736103 
    3400    1050.7352   -8985.6753   -8868.4643   -1943.8222    17790.564     6.819668 
    3410     1029.494   -8985.1131   -8870.2715   -1169.0995    17769.984    6.8694314 
    3420    1053.1115   -8989.5154   -8872.0392   -1491.2545     17748.99    6.9167735 
    3430    1088.2546    -8995.321   -8873.9246   -2002.5416    17727.376    6.9637128 
    3440     1073.305   -8995.6462   -8875.9174   -611.20206    17704.933    7.0175588 
    3450    1071.3746    -8997.461   -8877.9476     456.0061     17682.65    7.0780349 
    3460     1095.444   -9002.2436   -8880.0451    121.21432    17661.331    7.1389879 
    3470    1089.6502   -9003.7715   -8882.2194    687.00072    17640.861    7.1991475 
    3480    1055.9464   -9002.1149   -8884.3224    2252.8001    17621.683    7.2602107 
    3490    1064.4055   -9005.0666   -8886.3305    3025.0582     17604.91    7.3218327 
    3500    1085.9353   -9009.4957    -8888.358    3613.4634    17591.158    7.3844898 
    3510    1077.1674   -9010.5716    -8890.412    4193.1458    17580.826    7.4483406 
    3520    1113.6359   -9016.7422   -8892.5144    3698.7588    17574.192    7.5102193 
    3530    1144.0764   -9022.4181   -8894.7946    3684.8663     17570.83    7.5682921 
    3540    1101.5122   -9020.0476   -8897.1722    4818.4913    17570.662    7.6212228 
    3550    1071.9277   -9019.0325   -8899.4574    4041.7942     17574.26    7.6631024 
    3560     1076.632    -9021.769    -8901.669    2055.8926    17580.956    7.6938309 
    3570    1046.4801   -9020.5363   -8903.7999    1037.8738    17589.229    7.7182003 
    3580    1055.0587   -9023.5676   -8905.8742   -31.782461    17598.079    7.7396891 
    3590    1039.6115   -9023.8582    -8907.888   -590.68235    17606.683    7.7621854 
    3600    1033.1078   -9025.0879   -8909.8432   -1672.3588     17614.48    7.7843741 
    3610    1028.4244   -9026.4573    -8911.735   -2863.4374    17620.642    7.8029317 
    3620    1025.7775   -9028.0179   -8913.5909   -3036.9695    17624.347    7.8154257 
    3630    1008.2264    -9027.879   -8915.4099   -2899.5831    17625.472     7.818218 
    3640    979.84194    -9026.442   -8917.1392   -2507.5033    17624.223     7.812385 
    3650    995.40038   -9029.8268   -8918.7883    -2647.827    17620.922    7.8085424 
    3660    1005.0014    -9032.544   -8920.4346   -2053.6034    17615.627    7.8130089 
    3670    976.58339   -9030.9569   -8922.0175   -301.44282    17608.915    7.8220504 
    3680    999.25156   -9035.0129   -8923.5449    571.15004    17602.063    7.8270125 
    3690    1025.1989   -9039.4846   -8925.1221    1487.3092    17595.881    7.8290869 
    3700    996.01108   -9037.8474   -8926.7408    3259.6676    17591.148    7.8312737 
    3710    973.71916   -9036.9148    -8928.295    4142.5994    17589.156    7.8333274 
    3720    1010.0981   -9042.5252   -8929.8472    3261.6759    17590.498    7.8306962 
    3730    1048.5624   -9048.4809   -8931.5122    1204.5081    17594.366    7.8261495 
    3740    1022.6965   -9047.3789   -8933.2956    756.88155     17599.28     7.824112 
    3750    962.94824     -9042.44   -8935.0217    735.32522    17604.715    7.8201719 
    3760    951.76939   -9042.7364   -8936.5651   -1226.8048    17610.474    7.8079355 
    3770    1008.0757   -9050.5272   -8938.0748   -3966.2534    17615.048    7.7950742 
    3780    994.69057   -9050.6011   -8939.6419   -4439.2669    17616.432    7.7926784 
    3790    956.04055   -9047.8005   -8941.1528   -3372.6823    17614.231    7.8019115 
    3800    962.09014   -9049.8973   -8942.5747   -2330.7843    17609.273    7.8203981 
    3810    964.08136    -9051.483   -8943.9383   -689.69948     17602.57    7.8471645 
    3820    960.46088   -9052.3759    -8945.235    763.90254    17595.456    7.8763517 
    3830    963.95297   -9054.0169   -8946.4865    1799.3574    17589.115    7.9037668 
    3840    962.73632   -9055.0827    -8947.688     2642.665    17584.394    7.9335456 
    3850    944.87086   -9054.2431   -8948.8413    3397.3628    17581.979    7.9689887 
    3860     931.1932     -9053.81    -8949.934    3096.9767    17582.337     8.007546 
    3870    955.23341   -9057.5642   -8951.0065    1515.9607    17585.115    8.0468364 
    3880    961.63807   -9059.3768   -8952.1047    727.19065     17589.14     8.086341 
    3890    940.98314   -9058.1727   -8953.2046    1117.5669    17593.781    8.1247888 
    3900    936.53757   -9058.7425   -8954.2703    613.87752    17599.164    8.1581286 
    3910    944.93974    -9060.701   -8955.2916   -872.98084    17604.871    8.1903027 
    3920    964.75409   -9063.9336   -8956.3138   -2526.8541    17609.742    8.2297795 
    3930    955.70514   -9063.9703   -8957.3599   -3030.3057    17612.546    8.2758455 
    3940    938.97865   -9063.1379   -8958.3934    -2770.775    17612.853    8.3272999 
    3950    925.67049   -9062.6277   -8959.3678   -1917.5573    17610.912    8.3841846 
    3960    904.76197   -9061.1534   -8960.2259   -712.60106    17607.503    8.4396299 
    3970    918.29814   -9063.4341   -8960.9966   -766.16708    17603.484    8.4844931 
    3980    907.22623   -9062.9012   -8961.6987    305.92142    17599.026    8.5238446 
    3990    902.02983   -9062.9239   -8962.3011    1613.9661    17594.929    8.5660053 
    4000    948.25949   -9068.6042   -8962.8244    1300.8234    17592.131    8.6102363 
    4010    979.95738   -9072.7023   -8963.3866    752.65704    17590.444    8.6570805 
    4020    942.33125   -9069.1323   -8964.0138    1869.6983    17589.559    8.7087807 
    4030    913.09123   -9066.4976   -8964.6408    2432.4269    17590.182    8.7637689 
    4040    913.75506   -9067.1423   -8965.2116    1342.8754    17592.662    8.8162208 
    4050    936.35621   -9070.1992   -8965.7473   -78.016462    17596.179    8.8608834 
    4060    937.08351   -9070.8053   -8966.2722   -682.46692    17599.619    8.8961141 
    4070    922.42852   -9069.6889   -8966.7906    16.804423    17602.549    8.9232558 
    4080    930.93909   -9071.1283   -8967.2806   -641.80839    17605.308    8.9453232 
    4090    987.69541   -9077.9833   -8967.8044   -1741.5262    17607.467    8.9684907 
    4100     990.4557   -9078.9361   -8968.4493   -2029.5105    17608.235    9.0038146 
    4110    943.23554   -9074.3984   -8969.1791   -2536.1174    17607.313    9.0421196 
    4120    936.19356   -9074.3688    -8969.935   -4161.6406    17604.214    9.0707497 
    4130    908.49632   -9072.0135   -8970.6694   -4767.2404    17597.813    9.0916172 
    4140    888.26375   -9070.3985   -8971.3114    -3933.192    17587.727    9.1098816 
    4150    917.81631   -9074.2468    -8971.863   -3473.2898    17574.549    9.1262848 
    4160    930.89529   -9076.1937   -8972.3509   -2474.8474    17558.821    9.1378245 
    4170    945.01657   -9078.2449   -8972.8269   -1526.4805    17541.363    9.1439206 
    4180    926.31183   -9076.6158   -8973.2843    531.15387    17523.103    9.1421379 
    4190    917.37883   -9075.9908   -8973.6558    2861.6561    17505.676    9.1337316 
    4200    960.75175   -9081.1701   -8973.9968    3568.3414    17490.806    9.1220487 
    4210    937.41175   -9078.9411   -8974.3714    3665.3809    17479.093    9.1079786 
    4220     938.5626   -9079.4833   -8974.7853    2890.9431    17470.542    9.0884772 
    4230    960.88875   -9082.4341   -8975.2455     2251.096    17464.532    9.0619733 
    4240     930.0347   -9079.4808   -8975.7341    2845.6979    17460.566    9.0292217 
    4250    942.60439   -9081.3771   -8976.2281    2936.2014     17458.93    8.9894425 
    4260    956.47022   -9083.4302   -8976.7345    3386.2034    17459.739    8.9460626 
    4270    918.91714   -9079.7398   -8977.2332     4228.637    17463.312    8.9029698 
    4280    890.62242   -9077.0083    -8977.658    4562.0421    17470.198     8.868409 
    4290    899.51681   -9078.3445   -8978.0021    4407.5169    17480.597    8.8444421 
    4300     892.6223   -9077.8322   -8978.2588    4032.5429    17494.342    8.8269439 
    4310    918.05037   -9080.8581   -8978.4482    2821.6322    17511.057    8.8126633 
    4320    933.93169   -9082.7751   -8978.5936    275.58705    17529.637    8.8024477 
    4330    926.80162   -9082.0939   -8978.7078   -1923.9579    17548.123    8.7997772 
    4340    934.85417   -9083.0762   -8978.7918   -3542.3522    17564.702    8.8005984 
    4350    930.47415   -9082.6678    -8978.872   -3239.6094    17578.213     8.803814 
    4360    908.86517   -9080.3253     -8978.94   -2212.0008    17588.859    8.8111379 
    4370      919.809   -9081.5725   -8978.9664   -2047.0506    17597.401    8.8232855 
    4380    923.23821   -9081.9349   -8978.9463   -1512.4059     17604.13    8.8375766 
    4390    926.78471    -9082.286   -8978.9018   -1176.2699    17609.485    8.8502083 
    4400    941.33162   -9083.8579   -8978.8509   -1649.6909     17613.72     8.859337 
    4410    917.76212   -9081.1603   -8978.7825   -2270.5669    17616.527    8.8689079 
    4420    936.09894   -9083.1142    -8978.691   -3540.7295    17617.376    8.8833655 
    4430    959.76735   -9085.6533   -8978.5898   -4315.6194    17615.331    8.9021876 
    4440    939.93021   -9083.3683   -8978.5176   -3881.0799    17609.852    8.9219838 
    4450    915.70116   -9080.6071   -8978.4593   -2738.5439     17601.33    8.9404579 
    4460    888.81057   -9077.4976   -8978.3495    -1372.216    17590.747    8.9537097 
    4470     903.6785   -9078.9525   -8978.1458   -340.10661    17579.219    8.9617131 
    4480    940.82797    -9082.811   -8977.8602     800.5842    17567.612    8.9674677 
    4490    954.13732   -9083.9862   -8977.5508    2627.4874    17556.939    8.9737065 
    4500    1002.0306    -9089.071    -8977.293    2718.5375    17548.483    8.9836617 
    4510    993.96777   -9088.0266    -8977.148    2687.2409    17542.417    8.9980342 
    4520    976.59915    -9086.077   -8977.1359    3084.5405    17538.662    9.0083443 
    4530    970.81677   -9085.5241    -8977.228    3047.3877    17537.433    9.0062784 
    4540    957.35787   -9084.1989   -8977.4042    3495.7328    17538.763     8.994396 
    4550    964.13279   -9085.1836   -8977.6332    3639.1681    17542.921    8.9859871 
    4560    983.78966    -9087.695   -8977.9518    2515.2805    17549.881    8.9909086 
    4570     917.2731   -9080.6512    -8978.328    2218.2484    17558.887    9.0059497 
    4580    896.02282   -9078.6164   -8978.6637    771.60372    17569.513    9.0249738 
    4590    948.49949   -9084.7456   -8978.9391   -2290.8951     17580.49    9.0450623 
    4600    927.58804   -9082.6709    -8979.197   -2998.2798    17589.634     9.063964 
    4610    900.21411    -9079.865   -8979.4448   -2522.1906    17596.234    9.0797414 
    4620     903.7105   -9080.4356   -8979.6253    -1420.482    17600.709    9.0931938 
    4630    942.34927   -9084.8745    -8979.754   -543.67671    17603.943    9.1068582 
    4640    947.85898    -9085.613   -8979.8779    156.23149    17606.716    9.1248957 
    4650    941.53071   -9085.0521    -8980.023   -488.91679    17609.483    9.1487763 
    4660     945.4753   -9085.6506   -8980.1814   -1895.9681    17611.767    9.1754642 
    4670    950.86811    -9086.433   -8980.3622   -2813.4253    17612.528    9.2042916 
    4680    937.78349    -9085.168   -8980.5568   -2701.7241     17611.05    9.2372786 
    4690      960.925   -9087.9724   -8980.7797   -2303.1378    17607.384    9.2749019 
    4700    975.63058   -9089.8993   -8981.0662   -1714.6492    17601.868    9.3160639 
    4710    965.47794    -9089.137   -8981.4365   -506.15807    17595.061    9.3579187 
    4720    958.63176   -9088.8176   -8981.8808    940.49287    17587.935    9.3957233 
    4730    919.40076   -9084.8927   -8982.3321    2769.9995    17581.727    9.4258811 
    4740    942.59805   -9087.9198   -8982.7716    2490.9202    17577.701    9.4471972 
    4750    967.59112    -9091.174   -8983.2377    1641.1541    17575.737    9.4612878 
    4760    960.71781   -9090.9325    -8983.763    1641.9012    17575.219     9.471618 
    4770    942.79292   -9089.5102   -8984.3402    2420.2953    17576.117     9.483772 
    4780    906.05073   -9085.9665   -8984.8952    2905.4492    17578.978    9.4999932 
    4790    914.36637   -9087.3945   -8985.3956    2626.9316    17584.173    9.5164165 
    4800    924.26145   -9088.9509   -8985.8482    1708.0484    17591.451    9.5340333 
    4810    921.67754    -9089.069   -8986.2545    459.05842    17600.076    9.5565521 
    4820    953.00719   -9092.9554    -8986.646   -2568.2424    17608.854    9.5808526 
    4830    943.79048    -9092.327   -8987.0457   -4558.9939    17615.553    9.6068489 
    4840    944.45721   -9092.8201   -8987.4645   -6205.8957    17618.428    9.6354475 
    4850    961.62899   -9095.1929   -8987.9218   -7563.3864    17616.164    9.6583813 
    4860    957.08457   -9095.2201   -8988.4558   -7768.4694    17607.747    9.6747678 
    4870    934.49047   -9093.2792   -8989.0353   -6728.2716    17593.082    9.6927724 
    4880    913.61921   -9091.4937   -8989.5781   -5664.6728    17572.996    9.7182345 
    4890    932.74155   -9094.1287     -8990.08   -4667.7442    17548.463    9.7527614 
    4900    938.71151   -9095.2774   -8990.5628    -3162.985    17520.407    9.7974406 
    4910    936.09486   -9095.4406   -8991.0179   -1348.2008    17490.108    9.8482034 
    4920    935.62786   -9095.8132   -8991.4425     1298.498    17459.107    9.8992157 
    4930    925.56611   -9095.0348   -8991.7865    4923.4409    17429.615    9.9470363 
    4940    946.87973   -9097.7133   -8992.0874    6255.1441    17404.313     9.987941 
    4950    968.39728   -9100.4748   -8992.4486    5497.1469    17384.237     10.01886 
    4960    936.35127   -9097.3204    -8992.869    5481.0893    17368.905      10.0359 
    4970    945.56298   -9098.7881   -8993.3092    5281.7997    17358.127    10.039834 
    4980     970.2946   -9102.0353   -8993.7974    4935.3313    17351.709    10.037629 
    4990    959.62364   -9101.4006   -8994.3532    5367.4484    17349.383    10.033623 
    5000    951.08247   -9101.0577    -8994.963    5384.9003    17351.327    10.031987 
Loop time of 2231.5 on 16 procs for 3000 steps with 864 atoms

Performance: 0.116 ns/day, 206.620 hours/ns, 1.344 timesteps/s
96.2% CPU use with 16 MPI tasks x 1 OpenMP threads

MPI task timing breakdown:
Section |  min time  |  avg time  |  max time  |%varavg| %total
---------------------------------------------------------------
Pair    | 514.77     | 1220.3     | 2221.9     |1583.9 | 54.68
Bond    | 0.00024796 | 0.00068346 | 0.0016048  |   0.0 |  0.00
Neigh   | 0.022738   | 0.054164   | 0.10002    |  11.2 |  0.00
Comm    | 2.3403     | 681.38     | 1588.8     |1850.1 | 30.53
Output  | 0.19379    | 0.19723    | 0.24713    |   2.9 |  0.01
Modify  | 6.6202     | 329.6      | 834.04     |1565.6 | 14.77
Other   |            | 0.0134     |            |       |  0.00

Nlocal:        54.0000 ave          85 max          22 min
Histogram: 2 2 2 1 1 1 1 2 1 3
Nghost:        546.625 ave         755 max         345 min
Histogram: 3 1 1 1 2 1 3 0 2 2
Neighs:         0.00000 ave           0 max           0 min
Histogram: 16 0 0 0 0 0 0 0 0 0
FullNghs:      3000.62 ave        6127 max         603 min
Histogram: 4 2 0 2 1 1 2 0 2 2

Total # of neighbors = 48010
Ave neighs/atom = 55.567130
Ave special neighs/atom = 0.0000000
Neighbor list builds = 300
Dangerous builds = 300
unfix   2

fix     3 all npt temp 937.5 937.5 $(100.0*dt) aniso 1.01325 1.01325 $(1000.0*dt)
fix     3 all npt temp 937.5 937.5 0.10000000000000000555 aniso 1.01325 1.01325 $(1000.0*dt)
fix     3 all npt temp 937.5 937.5 0.10000000000000000555 aniso 1.01325 1.01325 1
run     20000
Per MPI rank memory allocation (min/avg/max) = 8.895 | 8.911 | 8.921 Mbytes
Step Temp PotEng TotEng Press Volume c_msd[4] 
    5000    951.08247   -9101.0577    -8994.963    5384.9003    17351.327    10.031987 
    5010    923.06088   -9097.9487   -8994.9798    5918.8669    17353.592    10.039939 
    5020    897.27838   -9095.0729   -8994.9801     5211.971    17360.547    10.053431 
    5030    924.28612   -9098.0286    -8994.923    3237.9529     17371.66    10.073517 
    5040    942.48097    -9099.956   -8994.8209    302.74309    17385.347     10.09769 
    5050    913.45898   -9096.5843   -8994.6866   -2004.5794    17399.348    10.123072 
    5060    916.22364   -9096.7133   -8994.5072   -3269.7275    17411.821    10.148391 
    5070    926.32688   -9097.5763   -8994.2432   -4509.8633    17421.637    10.172135 
    5080    930.05371   -9097.6617   -8993.9128    -5179.391    17427.831    10.191166 
    5090    934.26124   -9097.7652   -8993.5469   -5440.6215    17429.841    10.203242 
    5100    925.13676   -9096.3402   -8993.1398   -5238.4181    17427.491    10.211672 
    5110    951.83611   -9098.8642   -8992.6854   -4947.7691    17420.879    10.221621 
    5120    984.67218   -9102.0542   -8992.2126   -3495.6749    17410.353    10.235089 
    5130    969.68986   -9099.9592   -8991.7888   -1361.9449    17397.025    10.252218 
    5140    939.34731   -9096.1793   -8991.3937    102.90938    17382.559    10.269247 
    5150    985.10381    -9100.881   -8990.9912    -70.95988    17368.067    10.283976 
    5160    1000.1603   -9102.1774    -8990.608    752.33093    17353.588    10.303481 
    5170    991.01776   -9100.8469   -8990.2974    3365.8833    17339.834    10.328475 
    5180    997.01973    -9101.293   -8990.0739    6149.3526    17328.783    10.350916 
    5190    961.50118   -9097.2156   -8989.9587    8523.0312    17322.664    10.360484 
    5200    942.96922    -9095.128   -8989.9384    8587.4246    17323.232    10.352098 
    5210    955.56344   -9096.5486   -8989.9541     6591.383    17330.607    10.329544 
    5220    997.58576   -9101.2976   -8990.0154    3459.8967    17343.221    10.300445 
    5230    1001.3622   -9101.8997   -8990.1962    2081.7157    17358.809     10.27562 
    5240    984.88285   -9100.4111    -8990.546    460.51931     17376.09    10.257495 
    5250    985.46068   -9101.0104   -8991.0808   -1049.1463    17393.791     10.24558 
    5260    941.95687   -9096.8449   -8991.7682   -1297.8338    17410.765    10.237279 
    5270    937.70073   -9097.1556   -8992.5537   -2372.7234    17426.652    10.226252 
    5280    935.45127   -9097.7364   -8993.3854   -4404.6301     17440.58    10.211785 
    5290      941.277   -9099.2338    -8994.233   -6675.1756    17450.913     10.19936 
    5300    943.82759   -9100.4057   -8995.1203   -7268.2042     17455.94    10.194479 
    5310     901.8785    -9096.561   -8995.9551   -5674.3119    17455.196    10.199823 
    5320    915.01103   -9098.7608     -8996.69   -4939.2391    17449.734    10.212932 
    5330     920.6282   -9100.0359   -8997.3384   -4868.9352    17440.206    10.232421 
    5340    917.66524   -9100.2699   -8997.9029   -4286.5107    17426.735    10.257194 
    5350    937.71359   -9103.0075   -8998.4041   -3171.8723    17409.792     10.28754 
    5360    935.70226   -9103.2269   -8998.8479   -1354.5736    17390.314     10.32522 
    5370    938.76669   -9103.9507   -8999.2298    1254.7669    17369.773    10.369432 
    5380    933.14415   -9103.6374   -8999.5438    4086.1032    17350.257    10.414398 
    5390    909.41713   -9101.2272   -8999.7804    6688.5983    17334.048    10.452239 
    5400    929.07543   -9103.6035   -8999.9637    6943.7082    17323.045     10.47972 
    5410    981.83964   -9109.6908   -9000.1651     5902.449    17317.547    10.495268 
    5420    972.93696   -9109.0112   -9000.4786    6338.2094     17316.91    10.499947 
    5430     908.7669   -9102.2162   -9000.8419    7355.2439    17321.473    10.497821 
    5440    939.41823   -9105.9974   -9001.2039    5107.0798    17331.728    10.493498 
    5450    920.93125    -9104.264   -9001.5328    3118.8095    17346.194    10.489857 
    5460    879.39842   -9099.8812   -9001.7829    984.60614    17363.236    10.485111 
    5470    929.50697   -9105.6078   -9001.9199   -2917.0178    17380.993    10.477424 
    5480    954.94452   -9108.5303   -9002.0048    -5007.716     17396.62    10.470524 
    5490    914.32328    -9104.107   -9002.1128   -4706.6404    17408.442    10.465418 
    5500     907.8468   -9103.4653   -9002.1937   -5609.9997    17416.373    10.459078 
    5510    913.87634   -9104.1595   -9002.2152   -6829.8243    17419.731    10.451645 
    5520    892.66289   -9101.7572   -9002.1793   -6154.4863    17417.707    10.449733 
    5530    927.56797   -9105.5571   -9002.0855   -5529.7496    17410.654    10.458718 
    5540     954.9445   -9108.4867   -9001.9612   -4063.2753    17399.136     10.47578 
    5550    932.57925   -9105.8667   -9001.8361   -1128.8813    17384.404    10.496972 
    5560    921.65508   -9104.4884   -9001.6764    1350.1434    17368.672    10.518524 
    5570    929.43197   -9105.1306   -9001.4511    2763.8427    17353.918     10.53646 
    5580    932.93165    -9105.243    -9001.173    3756.6116    17341.333    10.548247 
    5590    929.28467   -9104.5096   -9000.8465    4068.2459    17331.694    10.558812 
    5600    943.94317   -9105.7624   -9000.4641    3343.3642    17325.226    10.570316 
    5610    971.10531   -9108.3737   -9000.0455    2662.9159    17321.416    10.574336 
    5620    942.69334   -9104.7711   -8999.6123    3155.3783    17319.803    10.566041 
    5630    925.70681   -9102.4103   -8999.1463    3892.4557    17320.748    10.550614 
    5640    971.75688   -9106.9947   -8998.5937    3544.2862    17324.753    10.536183 
    5650    971.02886   -9106.3149   -8997.9952    3922.7417    17331.721    10.528986 
    5660    956.19212   -9104.0732   -8997.4085    4722.6288    17341.967    10.527808 
    5670    952.37334   -9103.0552   -8996.8165    4176.8017    17356.002    10.523406 
    5680     971.6465   -9104.5763   -8996.1877    1844.2497    17373.419    10.505517 
    5690    1006.6708   -9107.8361   -8995.5405   -1886.1503     17392.36    10.474878 
    5700    973.54583   -9103.5527   -8994.9522   -3909.5219    17410.057    10.440253 
    5710    922.14033    -9097.298   -8994.4319   -4235.0005    17424.838    10.407873 
    5720    943.09332   -9099.0996   -8993.8961   -4794.7838     17436.22     10.38426 
    5730    971.44374   -9101.7006   -8993.3346   -5216.8651    17443.788    10.373538 
    5740    982.52156   -9102.4471   -8992.8453   -5554.2906    17447.142    10.375109 
    5750     948.3699   -9098.2401    -8992.448   -4692.1093    17446.076    10.389745 
    5760    948.46679   -9097.9062   -8992.1033   -4534.2318    17441.113    10.423083 
    5770    972.86288   -9100.2948   -8991.7704   -4676.9282    17432.397     10.47894 
    5780    994.36482   -9102.4326   -8991.5097   -3602.1503    17419.862    10.549278 
    5790    956.12465   -9097.9869   -8991.3297   -885.34269    17404.414    10.618576 
    5800    945.47013   -9096.6311   -8991.1625    1573.6316    17388.106    10.668983 
    5810    976.17696   -9099.8775   -8990.9835    3056.6252    17372.891    10.698612 
    5820    970.41591    -9099.104   -8990.8526     4220.193    17360.056    10.716524 
    5830    970.57529   -9099.0845   -8990.8154    4085.4162    17350.443    10.724699 
    5840    965.75552   -9098.6085    -8990.877    3307.5702    17344.025    10.726774 
    5850    943.99152   -9096.3343   -8991.0307    2705.7218    17340.258    10.731775 
    5860    961.50301   -9098.5007   -8991.2436    501.82558    17338.536    10.741494 
    5870    1014.3671   -9104.7486   -8991.5944   -2490.5735    17337.134     10.75802 
    5880    984.41781   -9101.9579   -8992.1446   -2634.7496    17333.931    10.782281 
    5890    984.32195   -9102.7169   -8992.9143   -2663.3673     17328.56    10.803342 
    5900    980.62628   -9103.2933    -8993.903    -3243.623    17320.926    10.808294 
    5910    938.65163   -9099.7446   -8995.0366   -2128.6155    17310.736    10.801871 
    5920    943.91007   -9101.4809   -8996.1863   -865.41095    17298.729    10.795451 
    5930    968.79176   -9105.4203   -8997.3501   -65.857684    17285.849    10.795669 
    5940    925.04825   -9101.5828   -8998.3922    1819.8784    17272.886    10.806467 
    5950      942.891   -9104.4441   -8999.2632    2935.8351    17261.207    10.824631 
    5960    959.52995   -9107.0378   -9000.0008     3609.209    17251.743    10.842999 
    5970    937.18902    -9105.171   -9000.6261    4961.9355     17245.13    10.859479 
    5980    943.37792    -9106.388   -9001.1528    5374.6056    17242.356    10.871523 
    5990    944.37485   -9106.9674    -9001.621    4227.1831    17243.741    10.881345 
    6000    898.42743   -9102.2183   -9001.9974    3322.4331    17248.602    10.898229 
    6010    952.05564   -9108.5014   -9002.2981    323.92838        17256    10.924979 
    6020    959.07516   -9109.5425   -9002.5562   -1267.2518    17263.863     10.95964 
    6030    933.85368   -9106.9815   -9002.8088    -1285.683    17270.915    10.992319 
    6040     958.6466   -9110.0071   -9003.0686    -1908.158    17276.965    11.016503 
    6050    948.77402   -9109.1735   -9003.3364   -1834.4507    17281.628    11.033993 
    6060    969.71986   -9111.8201   -9003.6464   -1451.1807    17284.914    11.050473 
    6070    980.47378   -9113.3984    -9004.025   -1003.6144    17287.091    11.073296 
    6080    959.42235   -9111.5111   -9004.4861   -990.87566    17288.441    11.103415 
    6090    937.42762    -9109.549   -9004.9775   -1499.3159    17288.989    11.135022 
    6100    940.56878   -9110.3855   -9005.4637   -2501.8297    17288.328    11.162341 
    6110    920.56969    -9108.629   -9005.9381    -2712.727    17285.695    11.185955 
    6120    884.17051   -9104.9713   -9006.3408   -2211.9677     17280.88    11.206448 
    6130    906.22785   -9107.7362   -9006.6452   -2461.3923     17274.15    11.218877 
    6140    928.92081   -9110.5015    -9006.879    -2456.189    17265.353    11.223805 
    6150    914.28703   -9109.0623   -9007.0722   -1658.1752    17254.493    11.223104 
    6160    916.87158    -9109.493   -9007.2145   -1184.7571    17242.095    11.215464 
    6170    939.17628   -9112.0951   -9007.3286   -837.48661    17228.526    11.200937 
    6180    927.71452   -9110.9007   -9007.4128    415.29149    17214.154     11.18664 
    6190    949.60164   -9113.4051   -9007.4756    1795.0053    17199.902    11.180758 
    6200    956.76686   -9114.2779   -9007.5491    3837.2143    17186.899     11.18278 
    6210    942.06117   -9112.7399   -9007.6515    5954.6613    17176.772    11.186146 
    6220    971.27037    -9116.176   -9007.8293    5384.3874    17171.015    11.183494 
    6230    942.49587   -9113.2325   -9008.0957     4409.616    17169.467     11.17459 
    6240    932.25504   -9112.4375    -9008.443    3537.8008    17171.412    11.161256 
    6250    918.23269   -9111.2421   -9008.8119    3113.6817    17176.253    11.147139 
    6260    918.33896   -9111.5932   -9009.1511    2183.7365    17183.631    11.138037 
    6270    959.67415   -9116.5369   -9009.4838    527.94099    17192.838    11.137274 
    6280    938.88711   -9114.5802   -9009.8459    -68.44574    17202.768    11.145465 
    6290    904.20488   -9111.0663   -9010.2009    -512.6105    17212.852    11.159137 
    6300    922.83017   -9113.4658   -9010.5227   -1178.2397    17222.693     11.18025 
    6310     902.8453   -9111.5344   -9010.8206   -880.62585    17231.827    11.208391 
    6320    866.10635   -9107.6716   -9011.0561     62.02013    17240.486    11.235875 
    6330    923.54328   -9114.2579   -9011.2352   -898.46572    17249.188    11.256632 
    6340    933.75157   -9115.5498   -9011.3884   -1305.3434    17257.398    11.272947 
    6350     934.6904   -9115.8277   -9011.5616   -2210.6596    17264.661    11.290506 
    6360    929.31896   -9115.4104   -9011.7434   -2863.8064    17270.317    11.313204 
    6370    898.99655   -9112.1935   -9011.9091    -3286.045    17273.785    11.342716 
    6380    917.86361   -9114.4299   -9012.0408   -4430.9788    17274.596    11.373616 
    6390    932.54889    -9116.201   -9012.1738   -4315.9098    17271.946    11.398997 
    6400    909.49141   -9113.7761   -9012.3209   -2826.9054    17265.857    11.418695 
    6410    933.11421   -9116.5629   -9012.4726    -1135.659    17257.403    11.434446 
    6420    948.86214   -9118.5079   -9012.6609    1251.3338    17247.946    11.446822 
    6430    909.52463   -9114.3551   -9012.8962    3288.2362    17239.282    11.455583 
    6440    906.29194   -9114.2074   -9013.1092    3226.2439    17232.949    11.460526 
    6450    920.14041   -9115.9084   -9013.2653    1934.9728    17228.997    11.461513 
    6460    914.92669   -9115.4148   -9013.3533    547.78242    17226.516    11.456174 
    6470    933.09791   -9117.4619   -9013.3734    -1021.575    17224.437    11.443819 
    6480    935.10165   -9117.6672   -9013.3552   -2140.8003    17221.538    11.429354 
    6490    919.93557   -9115.9449   -9013.3247   -1910.3989    17216.982    11.417556 
    6500     918.0653    -9115.684   -9013.2725   -1804.3821    17210.796    11.410852 
    6510    920.88633   -9115.9041   -9013.1779   -1832.3031    17203.054    11.409686 
    6520    936.07924   -9117.4743   -9013.0533   -1178.9103    17193.783    11.413327 
    6530     952.6352   -9119.1921   -9012.9242    357.42174    17183.492    11.416685 
    6540    952.72755   -9119.0802    -9012.802    2451.2736    17173.349    11.418378 
    6550     974.2939   -9121.3817   -9012.6978    4076.5152    17164.971    11.423295 
    6560     965.7824   -9120.3956   -9012.6611    5431.0852    17159.692    11.434841 
    6570    926.63883   -9116.0568   -9012.6888       6913.7    17158.677    11.449741 
    6580    942.63438   -9117.9089   -9012.7566    6871.4784     17163.02    11.463584 
    6590    917.44285   -9115.1907   -9012.8486     7442.051    17172.976    11.473604 
    6600    898.14295   -9113.1231   -9012.9339    7302.5567    17189.016    11.479014 
    6610    957.62801   -9119.8114   -9012.9866    4763.5588    17211.014    11.484591 
    6620     949.9569   -9118.9943   -9013.0252     3457.961    17237.378    11.492265 
    6630    932.24837    -9117.076   -9013.0823    1998.3468    17266.987    11.490199 
    6640     955.1155   -9119.6605   -9013.1159   -401.22111    17298.655    11.464819 
    6650    949.71816    -9119.089   -9013.1465   -2332.1788    17330.578    11.418916 
    6660    943.10101   -9118.3837   -9013.1794   -4881.1982    17361.066    11.367738 
    6670    940.60226   -9118.1243   -9013.1987   -6738.3552    17388.129    11.326478 
    6680     933.6599   -9117.3794   -9013.2283   -8461.2213    17410.068    11.296421 
    6690    924.68138   -9116.4252   -9013.2756   -9644.9478    17425.427    11.275239 
    6700    906.63288    -9114.465   -9013.3288    -10077.31    17433.153    11.264958 
    6710    933.10508   -9117.4779   -9013.3886   -10693.147    17432.698    11.268274 
    6720    969.81402   -9121.6755   -9013.4913   -10079.421    17423.587    11.283219 
    6730    977.59097   -9122.7138   -9013.6621    -7131.145    17406.342    11.309171 
    6740    991.99587   -9124.5767    -9013.918   -4111.4751    17383.148    11.348467 
    6750    949.95606   -9120.2207   -9014.2517   -1366.2412    17356.432    11.400561 
    6760    947.71071   -9120.3479   -9014.6294    796.58511    17328.398    11.458764 
    6770    959.02718   -9122.0237   -9015.0428    2818.8051    17300.855    11.515564 
    6780    931.11632   -9119.3353   -9015.4679    5727.6879     17275.54    11.561752 
    6790    953.05341   -9122.2332   -9015.9187     8502.315    17254.692    11.588413 
    6800    950.12316   -9122.4217    -9016.434    11514.095    17240.592    11.597738 
    6810    921.53258   -9119.8246   -9017.0263    13412.939    17235.561    11.595604 
    6820    919.50887   -9120.2584   -9017.6858    13321.447    17241.118    11.584354 
    6830    943.30133   -9123.6545   -9018.4278    11413.663    17257.218    11.568281 
    6840    935.54737   -9123.5695   -9019.2078    9203.9081    17282.574    11.555927 
    6850    963.91304   -9127.5112   -9019.9852    4093.4782    17315.255    11.545391 
    6860    928.95763   -9124.3024   -9020.6758   -487.03456    17351.484    11.530468 
    6870    861.41398   -9117.2844   -9021.1924   -3194.3254    17387.628    11.504882 
    6880    874.30611   -9119.0159   -9021.4857   -6324.3354    17421.296    11.467322 
    6890     918.7008   -9124.0836   -9021.6011   -9836.2353    17449.855    11.426368 
    6900    899.11495   -9121.9181   -9021.6205   -10904.202    17470.616    11.389982 
    6910    906.55308   -9122.7373   -9021.6099   -11255.008    17482.494    11.357763 
    6920      909.531   -9123.0386    -9021.579   -10276.856    17485.237    11.327514 
    6930    911.91945   -9123.2795   -9021.5535   -7696.9713    17479.692    11.300721 
    6940    919.82614   -9124.1108   -9021.5028   -6321.6952    17467.769    11.280973 
    6950    944.13227   -9126.7575   -9021.4381   -4799.4024     17450.73    11.270615 
    6960    932.73181   -9125.3869   -9021.3392   -853.84441    17430.009    11.272973 
    6970    908.12251   -9122.4716   -9021.1692    3052.8765    17408.626    11.290641 
    6980    923.72097   -9123.9641   -9020.9216    4588.0353    17389.614    11.319807 
    6990     945.1014   -9126.0806   -9020.6531    4433.0712    17374.242     11.34876 
    7000    924.25342   -9123.4888   -9020.3869    4633.8021    17362.538    11.369243 
    7010    939.60913   -9124.9339   -9020.1191    4286.5041    17354.546     11.37391 
    7020    933.02089    -9123.911   -9019.8311     4966.392    17350.128    11.356235 
    7030    916.34524   -9121.7369   -9019.5172    5792.3815    17349.729    11.314044 
    7040    936.33126   -9123.5917   -9019.1425    5782.3721    17353.935    11.260914 
    7050    956.25368   -9125.3839   -9018.7124     5790.957    17362.826     11.21298 
    7060    1004.9076   -9130.3917   -9018.2927    5111.1265    17376.328    11.180664 
    7070    989.54911   -9128.3328   -9017.9471    4369.4725    17393.914    11.172155 
    7080    924.57776    -9120.827    -9017.689    4308.7038    17415.088    11.182696 
    7090    915.39227    -9119.505   -9017.3916    2473.7124    17439.616    11.192528 
    7100    954.52593   -9123.4158    -9016.937   -1077.2933    17466.009    11.193503 
    7110    982.37649   -9125.9199   -9016.3343   -4564.4787     17491.48    11.197174 
    7120     968.6596   -9123.7085   -9015.6531   -6870.4132    17513.208    11.215196 
    7130    968.68454   -9122.9864   -9014.9282   -7910.6961    17529.268    11.251662 
    7140    977.72419   -9123.2401   -9014.1735    -7255.369    17538.861    11.303469 
    7150    982.30786   -9123.0176   -9013.4397   -5743.1729    17542.469    11.365611 
    7160    960.72547   -9119.9139   -9012.7436   -3497.7482    17541.389      11.4315 
    7170    946.49177   -9117.6065   -9012.0239   -2020.0223    17537.388    11.493722 
    7180    987.73917   -9121.4416   -9011.2578   -1700.6605    17531.675    11.548291 
    7190    972.41758   -9118.9655   -9010.4908   -696.67928    17524.688       11.594 
    7200    963.92605   -9117.3239   -9009.7965     91.19303    17517.178     11.63689 
    7210    981.14006   -9118.6178   -9009.1702    1005.3986    17509.848    11.686568 
    7220    972.04859   -9117.0806   -9008.6471    1757.7294    17503.419    11.742891 
    7230    984.67631   -9118.0815   -9008.2394    1506.7358     17498.43      11.7984 
    7240    1002.2746   -9119.7694   -9007.9641    1364.6566    17494.753    11.843712 
    7250     944.0315   -9113.1158   -9007.8077    2596.6909    17492.353    11.870244 
    7260     954.3194   -9114.1805   -9007.7247    3038.7547    17492.046    11.872568 
    7270    986.46018   -9117.7313   -9007.6902    1998.4691    17494.102    11.851966 
    7280    994.40554   -9118.7061   -9007.7787    1207.3811    17497.796    11.814963 
    7290    1009.3818   -9120.6393   -9008.0412    86.031122    17502.419    11.769572 
    7300    985.86889    -9118.434   -9008.4588   -981.85893    17507.085    11.723079 
    7310    984.66691    -9118.856    -9009.015   -1689.5903    17510.933    11.679545 
    7320    966.38477   -9117.4849   -9009.6832   -1831.0969    17513.401    11.643255 
    7330    945.33806   -9115.8603   -9010.4064   -2374.3132    17514.347    11.615412 
    7340    978.93773   -9120.4229   -9011.2209   -3107.3601    17513.348    11.596188 
    7350    974.30859   -9120.8546    -9012.169    -2426.519    17509.925    11.584953 
    7360    946.73266   -9118.7638   -9013.1543   -1046.2583    17504.653    11.580602 
    7370    950.80006   -9120.1529   -9014.0898   -1363.7999    17498.476    11.582163 
    7380    956.95243    -9121.717   -9014.9675   -2141.9362    17491.258     11.58812 
    7390    919.76948   -9118.3307    -9015.729   -2062.2581    17482.502    11.599664 
    7400    913.42826   -9118.2037   -9016.3094   -2128.6387    17472.211    11.620562 
    7410      956.872   -9123.4945    -9016.754   -2330.5313    17460.363    11.649454 
    7420     964.3971   -9124.7331   -9017.1532   -1223.7317    17446.928    11.680675 
    7430     903.6252   -9118.2958    -9017.495    990.08457    17432.806    11.708969 
    7440    893.07859    -9117.337   -9017.7127    2326.7206    17419.657    11.734084 
    7450    934.23303   -9122.0554   -9017.8403    2705.1088     17408.54    11.759481 
    7460    934.93554   -9122.2258   -9017.9324     3703.019    17399.873    11.789982 
    7470    936.01622   -9122.4409   -9018.0269    3787.9802    17394.254    11.829681 
    7480    933.90522   -9122.2894   -9018.1109    3215.8558    17391.743    11.881305 
    7490    949.23066   -9124.0698   -9018.1817     2292.369     17391.84    11.941547 
    7500    954.42644    -9124.746   -9018.2783    1238.7293    17393.761    12.002639 
    7510    903.31303   -9119.1383   -9018.3724      922.416    17396.734    12.060951 
    7520     916.5263   -9120.6513   -9018.4114   -660.75775    17400.287    12.112199 
    7530    960.16992   -9125.5262   -9018.4178   -1979.0371    17403.237    12.152799 
    7540    914.18637   -9120.4179   -9018.4391   -634.63016    17404.732    12.190051 
    7550    896.72329   -9118.4583   -9018.4275    146.07835    17405.655     12.23178 
    7560    951.81621   -9124.5283   -9018.3518   -1865.9413    17406.436    12.281777 
    7570    944.55179   -9123.6224   -9018.2562   -3183.1221    17405.765    12.338295 
    7580    951.92729   -9124.3811   -9018.1922   -4088.7516    17402.596    12.395013 
    7590    982.54293   -9127.7989   -9018.1948   -5369.7532    17396.161    12.452954 
    7600    946.08093   -9123.8163   -9018.2796   -4657.0564     17385.72    12.520024 
    7610    960.91081   -9125.6062   -9018.4151   -4575.4444    17371.689    12.596026 
    7620    993.60005   -9129.4662   -9018.6286   -4440.1276    17354.283    12.674903 
    7630    982.48905   -9128.5726   -9018.9744    -1788.907    17333.922     12.75125 
    7640    948.83427   -9125.2289   -9019.3851    2100.0217    17312.693    12.821431 
    7650    938.17093   -9124.4464    -9019.792    5828.9382    17293.632    12.883853 
    7660    963.47605   -9127.7047   -9020.2274    7896.4605    17279.547    12.941389 
    7670    960.47063   -9127.9067   -9020.7648    7324.4375    17271.835    12.991676 
    7680    950.64159   -9127.4467   -9021.4012    5387.5609    17270.011    13.027366 
    7690    963.96214   -9129.6556   -9022.1242    3250.2561    17272.476    13.042705 
    7700    930.87008   -9126.7497   -9022.9097    2943.5161    17277.594    13.040175 
    7710    915.31907   -9125.7609   -9023.6557    1879.1244    17284.861    13.026116 
    7720     959.6477   -9131.4276   -9024.3775   -996.50131    17293.323    13.012846 
    7730     928.1649    -9128.608   -9025.0698   -2870.6062    17300.923    13.016637 
    7740    914.97355   -9127.7519   -9025.6853   -4750.9566    17306.077    13.040328 
    7750    923.94088   -9129.2627   -9026.1957   -6147.6796    17307.392    13.075739 
    7760    934.79517   -9130.9252   -9026.6474    -5324.586    17303.986    13.120255 
    7770    919.39498   -9129.6049    -9027.045   -3767.2735    17296.486    13.173906 
    7780    926.00417   -9130.6733   -9027.3762   -3243.4827    17286.083    13.233133 
    7790    942.23595   -9132.7654   -9027.6576   -2928.4961    17273.319    13.291015 
    7800    906.02399   -9128.9476   -9027.8792   -988.44062     17258.64    13.343624 
    7810    894.71126    -9127.791   -9027.9846    1989.0478    17243.561    13.388313 
    7820    936.05589   -9132.4073   -9027.9888    4178.0043    17230.319    13.424215 
    7830    959.27017   -9134.9907   -9027.9826    5410.2041    17220.597    13.450811 
    7840    951.08156   -9134.1369   -9028.0423    5863.0266    17215.287    13.466282 
    7850    940.66533   -9133.1108   -9028.1782    5311.3095     17214.61     13.46943 
    7860    930.90349   -9132.1813   -9028.3376    4631.0596    17218.124    13.460789 
    7870    910.37416   -9130.0259   -9028.4723    3620.5311    17225.201    13.441579 
    7880    890.31305   -9127.8378   -9028.5221    1380.1731    17234.911    13.410892 
    7890    926.78035    -9131.845   -9028.4612   -1527.1889    17245.485    13.371895 
    7900    952.38383   -9134.5872   -9028.3473   -3438.5181    17254.754    13.332588 
    7910    916.25221   -9130.4478   -9028.2385   -3951.6228    17261.233    13.296514 
    7920    884.57173   -9126.7568   -9028.0815   -3332.4989    17264.551    13.262724 
    7930    921.30126   -9130.6191   -9027.8466   -2852.6263    17265.156    13.228866 
    7940    939.08369   -9132.3429   -9027.5867   -1555.2343    17263.557    13.194576 
    7950    909.49573   -9128.7877    -9027.332    309.24967      17260.8    13.160844 
    7960    921.41142   -9129.8201   -9027.0353    522.54651    17258.214    13.134104 
    7970       955.92   -9133.3407   -9026.7064    522.10518    17256.086    13.120737 
    7980    929.74714   -9130.1091   -9026.3944    2219.6993    17254.569    13.118838 
    7990    928.75481   -9129.6912   -9026.0872    2974.0935    17254.749    13.121528 
    8000    955.76818   -9132.3955   -9025.7781    2863.2791    17257.216    13.125031 
    8010    934.62068   -9129.7556   -9025.4972     2823.027    17261.968    13.126174 
    8020    946.67674    -9130.841   -9025.2378    1946.3693    17268.815    13.125077 
    8030    945.05932   -9130.4019   -9024.9791    2782.4867    17277.236    13.129316 
    8040    951.61164   -9130.9183   -9024.7646    3890.7107    17287.774    13.144467 
    8050    966.24221   -9132.3769   -9024.5911    3459.3137    17301.155    13.170364 
    8060    970.61078   -9132.7463   -9024.4732    2031.8916    17317.061    13.199471 
    8070     961.6479   -9131.6772    -9024.404    340.98078    17334.383    13.219826 
    8080    946.77294   -9129.9859   -9024.3719   -211.61074    17351.847    13.228054 
    8090    959.04133    -9131.359   -9024.3765     253.0812    17368.995    13.231351 
    8100    988.34225   -9134.7058   -9024.4547    1064.7037    17386.172    13.235115 
    8110    985.72177   -9134.6326   -9024.6738    1512.2709    17403.976    13.239302 
    8120    949.37519   -9130.9541   -9025.0499    1483.3327    17422.776     13.24342 
    8130    914.33009   -9127.5134   -9025.5185    101.16742    17442.458    13.245557 
    8140    917.78064   -9128.4392   -9026.0594   -1434.7952    17461.985    13.243215 
    8150    910.73821   -9128.2966   -9026.7024   -1402.8125    17480.236    13.233865 
    8160    918.84937   -9130.0076   -9027.5085   -1177.9012    17497.136    13.215893 
    8170    883.60311   -9126.9883    -9028.421   -1429.0186    17512.856    13.185451 
    8180    879.87522   -9127.5053   -9029.3539   -2483.3319    17527.149    13.136954 
    8190    889.52642   -9129.4949   -9030.2669   -4035.0861    17539.198    13.078804 
    8200    888.41688   -9130.2449   -9031.1407   -4818.8942    17547.858    13.027896 
    8210    877.46084   -9129.8123   -9031.9302   -4528.5139    17552.542    12.994196 
    8220    895.81573   -9132.5345   -9032.6049   -4845.5944    17553.367    12.977386 
    8230    897.86043   -9133.3232   -9033.1656    -4096.039    17550.314    12.969701 
    8240    884.56717   -9132.2649   -9033.5901   -2311.4493    17544.031    12.960212 
    8250    878.89122   -9131.9063   -9033.8646   -419.35874    17535.942    12.941432 
    8260     860.0632   -9129.9119   -9033.9705    1605.2231    17527.668    12.915674 
    8270    883.50007    -9132.492   -9033.9362     2784.099    17520.757    12.888892 
    8280    877.71169   -9131.6857   -9033.7756    4184.9105    17516.275    12.867354 
    8290    904.46071   -9134.4287   -9033.5347    3514.5967    17515.086    12.851923 
    8300    937.00085   -9137.7604   -9033.2365    2915.8308      17516.8    12.847528 
    8310    906.94407   -9134.0857   -9032.9148    3415.0311    17520.982    12.857946 
    8320    900.71356   -9133.0384   -9032.5625    3541.2011     17527.86    12.878296 
    8330    911.46669   -9133.8044   -9032.1289     3778.224    17537.574    12.902024 
    8340    939.68479    -9136.458   -9031.6347    3746.3715    17550.284    12.923363 
    8350    952.38499   -9137.3651   -9031.1251    3188.8578    17565.908    12.938528 
    8360    925.87848   -9133.9171    -9030.634    2839.7832     17584.04    12.946364 
    8370     925.5434   -9133.3782   -9030.1324    1479.8626    17604.274    12.948998 
    8380    929.85383   -9133.3158   -9029.5892   -46.331607    17625.547    12.953054 
    8390    923.77317   -9132.0723    -9029.024   -1325.0737    17646.628    12.961086 
    8400    934.78849   -9132.7215   -9028.4444   -2341.2356    17666.472    12.970011 
    8410    935.43713   -9132.2212   -9027.8717   -2235.0723    17684.308    12.977908 
    8420    945.38532   -9132.7922    -9027.333   -1762.4207     17700.18    12.985346 
    8430    977.84583   -9135.9288   -9026.8486   -1839.2894    17714.409    12.995915 
    8440    981.82512   -9136.0004   -9026.4763   -1487.2895        17727    13.011525 
    8450    953.70721   -9132.6212   -9026.2338   -568.87639    17738.276    13.027245 
    8460    942.89305   -9131.2556   -9026.0745    52.232479     17748.95     13.03915 
    8470    901.18626   -9126.4594   -9025.9307    982.61966    17759.633    13.046054 
[...]
   22890    954.18397   -9189.6484   -9083.2077    3778.5268    17275.295    26.479661 
   22900    947.26594   -9189.2241   -9083.5551    1987.8831    17283.184      26.4709 
   22910    902.65292    -9184.625   -9083.9327    889.05742    17292.758    26.462171 
   22920    894.81933   -9184.0978   -9084.2794   -499.72185    17303.092    26.457055 
   22930    937.52076   -9189.1912   -9084.6093   -2654.7587    17313.018    26.452432 
   22940    894.32312   -9184.6828   -9084.9197   -2384.6066     17321.07    26.446281 
   22950    904.02308   -9186.0521   -9085.2069   -2541.8194    17327.196    26.439108 
   22960    938.92901   -9190.2389      -9085.5   -2602.0753     17331.33    26.439077 
   22970    903.20809   -9186.5897   -9085.8354    -1642.064    17333.471    26.451247 
   22980     891.5623   -9185.6472   -9086.1921    -1395.978    17334.256    26.465099 
   22990    885.83638   -9185.3379   -9086.5216    -878.6967    17333.957     26.46769 
   23000    897.51786    -9186.923   -9086.8036   -80.581134    17332.961    26.457638 
   23010    922.36583   -9189.9614   -9087.0701    619.79056    17331.887    26.441755 
   23020    898.03558   -9187.4984   -9087.3212     1339.624    17331.317      26.4247 
   23030    917.97825   -9189.9771   -9087.5752    870.71257    17331.723     26.41135 
   23040    911.59423   -9189.5112   -9087.8215    677.96246    17332.869    26.411085 
   23050    899.45948   -9188.3838   -9088.0478    1003.1345    17334.615    26.420256 
   23060    910.86086   -9189.8297   -9088.2218    875.66439    17337.142    26.429463 
   23070    903.70861   -9189.1424   -9088.3324    771.24707    17340.415    26.433445 
   23080    901.93791   -9188.9764   -9088.3639   -399.80085    17344.268    26.430824 
   23090    906.73138   -9189.4352   -9088.2879   -2687.4343    17347.755    26.427364 
   23100    892.67031   -9187.6888   -9088.1101   -3696.2063    17349.211    26.436724 
   23110    877.65071   -9185.7259   -9087.8227   -3374.2826    17347.805    26.467163 
   23120    925.50251   -9190.6545   -9087.4133   -2912.3007    17343.664    26.512869 
   23130    948.54549   -9192.7342   -9086.9225   -712.39262    17337.282    26.561129 
   23140    884.85149   -9185.1006   -9086.3941    2869.5676    17330.424    26.598643 
   23150    917.00294   -9188.0884   -9085.7953    4146.3332    17325.644    26.618506 
   23160    962.17812   -9192.4338   -9085.1013    4071.5335    17324.083    26.628429 
   23170    920.82005   -9187.1399   -9084.4211    4080.7724    17325.836    26.634095 
   23180     914.7946   -9185.8093   -9083.7626     2801.904    17330.799    26.628513 
   23190    949.77404   -9189.0411   -9083.0924    2149.7918    17338.117    26.605905 
   23200     930.1379   -9186.2285   -9082.4702    3226.2637    17347.338    26.573147 
   23210    929.52415   -9185.5982   -9081.9084    4161.5796    17359.246    26.540994 
   23220    947.91765    -9187.118   -9081.3763     3473.114    17374.506    26.515592 
   23230    942.38682   -9186.0166   -9080.8919    2438.4681     17392.68     26.50119 
   23240    926.36924   -9183.7797   -9080.4418    1862.5025    17413.043    26.490376 
   23250    929.14191   -9183.6198   -9079.9726   -452.39322    17434.955    26.465752 
   23260    947.11084   -9185.1109   -9079.4592   -3808.7117    17456.599     26.42267 
   23270    951.72025   -9185.1189   -9078.9531   -6407.8267    17475.322     26.37326 
   23280    923.97407   -9181.5754   -9078.5047   -6782.1706    17489.099    26.334625 
   23290    910.38973    -9179.645   -9078.0897   -6703.5053    17497.422    26.313918 
   23300    948.47227   -9183.4773   -9077.6738   -7851.3386    17500.179     26.30397 
   23310    998.50783   -9188.7099   -9077.3249   -8892.7333    17496.491    26.289831 
   23320    968.61303   -9185.1828   -9077.1325   -6269.2853    17485.724    26.263118 
   23330    938.64051    -9181.727   -9077.0203   -1827.8897    17469.871    26.223415 
   23340    966.46992   -9184.7351    -9076.924    514.73588    17452.266    26.176535 
   23350    943.94535   -9182.1362   -9076.8377    3672.8973    17435.115    26.132663 
   23360    939.37788   -9181.5593   -9076.7703    5503.3035    17420.805    26.096127 
   23370    976.37593   -9185.6499   -9076.7337    4790.1064    17410.757    26.060798 
   23380    1015.6271   -9190.1186   -9076.8238    3975.7497    17404.562    26.020751 
   23390    957.43401   -9183.8693   -9077.0661    5870.8838    17401.801    25.975057 
   23400    904.39106   -9178.2316   -9077.3454    7262.6183    17403.768    25.921941 
   23410    943.95097   -9182.9064   -9077.6073    4587.7407    17411.335    25.862129 
   23420    973.53575    -9186.478   -9077.8786    2061.2293    17422.705    25.793569 
   23430    951.28661   -9184.2975     -9078.18     1103.096    17435.909    25.713754 
   23440    965.02963   -9186.1717   -9078.5212   -50.296244    17450.065    25.635258 
   23450    966.57905   -9186.7714    -9078.948    -764.2815    17464.282    25.579898 
   23460     934.4591   -9183.6948   -9079.4545   -1416.9464     17477.95    25.549775 
   23470    935.65515   -9184.3742   -9080.0005   -3823.5247    17490.354    25.536766 
   23480    932.09923   -9184.5533   -9080.5762   -5190.3664    17499.744    25.537122 
   23490    920.59941   -9183.8873    -9081.193   -5701.6296    17504.938    25.548797 
   23500    915.68899   -9183.9727   -9081.8262   -5965.2716    17505.466    25.572236 
   23510    932.86221   -9186.5466   -9082.4844   -5155.9558    17501.166    25.609603 
   23520    938.48534   -9187.8499   -9083.1605   -2424.5448    17492.763    25.658711 
   23530     955.6665   -9190.4468   -9083.8408    165.05647    17482.303    25.716863 
   23540    960.41488   -9191.6755   -9084.5397    2424.5251    17471.936    25.779868 
   23550     918.5084   -9187.6708   -9085.2098    4150.7114    17463.482    25.836309 
   23560    925.07541   -9189.0109   -9085.8173    4744.4292    17458.316    25.872894 
   23570    930.87239   -9190.2112    -9086.371    4304.4903    17456.932     25.89139 
   23580    926.72192   -9190.2551   -9086.8779    3999.2309    17459.107     25.90179 
   23590     946.5023   -9192.9584   -9087.3747    3169.8561    17464.538    25.906093 
   23600    899.86176   -9188.1873   -9087.8064    3012.6824    17472.684    25.898498 
   23610     879.2795   -9186.2043   -9088.1193     2107.349    17483.274    25.876173 
   23620    881.65103   -9186.6154   -9088.2659    904.58418    17495.618    25.839094 
   23630    915.13929   -9190.3747   -9088.2895   -77.739599    17508.797    25.787698 
   23640    938.87134    -9192.983   -9088.2505   -1218.8277    17521.977    25.727448 
   23650    899.98915   -9188.5724   -9088.1772   -2497.8406    17534.205    25.669752 
   23660    865.48229   -9184.5785   -9088.0326   -4760.9546    17544.369    25.628596 
   23670    899.07026   -9188.0927   -9087.8001   -7412.8866    17550.631    25.613603 
   23680    906.68642   -9188.6619   -9087.5196   -7907.3386    17550.967    25.619227 
   23690    917.14274   -9189.5591   -9087.2505   -6806.1005    17544.877    25.635416 
   23700    939.78637   -9191.8485   -9087.0139    -4804.872    17533.195    25.661101 
   23710    895.08777   -9186.6366   -9086.7882   -1891.7834    17517.567     25.69328 
   23720    883.17474   -9185.0272   -9086.5077     423.8848    17500.263    25.723608 
   23730    920.45483    -9188.816   -9086.1378    1157.2698    17483.092    25.747382 
   23740    943.09185   -9190.9409   -9085.7376    2463.4386    17466.883     25.76588 
   23750    941.69403   -9190.4051   -9085.3577    4367.7343     17452.68    25.784316 
   23760     950.0675   -9190.9998   -9085.0183    5858.6667    17441.953    25.803997 
   23770    950.93471   -9190.8128   -9084.7346    7303.1024    17435.967    25.827748 
   23780    919.55902   -9187.0716   -9084.4934    7958.9352    17435.866    25.852594 
   23790    955.94234   -9190.9132   -9084.2764    6075.9332    17442.079    25.871755 
   23800    958.07538   -9190.9543   -9084.0795     4064.437    17453.317    25.886357 
   23810    898.88688   -9184.1767   -9083.9045    2952.0012     17468.04     25.89974 
   23820    916.77089   -9185.9573   -9083.6902    1625.4748    17485.248    25.911558 
   23830     930.8287   -9187.2405   -9083.4052    396.98111    17503.922    25.921049 
   23840    931.77846     -9187.02   -9083.0787   -1384.5362    17522.995    25.924445 
   23850    940.66105   -9187.6453   -9082.7132    -3230.136    17541.042    25.917729 
   23860     962.4068   -9189.6877   -9082.3298   -4791.9246    17556.545    25.902979 
   23870    964.70873   -9189.6144   -9081.9997   -5327.6997    17568.242    25.879415 
   23880    908.72713   -9183.1019   -9081.7321   -5332.1543    17575.671    25.842859 
   23890    928.18011   -9184.9974   -9081.4575   -7351.9474    17578.547    25.792723 
   23900    961.75609   -9188.4616   -9081.1762   -7918.2207     17575.45    25.741077 
   23910    914.55866   -9182.9452   -9080.9248   -5881.5984    17565.977    25.705554 
   23920    918.61342   -9183.1186   -9080.6458   -4688.1034    17551.495    25.692885 
   23930    959.34091   -9187.3183   -9080.3024   -4272.1687    17533.017    25.700161 
   23940    990.53866   -9190.4738   -9079.9777   -2786.2171    17510.993    25.717362 
   23950    976.36953   -9188.6093   -9079.6938    614.71243    17486.734    25.732286 
   23960    968.46728   -9187.4752   -9079.4412    3977.5602    17462.868    25.737904 
   23970    951.27219   -9185.3183   -9079.2024    7378.2264    17442.191    25.737413 
   23980    930.81554    -9182.804   -9078.9701    10120.063     17427.46    25.738039 
   23990    970.87165    -9187.085   -9078.7828    9827.8013    17420.683    25.744755 
   24000    966.30514   -9186.4824   -9078.6896    8712.2462    17421.846    25.756608 
   24010    914.49943   -9180.6928    -9078.679    7654.3418    17430.121    25.764723 
   24020    934.07138   -9182.8503   -9078.6532    5104.5286    17444.542    25.761364 
   24030    976.52502   -9187.5261   -9078.5933    2224.2959    17463.172    25.750902 
   24040    956.81282   -9185.2901   -9078.5562    599.01183     17483.83    25.746832 
   24050    954.05656   -9184.9802   -9078.5538   -1323.1893    17505.044    25.753485 
   24060    936.00486   -9182.9393   -9078.5265   -3168.0493    17525.269    25.770596 
   24070    933.04841   -9182.5435   -9078.4605   -4764.1015    17542.954    25.799589 
   24080     930.6352   -9182.1707   -9078.3569   -4931.8337    17556.854     25.83646 
   24090    930.01724   -9181.9877   -9078.2429   -4820.1666    17566.698    25.866075 
   24100    970.92841   -9186.4639   -9078.1554   -5049.5246    17572.538    25.885262 
   24110    963.42253   -9185.6198   -9078.1486   -4479.1017    17574.271    25.901984 
   24120    936.37245   -9182.6887   -9078.2349   -3929.0813    17572.302    25.921884 
   24130    963.28715    -9185.832   -9078.3759   -4782.2579    17566.975    25.950652 
   24140    995.42352   -9189.6632   -9078.6222   -5230.5064    17557.693    25.991666 
   24150    941.11701   -9183.9552   -9078.9721   -2426.2917    17544.354    26.038126 
   24160    918.35532   -9181.7619    -9079.318    378.34064    17528.998    26.068917 
   24170    953.46206   -9185.9958   -9079.6356    1723.7634    17513.842     26.06908 
   24180    959.41745   -9187.0211   -9079.9966    3307.8167    17500.142    26.038984 
   24190    932.10718    -9184.391   -9080.4131    4572.3195     17489.13    25.988178 
   24200    930.94019    -9184.706   -9080.8582    4694.7619    17481.803    25.931511 
   24210    937.77501   -9185.9384   -9081.3282    3994.1872    17478.268    25.882335 
   24220     930.5533   -9185.6149   -9081.8103    3151.1993    17477.991    25.849394 
   24230    948.72277   -9188.1472   -9082.3158    1971.8833    17480.282    25.831891 
   24240    952.10803   -9189.0515   -9082.8424   -594.58637    17484.097    25.815934 
   24250    950.21522   -9189.3991   -9083.4011   -3505.4467    17487.379    25.793017 
   24260    920.76109   -9186.6839   -9083.9716   -4454.9463    17487.924    25.769957 
   24270     878.2676     -9182.46   -9084.4879   -4145.2371    17484.893    25.754723 
   24280    882.76439   -9183.3689   -9084.8952   -4198.6727    17478.424    25.755341 
   24290    915.39172   -9187.3377   -9085.2244    -3920.436    17468.557    25.777974 
   24300    917.07474    -9187.799   -9085.4979   -2482.4182    17455.585    25.823255 
   24310    924.83979   -9188.8873     -9085.72   -785.69309    17440.605    25.884528 
   24320    912.10418   -9187.6202   -9085.8736    1334.7323    17425.045    25.949762 
   24330     915.9008   -9188.1287   -9085.9586     2661.941    17410.521    26.007053 
   24340     946.4288   -9191.5733   -9085.9978    3973.9345    17398.209    26.058551 
   24350    944.25534   -9191.3794   -9086.0463    5428.4595    17389.164    26.113465 
   24360    902.48633   -9186.7557    -9086.082    7754.4979    17384.615    26.174491 
   24370    910.92848   -9187.7106   -9086.0952    8880.7287    17386.261    26.230431 
   24380    903.57251   -9186.8711   -9086.0762    8145.5995    17394.981    26.267605 
   24390    909.18339   -9187.4388    -9086.018    5261.9602    17410.126     26.28085 
   24400    920.38782   -9188.5393   -9085.8686    2070.7438    17429.487    26.278518 
   24410    902.37581   -9186.2659   -9085.6045   -543.26571    17450.539    26.272531 
   24420    900.99196   -9185.6978   -9085.1908   -3773.6225    17471.045    26.269719 
   24430    906.53768    -9185.761   -9084.6353   -6001.2786    17488.467    26.273128 
   24440    891.41894   -9183.4131   -9083.9739   -7013.8514        17501    26.284623 
   24450    917.69932   -9185.5846   -9083.2139   -7720.8666    17507.747    26.301652 
   24460    925.96318   -9185.6468   -9082.3542   -7878.0572    17508.159    26.317805 
   24470    947.88968   -9187.2044   -9081.4659   -6916.0646    17502.187    26.326843 
   24480    921.33715   -9183.3553   -9080.5788   -3843.1102    17490.745    26.331532 
   24490    918.34091   -9182.1547   -9079.7124   -470.53291    17476.282    26.337902 
   24500    951.56913   -9184.9951   -9078.8462    699.66911    17461.381    26.359986 
   24510    972.13066   -9186.5203   -9078.0777    1070.8798    17447.137    26.400038 
   24520    962.80601   -9184.8869   -9077.4845     1874.338    17433.908    26.447278 
   24530    925.33955   -9180.2454   -9077.0224    3406.1803    17422.372    26.490424 
   24540    957.46224   -9183.4445   -9076.6382    3910.3509    17413.584    26.520059 
   24550     982.8479   -9185.9836   -9076.3455    4163.2823    17408.011    26.534084 
   24560    973.66091   -9184.8061   -9076.1927    3808.5981    17405.809    26.532667 
   24570    958.22924   -9183.0434   -9076.1515    3412.8798    17406.743    26.511696 
   24580    968.22892    -9184.191   -9076.1836    2108.9034    17410.356    26.468258 
   24590    983.96017   -9186.0545   -9076.2922    528.26873    17415.661    26.410153 
   24600    959.85529   -9183.5582   -9076.4849    146.58672    17421.493    26.344512 
   24610    936.27238    -9181.142   -9076.6994   -184.17185    17427.388    26.273386 
   24620    977.15461     -9185.92   -9076.9169   -1598.8368    17433.019    26.200706 
   24630    997.49738   -9188.4752   -9077.2029   -3447.3059    17437.299    26.132788 
   24640     950.2909   -9183.5734    -9077.567   -4193.0128    17438.866    26.082189 
   24650    933.17699   -9182.0345   -9077.9372   -5092.6963    17437.022    26.057383 
   24660    942.96569   -9183.5003    -9078.311   -5408.9139      17431.1    26.058302 
   24670    939.26711   -9183.4679   -9078.6913   -4346.7163    17420.939    26.077644 
   24680    948.37782   -9184.8897   -9079.0967   -2949.6247    17407.309    26.104191 
   24690    905.14515   -9180.4437   -9079.4734    507.61303    17391.548    26.136356 
   24700    913.88595   -9181.6988   -9079.7534    2411.6582    17376.146    26.179145 
   24710    962.67093   -9187.3804    -9079.993    3879.9692    17362.777    26.237387 
   24720    934.03857   -9184.4192   -9080.2258    6143.9046    17352.732    26.305791 
   24730    949.76806   -9186.4184   -9080.4704    6876.8085    17347.622     26.37052 
   24740    956.51124   -9187.4554   -9080.7551    6561.2034    17348.028    26.428635 
   24750    928.64582   -9184.6967   -9081.1048    5262.6098    17353.634    26.486306 
   24760    903.88752   -9182.2568   -9081.4268    3406.7389    17363.417     26.54758 
   24770    942.76872   -9186.8449   -9081.6776    254.76269    17375.771    26.604422 
   24780    943.61291   -9187.1615      -9081.9   -2057.5307    17388.338    26.640956 
   24790    914.25462   -9184.0976   -9082.1111   -3188.2584    17399.265    26.651246 
   24800     953.3853   -9188.6847   -9082.3332   -4627.5347    17407.497    26.642718 
   24810    929.78023   -9186.3016   -9082.5832   -4656.5433    17412.041    26.633464 
   24820     906.3785   -9183.9455   -9082.8376   -3199.7101      17412.9    26.633327 
   24830    924.95475   -9186.2389   -9083.0588   -1553.0585    17411.187    26.639411 
   24840    924.86796   -9186.4159   -9083.2454    33.287591    17408.266    26.648916 
   24850     942.7804   -9188.6018   -9083.4333    617.41001    17405.332    26.654575 
   24860    941.93168   -9188.7214   -9083.6475    520.69389    17402.878    26.650795 
   24870    905.43286    -9184.886   -9083.8836    1.5188565    17400.846    26.632104 
   24880    884.80967   -9182.7794   -9084.0776   -1000.9328    17398.825    26.602111 
   24890    945.84496   -9189.7557   -9084.2453   -3074.4306    17395.921    26.574827 
   24900    950.39612   -9190.4677   -9084.4496   -3368.8877    17390.703    26.556626 
   24910    932.41062   -9188.7511   -9084.7393   -2358.9509    17382.894    26.539844 
   24920    928.61836   -9188.6774   -9085.0886   -1559.8069    17373.241    26.520894 
   24930    913.77123   -9187.4324   -9085.4999   -1049.5811     17362.37    26.508583 
   24940    924.93263     -9189.16   -9085.9824   -16.299757    17350.787    26.511817 
   24950    941.84396   -9191.6196   -9086.5555    791.00908    17339.252    26.532247 
   24960    913.94431   -9189.1453   -9087.1934    2280.5471    17328.489    26.567565 
   24970     890.3664   -9187.1257    -9087.804    3369.0217    17319.624    26.611713 
   24980    934.60395   -9192.6544   -9088.3979    2101.6009    17313.346    26.655369 
   24990    926.10854   -9192.3275   -9089.0187    620.73658    17308.789    26.699222 
   25000    884.34393   -9188.2429    -9089.593   -178.54722    17304.818    26.745019 
Loop time of 13915 on 16 procs for 20000 steps with 864 atoms

Performance: 0.124 ns/day, 193.264 hours/ns, 1.437 timesteps/s
96.0% CPU use with 16 MPI tasks x 1 OpenMP threads

MPI task timing breakdown:
Section |  min time  |  avg time  |  max time  |%varavg| %total
---------------------------------------------------------------
Pair    | 1943.4     | 7960.9     | 13718      |4625.7 | 57.21
Bond    | 0.0021083  | 0.0055873  | 0.011371   |   3.8 |  0.00
Neigh   | 0.1034     | 0.38215    | 0.67413    |  33.0 |  0.00
Comm    | 96.7       | 4787.5     | 10666      |4885.1 | 34.41
Output  | 1.5414     | 1.5695     | 1.9838     |   8.5 |  0.01
Modify  | 69.817     | 1164.5     | 3558.1     |3777.9 |  8.37
Other   |            | 0.08949    |            |       |  0.00

Nlocal:        54.0000 ave          84 max          14 min
Histogram: 1 3 2 0 0 0 2 2 3 3
Nghost:        550.125 ave         809 max         284 min
Histogram: 2 0 2 2 2 2 1 3 0 2
Neighs:         0.00000 ave           0 max           0 min
Histogram: 16 0 0 0 0 0 0 0 0 0
FullNghs:      3065.88 ave        5586 max         304 min
Histogram: 3 3 0 0 0 2 2 0 2 4

Total # of neighbors = 49054
Ave neighs/atom = 56.775463
Ave special neighs/atom = 0.0000000
Neighbor list builds = 2000
Dangerous builds = 2000
unfix   3
                
Total wall time: 4:55:45
