LAMMPS (29 Sep 2021 - Update 3)
OMP_NUM_THREADS environment is not set. Defaulting to 1 thread. (src/comm.cpp:98)
  using 1 OpenMP thread(s) per MPI task
Reading data file ...
  orthogonal box = (0.0000000 0.0000000 0.0000000) to (15.866041 15.852264 77.123517)
  2 by 1 by 8 MPI processor grid
  reading atoms ...
  864 atoms
Finding 1-2 1-3 1-4 neighbors ...
  special bond factors lj:    0        0        0       
  special bond factors coul:  0        0        0       
     0 = max # of 1-2 neighbors
     0 = max # of 1-3 neighbors
     0 = max # of 1-4 neighbors
     1 = max # of special neighbors
  special bonds CPU = 0.001 seconds
  read_data CPU = 0.008 seconds
Neighbor list info ...
  update every 1 steps, delay 10 steps, check yes
  max neighbors/atom: 2000, page size: 100000
  master list distance cutoff = 6.22
  ghost atom cutoff = 6.22
  binsize = 3.11, bins = 6 6 25
  1 neighbor lists, perpetual/occasional/extra = 1 0 0
  (1) pair quip, perpetual
      attributes: full, newton on
      pair build: full/bin
      stencil: full/bin/3d
      bin: standard
Setting up Verlet run ...
  Unit style    : metal
  Current step  : 0
  Time step     : 0.001
Per MPI rank memory allocation (min/avg/max) = 8.889 | 8.906 | 8.916 Mbytes
Step Temp PotEng TotEng Press Volume c_msd[4] 
       0            0   -8878.9247   -8878.9247   -11708.833    19397.542            0 
      10    108.80145    -8891.078    -8878.941   -13519.947    19397.542 0.00037756483 
      20    255.99871   -8907.5101   -8878.9531   -15433.074    19397.542  0.004636157 
      30    288.56988   -8911.1358   -8878.9454   -14361.122    19397.542  0.015943357 
      40    289.10053   -8911.1934   -8878.9438   -12512.136    19397.542  0.032214776 
      50    304.26419   -8912.8839   -8878.9428   -12190.839    19397.542  0.050010352 
      60    330.67215   -8915.8353   -8878.9484    -12512.07    19397.542  0.067008738 
      70    319.75479    -8914.613   -8878.9439   -12021.554    19397.542  0.084636553 
      80     311.7171   -8913.7131   -8878.9406   -11242.174    19397.542   0.10335882 
      90    344.97025   -8917.4272   -8878.9452   -11377.847    19397.542   0.12285636 
     100    369.47631   -8920.1625   -8878.9469   -11460.202    19397.542   0.14373353 
     110    369.44402   -8920.1551   -8878.9431   -10737.559    19397.542   0.16547428 
     120    381.04496   -8921.4513   -8878.9452   -10101.733    19397.542   0.18697263 
     130    387.01967   -8922.1174   -8878.9447    -9853.945    19397.542   0.20927079 
     140    390.46305   -8922.5002   -8878.9434   -10154.629    19397.542   0.23274757 
     150    401.17379   -8923.6966   -8878.9451   -10935.233    19397.542   0.25686229 
     160    405.60936   -8924.1923    -8878.946   -11533.497    19397.542   0.28181117 
     170    403.00983   -8923.9035   -8878.9472   -11313.905    19397.542   0.30705714 
     180    385.93942   -8921.9971   -8878.9449   -10395.352    19397.542   0.33328028 
     190    384.55592   -8921.8429   -8878.9451   -9702.4152    19397.542    0.3615061 
     200    397.89654   -8923.3338   -8878.9478   -9508.3306    19397.542   0.39138176 
     210    403.74057   -8923.9838    -8878.946   -9854.3562    19397.542   0.41959204 
     220    419.25516   -8925.7147   -8878.9462   -11120.155    19397.542   0.44190424 
     230    437.64496   -8927.7678   -8878.9478   -12741.979    19397.542   0.46059951 
     240    436.22365   -8927.6096   -8878.9482   -13773.271    19397.542   0.48016288 
     250     417.4692   -8925.5154   -8878.9461   -14188.084    19397.542   0.50051511 
     260    403.07006   -8923.9093   -8878.9463   -14452.366    19397.542   0.51954432 
     270    390.78955   -8922.5388   -8878.9456   -14869.677    19397.542   0.53842732 
     280    390.91941   -8922.5534   -8878.9458   -15753.944    19397.542   0.55789535 
     290    394.53071   -8922.9579   -8878.9474   -16866.473    19397.542   0.57907365 
     300    385.46639   -8921.9447   -8878.9454   -17556.881    19397.542   0.60332818 
     310    388.07639   -8922.2367   -8878.9462   -18102.563    19397.542   0.62988844 
     320    395.22438   -8923.0346   -8878.9467   -18476.923    19397.542   0.65693198 
     330     392.7193   -8922.7554    -8878.947   -18634.964    19397.542   0.68294096 
     340    387.36548    -8922.158   -8878.9468   -18928.114    19397.542    0.7064488 
     350    383.70376     -8921.75   -8878.9472   -19255.038    19397.542   0.72809194 
     360    380.16279   -8921.3526   -8878.9449   -19764.905    19397.542   0.74756432 
     370    391.53302   -8922.6238   -8878.9477   -20433.416    19397.542   0.76345228 
     380    397.18733   -8923.2529   -8878.9461   -20848.612    19397.542   0.77799013 
     390    399.66038   -8923.5327     -8878.95   -20962.623    19397.542    0.7926845 
     400    376.74168   -8920.9703   -8878.9442   -20594.318    19397.542   0.80792627 
     410    384.01385   -8921.7861   -8878.9488   -20827.442    19397.542   0.82090067 
     420    385.42711   -8921.9432   -8878.9482    -21282.02    19397.542   0.83289421 
     430    375.82197   -8920.8694   -8878.9459   -21749.833    19397.542   0.84474346 
     440    377.40301   -8921.0478   -8878.9479   -22280.425    19397.542   0.85654263 
     450    373.39276   -8920.5987   -8878.9462   -22358.315    19397.542   0.87121917 
     460    380.55104   -8921.3982   -8878.9472   -22127.174    19397.542   0.88923864 
     470    389.08947   -8922.3531   -8878.9496   -21563.629    19397.542   0.90990069 
     480    377.88025   -8921.0989   -8878.9458   -20903.426    19397.542   0.93174236 
     490    381.74982   -8921.5319   -8878.9472   -20620.986    19397.542   0.94962563 
     500    394.14575   -8922.9156   -8878.9481   -20486.731    19397.542   0.96309083 
     510    397.04898   -8923.2389   -8878.9475   -19997.235    19397.542   0.97658553 
     520    399.82595   -8923.5491    -8878.948   -19535.484    19397.542   0.99241283 
     530    404.27704   -8924.0446   -8878.9469    -19115.46    19397.542    1.0084992 
     540     411.3451   -8924.8362     -8878.95   -18661.849    19397.542    1.0226069 
     550    394.09812   -8922.9082    -8878.946   -17821.103    19397.542    1.0374953 
     560    386.81962   -8922.0987   -8878.9484   -17144.624    19397.542    1.0531551 
     570    383.04436   -8921.6747   -8878.9456   -16711.306    19397.542    1.0690946 
     580    397.22268   -8923.2587   -8878.9479   -16702.646    19397.542    1.0866029 
     590    408.28446   -8924.4929   -8878.9481   -16623.668    19397.542    1.1074158 
     600    405.74477   -8924.2095   -8878.9481   -16314.107    19397.542    1.1302748 
     610    396.02325   -8923.1251   -8878.9481    -15628.66    19397.542    1.1519665 
     620     395.3341   -8923.0495   -8878.9494   -15051.831    19397.542    1.1694303 
     630    394.27036   -8922.9318   -8878.9503   -14512.907    19397.542    1.1828305 
     640    383.62649   -8921.7417   -8878.9476   -14067.198    19397.542    1.1945401 
     650    385.14193   -8921.9112    -8878.948   -13839.463    19397.542    1.2068311 
     660     395.4713   -8923.0651   -8878.9497   -13755.797    19397.542    1.2218962 
     670     396.9724   -8923.2312   -8878.9483   -13681.042    19397.542    1.2411479 
     680    400.76426   -8923.6562   -8878.9504   -13529.754    19397.542    1.2649597 
     690    395.59922   -8923.0782   -8878.9485   -13202.541    19397.542    1.2892968 
     700    393.08673   -8922.7984    -8878.949    -12863.36    19397.542    1.3108518 
     710    392.46287   -8922.7295   -8878.9497   -12776.215    19397.542    1.3306314 
     720    392.69983   -8922.7538   -8878.9476   -12960.731    19397.542    1.3493343 
     730    407.70626    -8924.431   -8878.9507   -13617.908    19397.542    1.3652761 
     740    418.60831   -8925.6458   -8878.9494   -14182.857    19397.542    1.3758719 
     750    427.35697   -8926.6222   -8878.9499   -14411.802    19397.542    1.3817369 
     760    426.23067   -8926.4956    -8878.949   -14240.457    19397.542    1.3874968 
     770    425.68986   -8926.4355   -8878.9492   -14121.142    19397.542    1.3956033 
     780    424.34662   -8926.2861   -8878.9496   -14199.692    19397.542    1.4059418 
     790    416.51178   -8925.4118   -8878.9493   -14348.579    19397.542    1.4172819 
     800    406.85203   -8924.3329   -8878.9479   -14603.708    19397.542    1.4293586 
     810     409.3926   -8924.6176   -8878.9492   -14954.594    19397.542    1.4437899 
     820    411.52943   -8924.8561   -8878.9494   -15227.004    19397.542     1.461671 
     830    414.76526   -8925.2161   -8878.9484   -15348.177    19397.542    1.4822988 
     840    425.47297   -8926.4126   -8878.9505   -15497.059    19397.542    1.5061095 
     850    424.10961   -8926.2589   -8878.9489    -15461.05    19397.542    1.5339208 
     860    425.84903   -8926.4531    -8878.949   -15668.017    19397.542    1.5638872 
     870    428.28778   -8926.7265   -8878.9503   -15975.954    19397.542    1.5941429 
     880    422.32484   -8926.0597   -8878.9487   -16050.391    19397.542    1.6254163 
     890    420.59441   -8925.8681   -8878.9502   -16210.368    19397.542    1.6579317 
     900    412.78354   -8924.9958   -8878.9492   -16186.118    19397.542    1.6917804 
     910    408.88335   -8924.5603   -8878.9488   -16398.021    19397.542    1.7253326 
     920    415.25495   -8925.2723     -8878.95   -16866.947    19397.542    1.7566903 
     930    417.79568   -8925.5555   -8878.9498    -17314.63    19397.542    1.7866576 
     940    414.15774   -8925.1502   -8878.9503   -17816.895    19397.542    1.8175362 
     950    410.14766   -8924.7024   -8878.9498   -18397.528    19397.542     1.850555 
     960    412.13206   -8924.9218   -8878.9478   -18864.984    19397.542    1.8837942 
     970    427.90234   -8926.6835   -8878.9503   -19165.223    19397.542    1.9147148 
     980    431.11936    -8927.043    -8878.951    -19021.79    19397.542    1.9457246 
     990    415.64991   -8925.3145   -8878.9482   -18606.767    19397.542    1.9812421 
    1000    413.92707   -8925.1233   -8878.9491   -18513.829    19397.542    2.0201072 
    1010    417.45395   -8925.5177     -8878.95   -18558.895    19397.542    2.0574524 
    1020    414.66605   -8925.2045   -8878.9479    -18540.13    19397.542    2.0909232 
    1030    425.32279   -8926.3944    -8878.949   -18804.281    19397.542    2.1200334 
    1040    437.39791    -8927.743   -8878.9506    -19174.44    19397.542    2.1461906 
    1050    432.04437    -8927.144   -8878.9488   -19430.964    19397.542    2.1724444 
    1060    423.10855   -8926.1471   -8878.9487    -19670.97    19397.542     2.200914 
    1070    416.30819    -8925.389   -8878.9492   -19752.208    19397.542     2.232564 
    1080    410.19009   -8924.7058   -8878.9485   -19471.789    19397.542    2.2656179 
    1090    411.43188   -8924.8454   -8878.9496   -18927.842    19397.542    2.2963807 
    1100    413.58688   -8925.0849   -8878.9486   -18540.027    19397.542    2.3238349 
    1110    425.71996   -8926.4384   -8878.9486   -18620.545    19397.542    2.3474636 
    1120    443.01807   -8928.3709   -8878.9516   -18883.908    19397.542    2.3679172 
    1130    437.42575   -8927.7454   -8878.9499   -18767.479    19397.542    2.3882255 
    1140    422.48256   -8926.0773   -8878.9487   -18476.767    19397.542    2.4089666 
    1150    414.07643   -8925.1393   -8878.9485   -18282.798    19397.542    2.4284943 
    1160    416.01416   -8925.3558   -8878.9488   -18291.885    19397.542     2.446853 
    1170    419.66714   -8925.7642   -8878.9497   -18446.717    19397.542    2.4644412 
    1180    424.21945   -8926.2706   -8878.9483    -18449.36    19397.542    2.4806419 
    1190    440.19598   -8928.0557   -8878.9512   -18343.062    19397.542    2.4945267 
    1200    440.38662   -8928.0752   -8878.9494   -17908.359    19397.542     2.507228 
    1210    440.40752   -8928.0774   -8878.9493   -17509.071    19397.542    2.5196997 
    1220    445.29341   -8928.6232   -8878.9501   -17433.008    19397.542    2.5321836 
    1230    444.31811   -8928.5138   -8878.9494   -17404.254    19397.542    2.5456285 
    1240    444.21916   -8928.5028   -8878.9495   -17567.287    19397.542    2.5617678 
    1250    447.95301   -8928.9197   -8878.9499   -17998.888    19397.542    2.5810013 
    1260    447.05056     -8928.82   -8878.9509   -18113.089    19397.542    2.6027835 
    1270    433.76409   -8927.3363   -8878.9493   -17647.746    19397.542    2.6267411 
    1280    426.49744   -8926.5249   -8878.9485   -17215.404    19397.542    2.6522665 
    1290    438.76938   -8927.8949   -8878.9495   -17215.004    19397.542     2.679609 
    1300     454.8554   -8929.6913   -8878.9515   -17412.029    19397.542    2.7096074 
    1310    451.74789   -8929.3435   -8878.9504   -17515.094    19397.542    2.7419599 
    1320    440.03726   -8928.0361   -8878.9493    -17582.78    19397.542    2.7732724 
    1330    433.51813    -8927.309   -8878.9494   -17627.787    19397.542    2.7991894 
    1340    430.66307   -8926.9918   -8878.9507   -17406.648    19397.542    2.8192899 
    1350    422.06307   -8926.0311   -8878.9493    -17030.68    19397.542    2.8369839 
    1360    423.68793   -8926.2128   -8878.9498   -16872.793    19397.542    2.8564726 
    1370    432.23825   -8927.1671   -8878.9502   -16941.721    19397.542    2.8798412 
    1380    440.61409   -8928.1014   -8878.9502   -17160.411    19397.542     2.904214 
    1390    442.38617   -8928.3005   -8878.9516   -17288.698    19397.542    2.9262872 
    1400    432.82497   -8927.2303    -8878.948   -17111.965    19397.542    2.9462931 
    1410    443.20721   -8928.3906   -8878.9502   -17379.272    19397.542    2.9656964 
    1420     452.8574   -8929.4692   -8878.9523   -17581.285    19397.542    2.9866189 
    1430    440.33742   -8928.0699   -8878.9496    -17078.18    19397.542    3.0107644 
    1440    434.09539   -8927.3728   -8878.9488   -16559.852    19397.542    3.0372306 
    1450    446.59797     -8928.77   -8878.9513   -16458.202    19397.542    3.0634597 
    1460    455.16552   -8929.7248   -8878.9504   -16509.198    19397.542    3.0883146 
    1470     460.5176    -8930.323   -8878.9516   -16639.411    19397.542    3.1117695 
    1480    455.78137    -8929.792   -8878.9489   -16643.605    19397.542    3.1332037 
    1490    461.66937   -8930.4506   -8878.9507   -16632.215    19397.542     3.152331 
    1500    464.06114   -8930.7172   -8878.9504   -16316.323    19397.542    3.1724877 
    1510    464.69685   -8930.7871   -8878.9495    -16148.36    19397.542    3.1960897 
    1520    471.22077   -8931.5167   -8878.9514   -16208.841    19397.542    3.2225013 
    1530    471.47122   -8931.5429   -8878.9496   -16597.639    19397.542    3.2496574 
    1540    479.04999   -8932.3903   -8878.9516   -17340.131    19397.542    3.2743864 
    1550    475.60674   -8932.0055   -8878.9508   -17872.304    19397.542    3.2971604 
    1560    465.76065   -8930.9064   -8878.9501   -17822.552    19397.542    3.3221892 
    1570    460.06152    -8930.271   -8878.9505    -17442.47    19397.542    3.3512444 
    1580    459.40082   -8930.1971   -8878.9502   -16941.542    19397.542    3.3813068 
    1590    460.93829   -8930.3707   -8878.9523   -16350.345    19397.542    3.4083736 
    1600     448.2201   -8928.9504   -8878.9508   -15603.607    19397.542    3.4316634 
    1610     443.9941   -8928.4772    -8878.949    -15275.86    19397.542    3.4534934 
    1620    463.51034   -8930.6582    -8878.953   -15593.563    19397.542    3.4766509 
    1630    474.66564   -8931.9011   -8878.9514   -16126.405    19397.542    3.5034224 
    1640    481.75389   -8932.6918   -8878.9514   -16542.721    19397.542    3.5333548 
    1650    479.37897   -8932.4264    -8878.951   -16541.998    19397.542    3.5648125 
    1660    474.97776   -8931.9337   -8878.9492   -16284.173    19397.542    3.5952514 
    1670    481.99089    -8932.719   -8878.9522   -15990.017    19397.542    3.6221631 
    1680      474.213   -8931.8498   -8878.9506   -15457.654    19397.542    3.6454728 
    1690    462.13083    -8930.502   -8878.9506   -14731.806    19397.542     3.665115 
    1700    458.63731   -8930.1109   -8878.9492   -14389.905    19397.542    3.6801149 
    1710    473.55465   -8931.7771   -8878.9513   -14547.389    19397.542    3.6915037 
    1720    483.59001    -8932.897   -8878.9518   -15013.331    19397.542    3.7021408 
    1730    481.36556   -8932.6472   -8878.9501   -15645.926    19397.542    3.7142289 
    1740    484.05437   -8932.9483   -8878.9513   -16474.749    19397.542    3.7288904 
    1750    482.16869   -8932.7383   -8878.9516   -16722.219    19397.542     3.747119 
    1760    470.26243   -8931.4082   -8878.9497   -16475.495    19397.542    3.7689551 
    1770    472.75321   -8931.6852   -8878.9489   -16480.419    19397.542    3.7930019 
    1780    495.80424   -8934.2609   -8878.9532   -16801.632    19397.542     3.817904 
    1790    498.29189   -8934.5359   -8878.9506   -17030.699    19397.542    3.8432118 
    1800    497.22115   -8934.4163   -8878.9505   -17233.599    19397.542    3.8677962 
    1810    498.13201   -8934.5195   -8878.9521   -17294.852    19397.542    3.8916583 
    1820    485.17576   -8933.0725   -8878.9504   -16971.976    19397.542    3.9157232 
    1830    479.44537   -8932.4337   -8878.9509   -16627.564    19397.542    3.9391486 
    1840    478.88134   -8932.3712   -8878.9513   -16398.764    19397.542    3.9621449 
    1850     478.6415   -8932.3435   -8878.9503   -16406.049    19397.542    3.9857213 
    1860     486.1211   -8933.1789   -8878.9514   -16705.544    19397.542    4.0086822 
    1870    492.79459   -8933.9238   -8878.9519   -17221.514    19397.542    4.0297149 
    1880    491.36379   -8933.7648   -8878.9525   -18037.772    19397.542    4.0499732 
    1890    475.70955   -8932.0166   -8878.9505   -18910.363    19397.542    4.0709101 
    1900    464.92588   -8930.8141   -8878.9509   -19819.272    19397.542    4.0929306 
    1910    455.59431   -8929.7727   -8878.9505   -20229.987    19397.542    4.1160109 
    1920    452.87672   -8929.4684   -8878.9493   -20242.611    19397.542    4.1384657 
    1930    467.97161   -8931.1539   -8878.9509   -20369.825    19397.542    4.1581839 
    1940    485.34862   -8933.0926   -8878.9512   -20514.477    19397.542    4.1756159 
    1950    495.78252   -8934.2578   -8878.9525   -20428.878    19397.542    4.1936772 
    1960    500.11778   -8934.7389     -8878.95   -20591.437    19397.542    4.2145461 
    1970    511.99695   -8936.0681    -8878.954   -21344.221    19397.542    4.2363696 
    1980    499.23942   -8934.6421   -8878.9512   -21654.428    19397.542    4.2540635 
    1990    487.56603   -8933.3391   -8878.9504    -21588.86    19397.542    4.2657075 
    2000    485.14508   -8933.0707    -8878.952   -21134.343    19397.542    4.2770463 
Loop time of 1491.91 on 16 procs for 2000 steps with 864 atoms

Performance: 0.116 ns/day, 207.210 hours/ns, 1.341 timesteps/s
97.0% CPU use with 16 MPI tasks x 1 OpenMP threads

MPI task timing breakdown:
Section |  min time  |  avg time  |  max time  |%varavg| %total
---------------------------------------------------------------
Pair    | 270.4      | 684.9      | 1490.6     |1224.3 | 45.91
Bond    | 0.00023723 | 0.00049806 | 0.0013034  |   0.0 |  0.00
Neigh   | 0.014543   | 0.030528   | 0.064146   |   7.9 |  0.00
Comm    | 0.73559    | 701.38     | 1072.7     |1154.0 | 47.01
Output  | 0.44548    | 35.963     | 70.907     | 469.8 |  2.41
Modify  | 0.0081983  | 0.0097753  | 0.012909   |   1.2 |  0.00
Other   |            | 69.63      |            |       |  4.67

Nlocal:        54.0000 ave          90 max          29 min
Histogram: 3 3 0 2 3 1 0 2 0 2
Nghost:        493.750 ave         643 max         369 min
Histogram: 3 1 0 3 2 2 1 2 0 2
Neighs:         0.00000 ave           0 max           0 min
Histogram: 16 0 0 0 0 0 0 0 0 0
FullNghs:      2706.00 ave        5944 max         890 min
Histogram: 6 0 2 1 3 0 2 0 0 2

Total # of neighbors = 43296
Ave neighs/atom = 50.111111
Ave special neighs/atom = 0.0000000
Neighbor list builds = 200
Dangerous builds = 200
Setting up Verlet run ...
  Unit style    : metal
  Current step  : 2000
  Time step     : 0.001
Per MPI rank memory allocation (min/avg/max) = 8.894 | 8.909 | 8.920 Mbytes
Step Temp PotEng TotEng Press Volume c_msd[4] 
    2000          825   -8933.0707   -8841.0407   -19046.772    19397.542    4.2770463 
    2010    728.51902   -8922.4455   -8841.1781   -16356.307    19386.857    4.3028404 
    2020    596.40638   -8907.8898   -8841.3598   -11876.908    19357.648    4.3288665 
    2030    619.09789   -8910.3893    -8841.328   -10520.541    19314.645    4.3436488 
    2040     659.7408   -8914.6112   -8841.0162   -9798.1298    19259.915    4.3463294 
    2050    677.67294   -8916.1289   -8840.5335   -7975.4983    19194.786    4.3414545 
    2060    690.52273   -8916.9855   -8839.9567   -5447.4612    19121.802    4.3317943 
    2070    700.47899   -8917.4725    -8839.333   -2800.3986    19044.401    4.3212626 
    2080    701.91222   -8916.9662   -8838.6668   -29.575979    18966.213    4.3118136 
    2090    690.86591   -8914.9672   -8837.9001    3008.7231    18890.895    4.3011382 
    2100    688.06822   -8913.7002   -8836.9451    6054.4766    18822.069    4.2864793 
    2110    701.30235   -8913.9994    -8835.768    8571.1546    18763.002    4.2668317 
    2120    738.96081   -8916.8572    -8834.425    10359.117    18716.053    4.2442123 
    2130    745.08442   -8916.1438   -8833.0285    11875.801    18682.544    4.2229991 
    2140     734.3647   -8913.6332   -8831.7137     12339.55    18663.175    4.2040379 
    2150    755.35063    -8914.775   -8830.5145    11199.115    18657.496    4.1855562 
    2160    769.61192   -8915.2617   -8829.4104    9782.1748    18663.656    4.1678171 
    2170    768.40947   -8914.1387   -8828.4215    8412.1693    18679.549    4.1525594 
    2180    739.81424   -8910.0495   -8827.5222    7076.2224    18703.273    4.1417418 
    2190    719.44519   -8906.9026   -8826.6474    5058.0822    18733.003    4.1361963 
    2200    759.47384   -8910.4153   -8825.6948     1971.329    18766.329    4.1347186 
    2210    774.19602   -8911.0303   -8824.6676    111.96517    18800.147    4.1372674 
    2220    759.98835    -8908.452   -8823.6741   -463.95685    18832.521    4.1459414 
    2230    766.14492   -8908.1647   -8822.7001    -767.7845    18862.845    4.1601302 
    2240    758.85556   -8906.3585    -8821.707   -984.06885     18890.91    4.1782218 
    2250    773.03426   -8906.9148   -8820.6817   -1636.7716    18916.565    4.1998627 
    2260    775.27265   -8906.0992   -8819.6164   -2070.5601    18939.332    4.2258553 
    2270    777.42552   -8905.2761   -8818.5531   -2216.4419    18958.907     4.255568 
    2280    796.70524   -8906.3697    -8817.496   -2340.1734    18975.258    4.2884423 
    2290    796.48638   -8905.3091   -8816.4598   -1928.2674    18988.483    4.3234551 
    2300    797.33883   -8904.4147   -8815.4703   -1720.4575    18999.084    4.3538251 
    2310    798.74926   -8903.6201   -8814.5184   -1810.0202    19007.398    4.3736954 
    2320    804.03607   -8903.3071   -8813.6157   -1837.2163    19013.468    4.3826258 
    2330    812.47757   -8903.3866   -8812.7535   -1514.1067    19017.386    4.3841578 
    2340    820.34955   -8903.4369   -8811.9256    -1065.429     19019.57     4.382501 
    2350    831.42841   -8903.8857   -8811.1386   -1241.4971    19020.483     4.382901 
    2360    821.93613   -8902.0966   -8810.4084   -1432.9011    19020.043    4.3834046 
    2370    813.75161    -8900.512   -8809.7368   -1569.1512    19018.082    4.3791645 
    2380    815.27926   -8900.0495   -8809.1039   -1933.9834    19014.426    4.3682648 
    2390    812.81985   -8899.1621   -8808.4909   -1889.4711    19008.811     4.351007 
    2400    845.02983   -8902.1388   -8807.8744   -1653.9872    19001.308    4.3305894 
    2410    854.58922   -8902.5966   -8807.2659   -420.36864    18992.282    4.3112406 
    2420    833.26075   -8899.6601   -8806.7086    1087.8275     18983.04    4.2934288 
    2430     843.1049   -8900.2375   -8806.1879    1090.8656    18975.039    4.2788718 
    2440    857.59361   -8901.3658      -8805.7    820.91649    18968.391    4.2724577 
    2450    870.05519   -8902.3388   -8805.2828    1075.3147    18962.834    4.2738455 
    2460    869.96581    -8902.021    -8804.975    1639.5585    18958.593    4.2769432 
    2470    862.44963   -8901.0009   -8804.7933    1718.1739    18956.172    4.2775737 
    2480    856.42822    -8900.251   -8804.7152    1239.1813    18955.608    4.2761162 
    2490     853.2879   -8899.8903   -8804.7048    678.67037    18956.429    4.2750152 
    2500    846.55279   -8899.1735   -8804.7392   -402.79875     18957.91     4.277369 
    2510    847.38032   -8899.3406   -8804.8141   -1023.5455    18958.993    4.2834903 
    2520    882.46672   -8903.4054   -8804.9649   -1569.4313     18958.94    4.2918418 
    2530    882.40185   -8903.6845   -8805.2512   -987.73578    18957.309    4.3010443 
    2540    849.48891     -8900.42   -8805.6583   -262.47773    18954.655    4.3088555 
    2550     848.1854   -8900.7484    -8806.132   -986.68223    18951.616    4.3122903 
    2560    864.98769   -8903.1611   -8806.6704   -2403.7409    18947.486    4.3114643 
    2570    887.46293   -8906.3336   -8807.3358   -3439.6585    18940.849    4.3122691 
    2580    872.31849   -8905.4473   -8808.1389   -3179.4184    18930.732    4.3196355 
    2590    833.52621     -8901.98   -8808.9989   -2362.4751    18917.384    4.3307581 
    2600    828.19663   -8902.2212   -8809.8346   -1743.4516    18901.667    4.3426401 
    2610    844.00421   -8904.7904   -8810.6404    -1125.293    18884.302    4.3562268 
    2620    845.23566   -8905.6944   -8811.4071   -317.34882    18866.012    4.3705562 
    2630    859.52139   -8908.0492   -8812.1683    151.51501    18847.593    4.3813519 
    2640    863.24894   -8909.2474   -8812.9507    1756.6655    18829.736    4.3880874 
    2650    853.31924   -8908.9341   -8813.7451    4164.7454     18814.11    4.3910896 
    2660     843.4095   -8908.6229   -8814.5393    5288.6478    18803.042    4.3942425 
    2670    848.55782   -8909.9908   -8815.3329    5196.0463    18797.677    4.3997821 
    2680     877.9251   -8914.1159    -8816.182    5044.3753    18797.929    4.4043099 
    2690    844.19808   -8911.2443   -8817.0727     5566.804    18803.659    4.4058453 
    2700     820.9935   -8909.5107   -8817.9277    4667.4915    18815.127    4.4015712 
    2710    821.63729   -8910.3466   -8818.6917    2534.3393    18831.364    4.3945161 
    2720    829.39626   -8911.8928   -8819.3724    146.44339    18850.096    4.3874215 
    2730    825.34615    -8912.046   -8819.9774    -1531.556    18868.808    4.3820275 
    2740    822.75636   -8912.3019   -8820.5221   -2700.2542    18885.654    4.3816544 
    2750    828.62321   -8913.4588   -8821.0247   -3923.0347    18899.335    4.3854992 
    2760    837.36195   -8914.9298   -8821.5208   -4640.5155    18908.626    4.3940473 
    2770    834.00191   -8915.0447   -8822.0106   -4687.4165    18912.846    4.4083851 
    2780    852.96548   -8917.6872   -8822.5377   -4627.5158    18911.955    4.4245089 
    2790    836.64998   -8916.4456    -8823.116   -3577.0272    18906.206    4.4436185 
    2800    816.41242    -8914.766   -8823.6939   -2260.5738    18896.713    4.4681181 
    2810     839.9971    -8917.963     -8824.26   -1778.0229    18884.817    4.4993769 
    2820    834.09209   -8917.8769   -8824.8326   -921.34361    18871.211    4.5347062 
    2830    817.80893   -8916.6039   -8825.3761    102.46332    18856.835    4.5697245 
    2840    847.15631     -8920.41   -8825.9084    167.15049    18842.678      4.60397 
    2850    854.92622    -8921.844   -8826.4757    196.76883    18828.908    4.6397541 
    2860    837.39952   -8920.4959   -8827.0827    758.13234    18815.593    4.6726442 
    2870    821.10397   -8919.2756   -8827.6803    1287.8593    18803.282    4.7001618 
    2880     825.6346   -8920.3527   -8828.2519    1006.7765    18792.446    4.7237649 
    2890    831.78506   -8921.5953   -8828.8084    678.50076    18782.826    4.7477236 
    2900    826.49675   -8921.5448   -8829.3479    794.83672    18774.111    4.7752374 
    2910    826.27043    -8922.042   -8829.8703    474.43412    18766.321    4.8060348 
    2920    829.63965    -8922.922   -8830.3745   -203.83014    18759.105    4.8380467 
    2930    839.77633   -8924.5485   -8830.8702   -1047.1303    18751.756    4.8683344 
    2940    846.39719   -8925.7971   -8831.3802   -1769.5165    18743.409    4.8984339 
    2950    837.07333   -8925.2849   -8831.9082   -1572.5373    18733.378    4.9270772 
    2960    836.83056   -8925.7843   -8832.4346   -1240.9237    18721.829    4.9513457 
    2970    848.47225   -8927.6183   -8832.9699   -1291.1451    18709.101    4.9737194 
    2980    864.84809   -8930.0289   -8833.5538   -1397.8862    18695.174    4.9961582 
    2990    869.86798   -8931.2489   -8834.2138   -1248.0513    18679.975     5.020099 
    3000    854.06145   -8930.2033   -8834.9315   -706.05292    18663.707    5.0454622 
    3010    840.90342   -8929.4576   -8835.6536   -292.44692     18646.91    5.0713436 
    3020    842.84945   -8930.3824   -8836.3613   -376.30384     18629.96     5.098668 
    3030    838.17567   -8930.5387    -8837.039   -778.97956    18612.819    5.1308005 
    3040    862.90924   -8933.9772   -8837.7184   -1790.9484    18595.024     5.165373 
    3050    876.58981   -8936.2392   -8838.4543   -1860.9334    18575.703    5.1986106 
    3060    852.27157   -8934.2883   -8839.2161    -1367.918    18554.756    5.2358501 
    3070    859.02306   -8935.8058   -8839.9805   -1672.0867    18532.578    5.2810984 
    3080    859.95676   -8936.6808   -8840.7514   -1711.5344    18509.016    5.3339968 
    3090    866.43096   -8938.1834   -8841.5317   -1883.8641    18484.011    5.3911219 
    3100    892.70115    -8941.941   -8842.3589   -2368.1593    18457.407    5.4522835 
    3110    897.69703    -8943.407   -8843.2675   -2006.1515    18428.858    5.5173682 
    3120    887.60295   -8943.2068   -8844.1933   -1059.0722      18398.8    5.5831447 
    3130    903.14477   -8945.8863   -8845.1391   -497.05591     18368.17    5.6504145 
    3140    888.20214   -8945.1744   -8846.0941   -10.569142    18337.652    5.7212833 
    3150    882.57915   -8945.4691    -8847.016   -277.53099    18307.703    5.7936473 
    3160    910.57116   -8949.5085   -8847.9329   -751.26255     18278.12    5.8662958 
    3170    928.82075   -8952.5296   -8848.9183   -823.77496    18248.489    5.9405642 
    3180    906.51286   -8951.0705   -8849.9476   -58.012007    18218.821    6.0179611 
    3190    909.10152   -8952.3836    -8850.972    661.25167    18189.828    6.0988086 
    3200    927.23809   -8955.4743   -8852.0395    599.85794    18162.162    6.1817768 
    3210    931.85702    -8957.137    -8853.187    265.70447     18135.79    6.2650457 
    3220    944.50003   -8959.7786   -8854.4182   -987.70255     18110.27    6.3492659 
    3230    959.31675   -8962.7803   -8855.7671   -2136.5096    18084.447    6.4353542 
    3240    953.20343    -8963.531   -8857.1997   -2177.3537    18057.299    6.5239341 
    3250    957.57155   -8965.4947   -8858.6762   -2245.4662    18028.725     6.610466 
    3260    951.94037   -8966.3786   -8860.1882   -2304.9086    17998.737    6.6914697 
    3270    919.77789   -8964.2733   -8861.6707   -1318.2234     17967.43    6.7675251 
    3280     894.3915   -8962.7911   -8863.0204    456.13967    17935.822    6.8385383 
    3290    909.22782   -8965.6982   -8864.2725    1562.5817     17905.52    6.9039441 
    3300    912.17775   -8967.2795   -8865.5247     2163.284    17877.558    6.9651406 
    3310    875.98062   -8964.4449   -8866.7279    3010.2976    17852.556    7.0223236 
    3320    883.38187   -8966.4268   -8867.8843    2596.4728    17831.047    7.0710513 
    3330    886.01677    -8967.874   -8869.0375    1850.8968    17812.617    7.1094641 
    3340    880.41254   -8968.4002   -8870.1889    1114.8248    17796.512    7.1408141 
    3350    892.33708   -8970.9061   -8871.3646    161.65361    17781.915    7.1663823 
    3360    914.48527   -8974.6165   -8872.6043   -930.35662    17767.872    7.1864282 
    3370    941.47604    -8978.988    -8873.965   -2095.2188    17753.332    7.2041793 
    3380    948.62171    -8981.277   -8875.4569   -2588.0808    17737.287    7.2241175 
    3390    936.11633   -8981.4373   -8877.0121   -2583.8482    17719.316    7.2496506 
    3400    957.53704    -8985.427   -8878.6124   -2247.7991    17699.452    7.2803089 
    3410    983.23564   -8989.9906   -8880.3092   -744.04589    17678.173    7.3158316 
    3420    959.95723   -8989.1367    -8882.052    1208.7573     17656.88    7.3542692 
    3430     951.4584   -8989.8895   -8883.7529    1633.0727    17637.229    7.3914378 
    3440     963.5864   -8992.9453   -8885.4558    595.89782    17619.562    7.4319654 
    3450    976.59536   -8996.1526    -8887.212   -1239.4137    17602.899    7.4838126 
    3460    1002.5385   -9000.9407    -8889.106   -3472.6434    17585.517    7.5496192 
    3470    1003.2002   -9003.0657   -8891.1572   -4474.8267    17565.517    7.6302955 
    3480    976.14141   -9002.1401     -8893.25   -3719.7112    17542.125    7.7213103 
    3490    990.68147   -9005.8214   -8895.3094   -2702.1298    17516.013    7.8147754 
    3500    1032.4616   -9012.6636    -8897.491   -1351.6054    17488.211    7.9084958 
    3510    977.34913   -9008.7108    -8899.686    1168.8508    17460.125    8.0066734 
    3520    971.85939    -9010.157   -8901.7447    1804.2278    17433.781    8.1074274 
    3530    992.39933   -9014.5315   -8903.8278    1405.1923    17409.809    8.2090822 
    3540    949.64771   -9011.8413   -8905.9067    2141.8423    17387.957     8.312744 
    3550    926.66052   -9011.2241   -8907.8537    2888.5325    17368.729      8.41876 
    3560    959.94423   -9016.8404   -8909.7572    2478.3761    17352.619    8.5257237 
    3570    961.47102     -9018.93   -8911.6765    2636.9681    17339.328    8.6276043 
    3580    964.59647   -9021.2181   -8913.6159    2998.8675     17328.84    8.7183099 
    3590    987.93787   -9025.8334   -8915.6275    3067.4979     17321.36    8.7966231 
    3600    981.52125   -9027.2251   -8917.7349    3500.1634    17316.897    8.8655232 
    3610    953.84659   -9026.2366   -8919.8336    3999.7295    17315.725    8.9272638 
    3620    964.12531   -9029.4458   -8921.8962    3074.7857    17318.098    8.9830275 
    3630    971.55708   -9032.3428   -8923.9641    1002.3473    17323.089    9.0360328 
    3640    950.39226   -9032.0177        -8926   -631.77798    17328.854    9.0900792 
    3650    955.18377   -9034.5605   -8928.0083   -2189.4992     17333.87    9.1430884 
    3660    931.84034   -9033.9385   -8929.9903   -2978.5063    17336.828    9.1881815 
    3670    921.31115   -9034.6746    -8931.901   -3301.7531    17337.045    9.2218375 
    3680    918.49021   -9036.2267   -8933.7678   -3354.5634    17334.296    9.2455461 
    3690    917.29115   -9037.9248   -8935.5996   -3137.1809    17328.638     9.261098 
    3700    938.46195   -9042.1255   -8937.4386   -3893.1302    17320.226    9.2738648 
    3710    961.50758   -9046.6451   -8939.3875   -3649.3128    17308.642    9.2891527 
    3720    946.51062   -9047.0066   -8941.4219   -2160.3614      17294.2    9.3081137 
    3730    910.18327   -9044.9327   -8943.4003    213.21861    17278.328    9.3279662 
    3740    879.59748    -9043.329   -8945.2085    1401.6814    17262.985    9.3425935 
    3750    904.22605    -9047.784   -8946.9163    383.71335    17249.116    9.3494404 
    3760    927.55853   -9052.1397   -8948.6692    -1025.662     17235.94    9.3520603 
    3770    902.14933   -9051.0818   -8950.4457   -1276.7702    17222.309    9.3559439 
    3780    906.99405   -9053.3526   -8952.1761   -1627.2229    17207.896    9.3618842 
    3790    939.56081   -9058.7985   -8953.9891   -2078.2017    17192.386     9.372063 
    3800    906.50363   -9056.9584   -8955.8366   -42.909805    17175.664    9.3832577 
    3810    887.58339   -9056.6027   -8957.5915    1492.9677     17159.28    9.3860341 
    3820    882.40857    -9057.696    -8959.262    2389.1472    17144.598     9.378086 
    3830    858.04673   -9056.5166   -8960.8002    3930.4584    17132.486    9.3670888 
    3840    861.88212    -9058.391   -8962.2467    4453.5296    17124.032    9.3630457 
    3850    858.03869   -9059.3576   -8963.6421    4300.9334    17119.671    9.3707304 
    3860    885.50473   -9063.8363    -8965.057    2845.2701    17119.086    9.3886566 
    3870    899.06005     -9066.84   -8966.5485    1905.5745    17121.084    9.4144432 
    3880    873.40775    -9065.494   -8968.0641    2249.6497    17124.821    9.4429673 
    3890    860.90601     -9065.56   -8969.5246    2921.6861     17130.49    9.4664522 
    3900    868.38486   -9067.8104   -8970.9408    1871.9358    17138.488    9.4800511 
    3910      882.361   -9070.7757    -8972.347   -374.68789     17147.86    9.4843183 
    3920    869.73024   -9070.7728   -8973.7531   -1496.6217    17156.804     9.483973 
    3930    847.69107   -9069.6675   -8975.1063   -2500.6815    17164.217    9.4853232 
    3940    850.11514   -9071.2444   -8976.4128   -3241.5545    17169.283    9.4918713 
    3950    852.58336   -9072.7962   -8977.6892   -2953.2085    17171.446    9.5073004 
    3960    851.83097   -9073.9723   -8978.9493   -1413.3289    17171.037    9.5347097 
    3970    839.36541      -9073.8   -8980.1675    -526.4288    17169.349    9.5674058 
    3980     847.7342   -9075.9191   -8981.3531   -792.74011    17167.178    9.5947806 
    3990    843.54799   -9076.6086   -8982.5096   -1023.2141    17164.356    9.6159179 
    4000    839.48628   -9077.2613   -8983.6154   -657.37519    17160.738    9.6347835 
    4010    848.54965   -9079.3697   -8984.7127     65.67165    17156.616    9.6564712 
    4020    827.74323   -9078.1155   -8985.7795    2027.7298    17152.768    9.6832442 
    4030    818.23466   -9078.0675   -8986.7921    2857.5179     17150.69    9.7114876 
    4040    812.30925   -9078.3557   -8987.7414    2593.5048    17151.122    9.7347703 
    4050    820.76227   -9080.2044   -8988.6471    1232.4626    17153.764    9.7486305 
    4060     818.6946   -9080.8315   -8989.5049   -353.02608    17157.442      9.75513 
    4070    814.95538    -9081.221   -8990.3115   -816.01373    17160.827    9.7575162 
    4080    809.37211   -9081.3488   -8991.0621   -423.77565    17163.499    9.7573372 
    4090     822.8307   -9083.5698   -8991.7818   -207.24008    17165.735    9.7539779 
    4100    803.16208   -9082.0492   -8992.4553    133.89142    17167.748    9.7460426 
    4110    813.40727   -9083.8029   -8993.0661   -356.73229    17169.777    9.7349076 
    4120    846.81248   -9088.1493   -8993.6861   -1357.4431    17171.413    9.7281628 
    4130    802.63084   -9083.8306   -8994.2959   -1441.5485    17171.904    9.7317054 
    4140    789.00033   -9082.8589   -8994.8447   -1490.4853    17171.106    9.7423994 
    4150    791.77089    -9083.633   -8995.3097   -1504.6622    17168.999    9.7574734 
    4160    805.68591   -9085.5789   -8995.7034   -1671.0089    17165.583    9.7737074 
    4170    840.52167    -9089.852   -8996.0905   -2357.4136    17160.705    9.7870035 
    4180    830.17773   -9089.1244   -8996.5168   -2115.3473    17153.868    9.8004043 
    4190    802.15921   -9086.4385   -8996.9564    450.52827    17145.481    9.8191739 
    4200     818.5024   -9088.6904   -8997.3852    2020.1903    17137.526    9.8373998 
    4210    812.93112   -9088.4848   -8997.8011    3188.8549    17131.459     9.845563 
    4220    774.84486   -9084.5764   -8998.1413    4117.8875    17128.315    9.8375748 
    4230    785.60946   -9085.9919    -8998.356    2776.4677    17128.706    9.8166995 
    4240    813.07731    -9089.158    -8998.458    572.03495    17131.487    9.7964269 
    4250    819.89553   -9089.9641   -8998.5036    208.10417     17134.91    9.7828333 
    4260    847.42481   -9093.0917   -8998.5602    313.73254     17138.47    9.7709185 
    4270    846.08038   -9093.0418   -8998.6603    1189.1825    17142.351    9.7585938 
    4280    837.28917   -9092.2256   -8998.8247    1298.1475    17147.154    9.7477355 
    4290    834.30577   -9092.0882   -8999.0202    888.74483    17152.999    9.7414219 
    4300    843.06573   -9093.2958   -8999.2506    577.47628    17159.557    9.7392431 
    4310    826.42934   -9091.6914    -8999.502    1092.1446    17166.629    9.7392824 
    4320    823.73324   -9091.6691   -8999.7804    1384.7509    17174.574    9.7380264 
    4330    836.17323   -9093.3376   -9000.0612    134.31722    17183.518    9.7364177 
    4340    877.43222   -9098.2603   -9000.3814   -2105.7038    17192.364    9.7371422 
    4350    874.15863     -9098.33   -9000.8163    -3176.635    17199.312    9.7485067 
    4360    852.38411   -9096.4469   -9001.3622   -3288.3327    17203.405    9.7737168 
    4370    849.89758   -9096.7794   -9001.9721   -2650.9718    17204.557    9.8078325 
    4380    841.54043    -9096.508   -9002.6329    -1850.406    17203.329     9.848971 
    4390    822.03871   -9094.9973   -9003.2977   -1397.7854    17200.459    9.8951321 
    4400    828.91671   -9096.4068   -9003.9399    -1185.314    17196.358     9.939208 
    4410    848.70661   -9099.2681   -9004.5936   -376.44763    17191.308    9.9788468 
    4420    836.51702   -9098.5929   -9005.2782    1363.0346    17186.087     10.01909 
    4430    842.09012   -9099.9073   -9005.9709    1849.2673    17182.037    10.055705 
    4440     849.4431   -9101.4615   -9006.7048    2445.7567    17179.698    10.083769 
    4450    825.08403   -9099.4917   -9007.4524    3738.9042    17179.642    10.100656 
    4460    815.65686   -9099.1659   -9008.1782    3236.1937    17182.805     10.10671 
    4470     822.7275   -9100.6588   -9008.8823    1787.9974    17188.782    10.103093 
    4480    811.23267   -9100.0437   -9009.5495    571.29538    17196.328    10.089522 
    4490    795.91247   -9098.9346   -9010.1494   -552.06046    17204.292    10.073215 
    4500    813.16238   -9101.3891   -9010.6796   -1277.0738    17211.691    10.058344 
    4510     834.1804   -9104.2416   -9011.1876   -1161.8261    17217.931    10.043924 
    4520    829.06604    -9104.188   -9011.7044   -57.449253    17223.143    10.030541 
    4530    811.72407   -9102.7505   -9012.2015    666.68361     17228.22    10.009636 
    4540    818.35627   -9103.9802   -9012.6913    525.85534    17233.769    9.9730688 
    4550    781.89634   -9100.3547    -9013.133    757.62247    17239.797    9.9248939 
    4560    794.70441   -9102.1294   -9013.4789   -380.14355    17246.357    9.8752087 
    4570    849.13952   -9108.5212   -9013.7984   -2570.7108    17252.403    9.8360702 
    4580    801.35515   -9103.5215   -9014.1292   -1312.0366    17256.395    9.8108733 
    4590    778.95887   -9101.3147   -9014.4207    810.16517    17259.224    9.7946389 
    4600     793.7103   -9103.1619   -9014.6224    1766.3217    17262.691    9.7818136 
    4610    804.72861   -9104.5183   -9014.7496    1615.0231     17267.65    9.7697385 
    4620    826.32212   -9107.0318   -9014.8543    1096.0048    17273.985    9.7579205 
    4630    826.18049   -9107.1294   -9014.9677    930.37885    17281.305     9.747721 
    4640     805.3009   -9104.9151   -9015.0826     898.0326    17289.426    9.7402443 
    4650    809.32863   -9105.4509   -9015.1691    420.81969    17298.245    9.7334429 
    4660    812.27877   -9105.8234   -9015.2124    4.6512218    17307.398    9.7252429 
    4670    812.61352   -9105.8629   -9015.2147   -1085.2443    17316.443    9.7161901 
    4680     829.1082   -9107.6795   -9015.1913   -2361.7078    17324.408    9.7102093 
    4690    805.07789   -9104.9526   -9015.1449    -2745.771    17330.229    9.7101734 
    4700    814.89128   -9105.9707   -9015.0683   -3944.7199    17333.458    9.7179754 
    4710    840.14013   -9108.6934   -9014.9745   -5649.9077    17333.036    9.7355785 
    4720    829.21055   -9107.4088   -9014.9091   -6208.4061    17327.575     9.761069 
    4730    822.79381   -9106.6574   -9014.8735   -5618.8342    17316.615    9.7878367 
    4740    823.36061   -9106.6887   -9014.8416   -4346.9185    17300.721    9.8106138 
    4750    837.86693    -9108.287   -9014.8217   -3653.2407     17281.01    9.8285948 
    4760    823.25635   -9106.6589   -9014.8234   -2786.0845    17258.258    9.8447277 
    4770    805.08046   -9104.6245   -9014.8165   -1312.8784    17233.325     9.860633 
    4780    820.99421   -9106.3368   -9014.7537    74.607114    17207.541     9.873863 
    4790    838.58278   -9108.1852     -9014.64    752.67401    17182.108    9.8840153 
    4800    845.26772   -9108.8074   -9014.5165    1875.6708    17157.727    9.8953919 
    4810    837.69578   -9107.8512    -9014.405    3097.1562    17135.393    9.9149165 
    4820    855.15499   -9109.7506   -9014.3568    2726.4488    17115.997    9.9445525 
    4830    872.56771   -9111.7672   -9014.4309    2172.7437    17099.293    9.9825011 
    4840    851.84408   -9109.6684   -9014.6439    3390.1434    17084.924     10.02417 
    4850    802.81638   -9104.4584    -9014.903    5051.0887    17073.801    10.059513 
    4860    820.17165   -9106.6225   -9015.1311    4923.3926    17067.116     10.07994 
    4870    864.11514   -9111.7691   -9015.3758    4977.6099    17064.886    10.093511 
    4880    844.61057   -9109.8919   -9015.6743    5602.0491    17067.141    10.107785 
    4890    847.34557   -9110.5395   -9016.0169    5010.3376    17074.221    10.121207 
    4900    844.01123    -9110.549   -9016.3982    4539.4693    17085.639    10.133001 
    4910    831.06111   -9109.5173   -9016.8112    3558.1665    17100.871    10.143103 
    4920    850.33559   -9112.1194   -9017.2632    1029.8791    17118.913    10.152071 
    4930    842.62417   -9111.7349    -9017.739   -1234.4385    17137.642    10.163276 
    4940    854.96215   -9113.6205   -9018.2481   -3483.5658     17154.98    10.180066 
    4950    836.47231   -9112.0959   -9018.7861   -4509.2688    17169.081    10.200926 
    4960    828.18221   -9111.7229   -9019.3379   -5745.8767    17178.933    10.224004 
    4970    853.67869   -9115.1518   -9019.9226   -8176.4615    17183.393    10.250606 
    4980    839.49867   -9114.2308   -9020.5835   -9253.5421    17180.583    10.280459 
    4990     818.5766   -9112.5983   -9021.2848   -7981.8885    17169.757    10.313681 
    5000    810.09394   -9112.3359   -9021.9687    -4718.761    17152.182     10.34919 
Loop time of 2175.37 on 16 procs for 3000 steps with 864 atoms

Performance: 0.119 ns/day, 201.423 hours/ns, 1.379 timesteps/s
96.9% CPU use with 16 MPI tasks x 1 OpenMP threads

MPI task timing breakdown:
Section |  min time  |  avg time  |  max time  |%varavg| %total
---------------------------------------------------------------
Pair    | 475.76     | 1170.2     | 2169.5     |1541.3 | 53.79
Bond    | 0.00046635 | 0.0011749  | 0.0023141  |   1.5 |  0.00
Neigh   | 0.023302   | 0.055286   | 0.099658   |  10.9 |  0.00
Comm    | 0.8935     | 643.79     | 1563.6     |1811.8 | 29.59
Output  | 0.24587    | 0.24846    | 0.28496    |   1.9 |  0.01
Modify  | 4.3351     | 361.1      | 805.35     |1580.6 | 16.60
Other   |            | 0.0165     |            |       |  0.00

Nlocal:        54.0000 ave          82 max          27 min
Histogram: 5 1 0 1 1 1 1 1 2 3
Nghost:        549.688 ave         762 max         341 min
Histogram: 4 0 1 1 2 2 2 1 1 2
Neighs:         0.00000 ave           0 max           0 min
Histogram: 16 0 0 0 0 0 0 0 0 0
FullNghs:      3012.25 ave        5794 max         791 min
Histogram: 5 1 0 2 0 2 1 1 2 2

Total # of neighbors = 48196
Ave neighs/atom = 55.782407
Ave special neighs/atom = 0.0000000
Neighbor list builds = 300
Dangerous builds = 300
Setting up Verlet run ...
  Unit style    : metal
  Current step  : 5000
  Time step     : 0.001
Per MPI rank memory allocation (min/avg/max) = 8.895 | 8.912 | 8.921 Mbytes
Step Temp PotEng TotEng Press Volume c_msd[4] 
    5000    810.09394   -9112.3359   -9021.9687    -4718.761    17152.182     10.34919 
    5010    796.53312   -9110.8026   -9021.9481   -3019.9279    17150.361     10.34859 
    5020    815.37305   -9112.8432   -9021.8871   -2313.2967    17145.768    10.346482 
    5030    831.12176   -9114.5095   -9021.7966   -2220.9171    17139.055    10.351469 
    5040    837.93787   -9115.1915   -9021.7182   -1551.9091    17130.382    10.367662 
    5050    823.96909    -9113.576    -9021.661    91.355659    17120.391    10.391553 
    5060    815.32034   -9112.5466   -9021.5964    1463.5163    17110.455    10.415363 
    5070    836.02685   -9114.7762   -9021.5161    2105.3217    17101.742    10.434766 
    5080    819.76334   -9112.8709   -9021.4251    3177.4841     17094.94     10.44714 
    5090    805.48555   -9111.1458   -9021.2927    3256.6512    17090.885     10.44865 
    5100    844.21599    -9115.289   -9021.1154    1794.0245    17089.598    10.441827 
    5110    852.93398   -9116.0909   -9020.9449    1073.2756    17089.966    10.434622 
    5120    845.52039   -9115.1502   -9020.8311    1019.3345    17091.335    10.428147 
    5130    846.57786   -9115.2038   -9020.7668    512.22901    17093.555    10.418722 
    5140    841.54124   -9114.6272    -9020.752    312.58859    17096.271    10.402434 
    5150    823.71377   -9112.6601   -9020.7736    88.208093    17099.285    10.381431 
    5160    830.25982   -9113.4221   -9020.8053   -461.09618    17102.374    10.361721 
    5170    843.40697   -9114.9294   -9020.8461   -928.18696    17105.074    10.349446 
    5180    838.83894   -9114.5019   -9020.9281   -558.99297    17107.038    10.345155 
    5190    832.16081   -9113.8786   -9021.0498    454.23669    17108.596    10.345314 
    5200    834.90891   -9114.3503   -9021.2149    807.06172    17110.525    10.346719 
    5210    819.46157   -9112.8378   -9021.4256   -101.18167    17113.073    10.344611 
    5220    802.65357    -9111.192   -9021.6548     -831.388    17115.587    10.336897 
    5230    808.62009   -9112.0699   -9021.8671   -763.97195    17117.442    10.327196 
    5240    814.80455   -9112.9525   -9022.0598   -787.84821    17118.598    10.320734 
    5250    823.44381   -9114.1095   -9022.2531   -223.20885    17119.108    10.319886 
    5260    840.75875   -9116.2552   -9022.4673     622.6798    17119.438    10.324937 
    5270    860.17191   -9118.7134   -9022.7599    1252.9314    17120.331    10.336395 
    5280    856.74775   -9118.7501   -9023.1786    2098.0331    17122.361    10.354616 
    5290    810.39584   -9114.0768   -9023.6759    3504.6751    17126.318    10.379302 
    5300     804.7201   -9113.9475   -9024.1798    3240.1098     17133.28    10.410433 
    5310    830.11397   -9117.2707   -9024.6702    1274.9239    17143.066    10.447764 
    5320    823.45541   -9117.0105   -9025.1528   -1156.8122    17154.048    10.486959 
    5330    833.08867   -9118.5658   -9025.6335    -3613.963    17164.058    10.519848 
    5340    806.86203   -9116.1097    -9026.103   -4333.9596    17171.005    10.548294 
    5350    786.56282   -9114.2668   -9026.5245   -3330.0406    17174.213    10.576455 
    5360     788.4631      -9114.8   -9026.8458   -2414.4191    17174.428    10.606753 
    5370    799.56676   -9116.2743   -9027.0814   -1851.7215     17172.45    10.637496 
    5380    818.62843   -9118.5963    -9027.277   -1564.4941    17168.771    10.666977 
    5390    823.12065   -9119.2963   -9027.4759    -755.6092    17163.732    10.692011 
    5400    823.90096   -9119.6106   -9027.7032   -333.28406    17157.962    10.708552 
    5410     822.4962   -9119.6964   -9027.9457     513.3934    17151.921    10.717534 
    5420    825.80628   -9120.3137   -9028.1938    1806.5142    17146.324    10.724566 
    5430    818.67703   -9119.7515   -9028.4268    3669.2628    17142.391    10.730988 
    5440    796.29378    -9117.434   -9028.6062    4628.2348    17141.672    10.736979 
    5450    817.53148     -9119.95   -9028.7531    4066.6398    17144.978    10.743526 
    5460    823.36213   -9120.7413    -9028.894    3088.1879    17151.964    10.748922 
    5470    815.73609   -9120.0364   -9029.0398    1442.1247    17161.711    10.749341 
    5480    807.69545   -9119.2592   -9029.1596    280.79307    17172.849    10.743109 
    5490    792.94501   -9117.6838   -9029.2296    115.17646    17184.411    10.727662 
    5500    821.07116   -9120.8564   -9029.2646   -634.61791    17196.113    10.701192 
    5510    855.50677   -9124.7326   -9029.2996   -1869.6407    17207.263    10.672046 
    5520    852.13252   -9124.4594   -9029.4028   -1838.1164    17216.911    10.651034 
    5530    818.03939   -9120.8365    -9029.583   -1578.5369    17224.957    10.642166 
    5540    790.54472   -9117.9484   -9029.7619   -1859.9436      17231.6     10.64327 
    5550    822.49385   -9121.6627   -9029.9122   -3752.6541    17236.468    10.648591 
    5560    842.28367    -9124.055    -9030.097   -5262.3657    17237.998    10.659881 
    5570    840.05242   -9124.0951    -9030.386    -5545.245    17234.853    10.686592 
    5580    852.54544   -9125.9044   -9030.8017   -4809.8454    17226.762    10.730886 
    5590    850.67572   -9126.2282   -9031.3341   -4169.4349    17214.246    10.788602 
    5600    824.01048   -9123.8742   -9031.9546   -3093.7355    17197.924    10.858095 
    5610    796.55198   -9121.4345   -9032.5779   -1113.0682    17178.794      10.9373 
    5620    805.97846    -9123.071   -9033.1629    1124.2756    17158.584    11.019422 
    5630    817.88812   -9124.9605   -9033.7239    3148.8272    17139.291    11.094652 
    5640    833.45339   -9127.2824   -9034.3094    4897.6752    17122.695    11.155513 
    5650    835.60507   -9128.1342   -9034.9212    6808.0546    17110.436    11.197795 
    5660    831.58866   -9128.3294   -9035.5644    7381.4801    17104.094     11.22489 
    5670    828.58992   -9128.6513   -9036.2209    7302.7232    17104.277    11.240174 
    5680    823.98935   -9128.8005   -9036.8832    7017.8937    17110.992     11.24336 
    5690    810.22553   -9127.8992   -9037.5173    6001.9764    17124.012    11.240712 
    5700    815.54193   -9129.0628   -9038.0879    2812.8023    17142.309     11.24174 
    5710     808.6953   -9128.7639   -9038.5527   -1017.7877    17163.212    11.245818 
    5720    785.49945   -9126.5199   -9038.8963   -4029.2083    17183.393    11.243803 
    5730    783.95245   -9126.5686   -9039.1175    -5881.758    17200.181    11.232444 
    5740    801.91313   -9128.7168   -9039.2622   -6483.6022    17211.862    11.219106 
    5750    773.59587   -9125.6171   -9039.3213   -6005.3537     17217.85    11.208955 
    5760    781.08504   -9126.4148   -9039.2836   -6114.7341    17218.404    11.205356 
    5770    816.60119   -9130.2676   -9039.1746   -6080.7349    17213.437    11.211554 
    5780    793.93334   -9127.5898   -9039.0253   -4216.4279    17203.126    11.225656 
    5790    790.31516   -9126.9975   -9038.8367   -2231.4849    17188.981    11.241818 
    5800    844.58394   -9132.8255   -9038.6109    -1859.377    17172.634    11.257855 
    5810    839.76447   -9132.0738   -9038.3968   -338.36587    17154.683    11.270457 
    5820     796.4004   -9127.0278   -9038.1881     2548.617    17136.464    11.273208 
    5830    801.56981   -9127.3305   -9037.9142    4356.6024    17120.403    11.272298 
    5840    832.00743   -9130.4048   -9037.5931    4188.7923    17108.027    11.281126 
    5850    832.90632   -9130.2019     -9037.29    4078.9925    17099.358    11.301442 
    5860    814.13895   -9127.8315   -9037.0131    4564.0446    17094.364     11.32796 
    5870    793.55473    -9125.262   -9036.7398    4582.0274    17093.378    11.356903 
    5880    788.93196   -9124.4334   -9036.4269    4299.4534    17096.476    11.384849 
    5890    819.02215   -9127.4211    -9036.058    2455.3532    17103.273    11.404745 
    5900    838.51402   -9129.2049   -9035.6674    652.19504    17112.297    11.415742 
    5910    832.23838   -9128.1352   -9035.2978   -176.62524    17122.038    11.421965 
    5920    828.02842   -9127.3244   -9034.9566   -1111.2267     17131.65    11.427513 
    5930    827.69522   -9126.9533   -9034.6226   -1131.9244    17140.411    11.431148 
    5940    856.65336   -9129.8666   -9034.3056   -1098.5033    17148.199    11.429866 
    5950    852.37778   -9129.1327   -9034.0487    -676.6536    17155.079    11.425787 
    5960    847.81947   -9128.4507   -9033.8751   -621.30102    17161.345    11.423086 
    5970    853.37548   -9128.9404   -9033.7451   -1667.1021    17167.016     11.42531 
    5980    844.63726   -9127.8865   -9033.6659   -2770.2662    17171.239    11.434008 
    5990    840.16936   -9127.3608   -9033.6387   -3290.1156     17173.04     11.44792 
    6000     833.0156    -9126.584   -9033.6599   -2573.1233    17171.983    11.464128 
    6010    814.84439    -9124.591   -9033.6939   -1695.3395    17168.596    11.484916 
    6020    843.45435   -9127.8075   -9033.7189   -1670.2079    17163.592    11.514323 
    6030    874.90971   -9131.3926   -9033.7951   -870.33288     17157.11    11.552924 
    6040     860.0345   -9129.9068   -9033.9687    1709.9824    17149.966    11.600458 
    6050    857.18662   -9129.8678   -9034.2473    3069.3641    17144.172    11.655953 
    6060    843.41068   -9128.7183   -9034.6346    3126.4511    17141.005    11.715379 
    6070    842.21953   -9129.0997   -9035.1488    1645.8282    17140.504    11.769342 
    6080    831.60347   -9128.5883   -9035.8217      383.991    17141.515    11.811365 
    6090    809.08381   -9126.9008   -9036.6463   -373.09208    17142.926    11.842799 
    6100    834.46196   -9130.7243   -9037.6389   -1805.0993    17143.927    11.869088 
    6110    860.51767    -9134.853    -9038.861   -2319.4422    17143.419    11.895259 
    6120    843.85031   -9134.3745   -9040.2417   -1884.8719    17140.896    11.928353 
    6130    842.08852   -9135.5324   -9041.5961   -1576.9136    17136.651    11.970548 
    6140    832.82476   -9135.6805   -9042.7776    -1402.762    17130.947    12.014531 
    6150    819.58773   -9135.0945   -9043.6682   -184.39017    17124.052     12.05821 
    6160    816.09384   -9135.3305    -9044.294    713.66789    17116.894    12.104528 
    6170    792.18314   -9133.0527   -9044.6835    1861.3697    17110.387     12.14976 
    6180    809.91936   -9135.2526   -9044.9049    1589.0237    17105.373    12.186971 
    6190    825.56219   -9137.1433   -9045.0506    1056.9794     17101.73    12.213036 
    6200    810.72165   -9135.5988   -9045.1616    673.18731    17099.036    12.229902 
    6210    817.44021   -9136.4259   -9045.2392   -128.71141    17096.893    12.238208 
    6220    830.71509   -9137.9696    -9045.302   -904.80647     17094.61     12.24149 
    6230    824.00756   -9137.2929   -9045.3737   -542.78616    17091.583    12.247692 
    6240     794.0027   -9134.0093   -9045.4371    385.87707    17088.099    12.256887 
    6250    775.49303   -9131.9513   -9045.4439    1018.0114    17084.945    12.266182 
    6260    801.30621   -9134.7614   -9045.3745    786.93021    17082.597    12.273971 
    6270    808.97723   -9135.4853   -9045.2427    405.69953    17080.919    12.275873 
    6280    812.90327   -9135.7619   -9045.0813    399.30334    17079.649    12.266948 
    6290    830.45345   -9137.5235   -9044.8851   -369.89136    17078.664     12.25022 
    6300    850.72032   -9139.5778   -9044.6787   -1838.2848     17077.28    12.235042 
    6310    846.79392   -9138.9692    -9044.508   -2989.9764    17074.266    12.227537 
    6320    815.05299   -9135.3004     -9044.38   -3202.8126    17068.634    12.231478 
    6330    804.69422   -9134.0131   -9044.2482   -2853.1413    17060.128    12.252737 
    6340    825.70681   -9136.2112   -9044.1024    -2172.957    17049.015    12.294054 
    6350    820.50463    -9135.465   -9043.9365   -859.68299    17035.896    12.350013 
    6360    844.95103   -9138.0005    -9043.745    515.50113    17021.841     12.41381 
    6370    854.85264   -9138.9088   -9043.5487    2594.7938    17008.126    12.483651 
    6380    836.33129   -9136.6896   -9043.3955    4457.8258    16996.538    12.556277 
    6390    840.44554   -9137.0465   -9043.2935    4931.0741    16988.672    12.624137 
    6400      841.278    -9137.074   -9043.2282    5186.2814    16985.072     12.68454 
    6410    811.96685   -9133.7692   -9043.1931    5932.7942    16986.039    12.736019 
    6420    780.88328   -9130.2404   -9043.1317    6591.6315    16992.271     12.77796 
    6430    830.14853   -9135.6219   -9043.0176    5344.5175    17004.267    12.808026 
    6440    848.94181   -9137.5753   -9042.8746    3788.2146    17021.164    12.828518 
    6450    830.35077   -9135.4017   -9042.7748    2636.6187    17041.702    12.846208 
    6460    831.52491   -9135.4534   -9042.6956     432.1715    17064.767    12.861416 
    6470    831.02146    -9135.285   -9042.5833   -2652.6272    17088.464    12.875592 
    6480    838.76475   -9136.0091   -9042.4436   -5425.5824    17110.158    12.891807 
    6490    836.19531   -9135.5881   -9042.3092     -6877.71    17127.401    12.910572 
    6500    846.66957    -9136.673   -9042.2257   -7250.1957    17138.778    12.932489 
    6510    834.87115   -9135.3409   -9042.2098   -7314.1601    17143.816      12.9636 
    6520    815.61345   -9133.2333   -9042.2503   -7922.1615    17142.286    13.008936 
    6530    837.21301   -9135.7185   -9042.3262   -7702.6288    17133.675    13.065526 
    6540    838.23231   -9135.9307   -9042.4247   -5428.7001    17118.181    13.125703 
    6550     812.8209   -9133.1849   -9042.5135   -2604.8793    17097.689    13.181886 
    6560    826.43905   -9134.7747   -9042.5842   -1578.7955    17074.488     13.23226 
    6570    828.95103    -9135.108   -9042.6373    -60.07199    17049.704    13.281077 
    6580    839.79686   -9136.3745   -9042.6939    1329.8053    17024.589    13.331301 
    6590    848.85234   -9137.4679   -9042.7771    2716.2066     17000.42    13.381108 
    6600    849.17677   -9137.6413   -9042.9144    3677.0548    16978.397    13.420818 
    6610    849.20994   -9137.8694   -9043.1387    3664.9327    16959.317    13.438759 
    6620    845.48649   -9137.7774   -9043.4621    3964.7325    16943.317    13.441845 
    6630    845.78592   -9138.2302   -9043.8815    4654.8196    16930.682    13.441405 
    6640    852.16064   -9139.4641   -9044.4043    5703.9981    16922.055    13.437149 
    6650    865.13605   -9141.5757   -9045.0685     5656.002    16918.241    13.421839 
    6660    839.29072   -9139.4771    -9045.853    5358.9021    16919.343    13.399303 
    6670    821.39954   -9138.3014    -9046.673    3868.7471    16925.046    13.376819 
    6680    833.95164   -9140.4903   -9047.4618    1713.0304    16934.186    13.349276 
    6690    851.04187   -9143.1529   -9048.2179    -323.7873    16944.963    13.313552 
    6700    853.20959   -9144.1386   -9048.9618   -1300.7565    16955.696    13.281534 
    6710    835.77428   -9142.8928   -9049.6609   -2125.0221    16965.431    13.262112 
    6720    831.42529   -9143.0426   -9050.2958   -3213.5279    16973.405    13.252655 
    6730    803.20332   -9140.4331   -9050.8346   -3879.4048    16978.701    13.252856 
    6740    790.57437   -9139.4343   -9051.2445   -4697.8483    16980.636    13.257559 
    6750    815.07761   -9142.4714   -9051.5482   -5406.4905    16978.458    13.263582 
    6760    821.65426   -9143.4631   -9051.8063   -4233.9497    16971.641    13.277361 
    6770    801.46321   -9141.4141   -9052.0097   -1749.2105    16961.094    13.303334 
    6780     807.2802   -9142.2011   -9052.1478    1198.9031    16948.867    13.341482 
    6790     816.5673   -9143.3107   -9052.2214    3786.3538    16937.486    13.381952 
    6800    839.58187    -9145.942   -9052.2854    4830.2876    16929.159    13.418091 
    6810    853.99672   -9147.6613   -9052.3967     4628.701    16924.866      13.4585 
    6820    849.61038   -9147.3469   -9052.5716    4328.7858    16924.562    13.507873 
    6830    818.98334    -9144.137   -9052.7782     3819.127    16928.066    13.563212 
    6840    808.52462   -9143.1636   -9052.9715    1893.0159    16934.894    13.616718 
    6850    827.05691     -9145.38   -9053.1205    409.20606    16943.563    13.663441 
    6860    829.94608   -9145.8181   -9053.2363   -451.05982    16952.782    13.703241 
    6870    827.00593   -9145.6142   -9053.3604   -855.62395      16961.8    13.739485 
    6880    801.19733   -9142.8619   -9053.4871   -411.29988    16970.278    13.773312 
    6890    781.61949   -9140.7695   -9053.5787    666.44653    16978.603    13.797795 
    6900    819.43715   -9145.0175    -9053.608   -778.42967    16987.445    13.811586 
    6910     843.5982   -9147.7281   -9053.6235   -2660.3548    16995.726    13.815364 
    6920    799.60185   -9142.8535   -9053.6567   -1895.7824    17002.051     13.79949 
    6930    816.94629   -9144.8234   -9053.6918   -1646.2373    17006.757    13.756718 
    6940    814.30437    -9144.549   -9053.7121   -781.91163    17010.147    13.700672 
    6950    793.18559   -9142.1933   -9053.7122    342.43762    17012.925    13.648215 
    6960    830.69306   -9146.3386   -9053.6736   -491.94464    17015.859    13.599893 
    6970    809.05915   -9143.8204   -9053.5686   -1073.3711    17018.445    13.556777 
    6980    808.03577   -9143.5424   -9053.4048   -1292.3664    17020.168    13.517953 
    6990    813.98936   -9143.9575   -9053.1557   -1285.1909    17020.787    13.483064 
    7000     821.4601   -9144.4705   -9052.8354    -628.7754    17020.345    13.445364 
    7010    845.40174   -9146.7649    -9052.459   -649.71567    17019.269    13.403474 
    7020     816.7099   -9143.1492    -9052.044    376.02306      17017.7    13.362669 
    7030    801.40504   -9140.9808   -9051.5829    1494.4001    17016.431    13.323461 
    7040    800.13891   -9140.2588   -9051.0021    2347.0543    17016.487    13.284477 
    7050    819.98088    -9141.766   -9050.2959     2076.062    17018.551    13.246643 
    7060    831.90965   -9142.2955   -9049.4947    1378.1308    17022.478    13.215666 
    7070     823.5846   -9140.5484   -9048.6763    1900.6436    17027.793    13.197067 
    7080    802.87971   -9137.4427   -9047.8802    3103.8193    17034.967    13.194544 
    7090     834.9137   -9140.2257   -9047.0898    2768.2134    17044.915     13.20108 
    7100    855.00865   -9141.7126   -9046.3351    2522.4247     17057.56    13.206963 
    7110    843.69155   -9139.8285   -9045.7135    2108.3077    17072.668    13.202816 
    7120    838.77131   -9138.7782    -9045.212    1410.0508     17089.94    13.184294 
    7130     847.4471   -9139.3326   -9044.7986    283.90898    17108.798    13.157569 
    7140    878.41705   -9142.4522   -9044.4634   -1775.6064    17128.198    13.128627 
    7150    870.84687   -9141.3928   -9044.2485   -3424.4792     17146.43    13.102105 
    7160    841.06512   -9137.9585   -9044.1365   -4267.9478    17162.007    13.087668 
    7170    855.92968   -9139.5734   -9044.0932    -4262.576    17174.065    13.089501 
    7180     838.6949    -9137.673   -9044.1154   -2344.8029    17182.648     13.10341 
    7190    836.77224   -9137.5289   -9044.1857   -496.86738    17189.253    13.124832 
    7200      841.835   -9138.1922   -9044.2842    578.19455    17195.464    13.145826 
    7210    851.76691   -9139.4323   -9044.4164     335.2638    17202.212    13.157725 
    7220    878.39677   -9142.5982   -9044.6117   -901.26197    17209.337    13.159048 
    7230    835.93101   -9138.1136   -9044.8643   -557.52314    17215.982    13.160075 
    7240    815.85299   -9136.1554   -9045.1458   -509.40617    17222.221    13.166527 
    7250    823.12537   -9137.2309     -9045.41   -1705.4739    17228.027    13.168139 
    7260    844.62826   -9139.8889   -9045.6694   -2783.6236    17232.446    13.165821 
    7270    845.71873   -9140.3086   -9045.9674   -2851.8024    17234.495    13.162498 
    7280    831.27865   -9139.0466   -9046.3162   -2095.2547    17234.041    13.159073 
    7290    817.68997   -9137.8736   -9046.6591    -835.8924     17231.74    13.158055 
    7300    852.59168   -9142.1141   -9047.0062   -638.67287    17228.539    13.157658 
    7310    866.71473   -9144.0955   -9047.4122   -160.58057    17224.724     13.15302 
    7320    825.74088   -9139.9716    -9047.859    1524.2174     17220.77    13.143354 
    7330     821.1035   -9139.8876   -9048.2923    2105.4197    17218.006    13.125541 
    7340    822.53716   -9140.4571   -9048.7019    1546.7034     17216.99    13.099691 
    7350    811.31516   -9139.5666   -9049.0632    1542.0743     17217.42    13.070505 
    7360    818.65827   -9140.6969   -9049.3743    1234.5812    17219.256    13.039599 
    7370    829.53981    -9142.195   -9049.6586    671.31465    17222.249     13.00902 
    7380    832.79209   -9142.8245   -9049.9252    92.588192    17225.959    12.985097 
    7390    834.70023   -9143.3148   -9050.2027   -1076.7642    17229.791    12.971533 
    7400    821.87451   -9142.1487   -9050.4673   -1170.3415    17232.845    12.967429 
    7410    832.69999   -9143.6038   -9050.7149   -1408.8937    17234.902    12.968604 
    7420    842.65192   -9144.9673   -9050.9682    -2001.799     17235.68    12.977893 
    7430    841.18652    -9145.072   -9051.2364   -1448.3796    17234.733    12.989538 
    7440    826.36183   -9143.6831   -9051.5012    844.05263    17232.599    12.997172 
    7450    812.56381   -9142.3683   -9051.7256     2502.289    17231.142    13.008226 
    7460    820.18383    -9143.408   -9051.9152     2255.288    17231.782    13.024081 
    7470    805.47476   -9141.9067   -9052.0547     2147.772    17234.547    13.030758 
    7480    824.32311    -9144.102   -9052.1475    1379.2395    17239.274    13.023258 
    7490    840.09242   -9145.9342   -9052.2206     1413.564    17245.472     13.01088 
    7500    827.50618   -9144.6107   -9052.3012    1348.6481    17253.102    13.001241 
    7510    836.03007   -9145.6536   -9052.3932    201.67377    17262.088    12.994361 
    7520    822.79784   -9144.2736   -9052.4892   -229.20876    17271.583    12.989207 
    7530     803.8434   -9142.2367   -9052.5668   -190.45317    17281.157    12.988105 
    7540    820.20354     -9144.09    -9052.595   -1210.0797      17290.7    12.990277 
    7550    829.62612    -9145.138   -9052.5919    -2202.108    17299.377    12.993914 
    7560    825.38118   -9144.6545   -9052.5819   -2169.0239    17306.337    13.004264 
    7570     829.7188   -9145.1386   -9052.5823   -2053.4519    17311.456    13.022415 
    7580    818.62566   -9143.9022   -9052.5833   -2319.5716    17314.746    13.040653 
    7590    820.58264    -9144.118   -9052.5808   -2673.3235    17315.982    13.058996 
    7600    809.12778   -9142.8323   -9052.5729   -2523.3312    17314.824    13.083694 
    7610    776.66127   -9139.1501   -9052.5124   -1805.8866    17311.353    13.111512 
    7620    829.79601   -9144.9687   -9052.4037    -2153.342    17306.008    13.132733 
    7630    832.83948   -9145.1817   -9052.2772   -972.03133    17298.711    13.151273 
    7640    813.18746   -9142.8787   -9052.1664   -314.73854    17290.334    13.167272 
    7650    849.36851   -9146.8061   -9052.0578   -1786.6347      17281.3    13.170544 
    7660    849.49595   -9146.7558   -9051.9933   -1759.5395    17270.554    13.163126 
    7670    821.97891   -9143.6559   -9051.9629    174.16476    17258.138    13.155322 
    7680    848.95159   -9146.6483   -9051.9465    1512.0798    17245.509    13.156399 
    7690    849.27287   -9146.6963   -9051.9587    3131.9949    17234.012    13.165497 
    7700    851.27885   -9146.9965   -9052.0351    3662.5844    17225.038    13.181237 
    7710    842.12076   -9146.1251   -9052.1852    3265.2451    17219.157    13.203494 
    7720    805.76738   -9142.2552   -9052.3707    2698.8175    17216.138    13.225386 
    7730    812.41998    -9143.172   -9052.5454    1675.7574    17215.476    13.238166 
    7740    832.35258   -9145.5579   -9052.7077    756.46873    17216.331    13.244721 
    7750    822.20638    -9144.591   -9052.8726    219.65893    17217.928    13.246827 
    7760    835.83285   -9146.3007   -9053.0623   -926.86516    17219.683    13.241542 
    7770    842.13964   -9147.2461   -9053.3042   -1486.7925    17220.694    13.233314 
    7780    819.68738   -9145.0509   -9053.6135   -1301.2685    17220.429    13.230719 
    7790    809.15104   -9144.2318   -9053.9698   -764.33007    17219.002     13.23665 
    7800    803.45136     -9143.97   -9054.3438   -1044.6514    17216.782    13.249975 
    7810     814.1773   -9145.5736   -9054.7509   -1774.9623    17213.546    13.267306 
    7820    811.47257    -9145.731     -9055.21   -2038.3397    17208.672    13.290266 
    7830    829.20276   -9148.2413   -9055.7424   -2099.8722     17201.88    13.327982 
    7840    838.83367    -9149.984   -9056.4108   -2133.0194    17193.048     13.38701 
    7850    801.63092   -9146.6017   -9057.1786   -1543.3638    17182.165    13.462648 
    7860    800.44573   -9147.2685   -9057.9775   -1846.0702    17169.598    13.546068 
    7870    804.70295   -9148.5534   -9058.7876   -1040.1456    17155.252    13.637352 
    7880    783.57785   -9146.9441   -9059.5348    543.04497    17139.812    13.737765 
    7890    797.39117   -9149.1325   -9060.1823    450.05407     17124.48    13.841259 
    7900    787.48318   -9148.5666   -9060.7217    602.05321    17109.373    13.940241 
    7910    775.40485   -9147.6133   -9061.1157    1803.8108    17094.736    14.033166 
    7920    819.10194     -9152.75    -9061.378    2454.8815    17081.523    14.121892 
    7930    835.44495   -9154.7894   -9061.5942    3124.3181    17070.376    14.203468 
    7940    808.43694   -9151.9955   -9061.8132     4369.319    17062.006    14.275926 
    7950    806.17189   -9151.9286   -9061.9989    3326.5683    17057.285    14.344273 
    7960    817.48417   -9153.3457   -9062.1541    1227.2647    17055.412    14.413499 
    7970    772.47275   -9148.4281   -9062.2576    756.02126    17054.781    14.474817 
    7980    780.07602   -9149.3163   -9062.2977     211.6419    17054.804    14.514039 
    7990    802.33001   -9151.7694   -9062.2683   -995.34661    17054.969    14.535472 
    8000    786.88313   -9149.9663   -9062.1883   -1892.7704    17054.302    14.546472 
    8010    805.92317    -9151.959    -9062.057   -3435.9961    17051.868    14.551554 
    8020    807.96595   -9152.0005   -9061.8707   -4087.6316    17046.446    14.562331 
    8030    801.34705   -9151.0472   -9061.6557   -4494.1914    17037.386    14.587385 
    8040    820.97852   -9152.9893   -9061.4079   -5676.1253    17024.228     14.62188 
    8050    812.31049   -9151.7521   -9061.1376   -5345.5083    17006.113     14.65766 
    8060    804.22611    -9150.543   -9060.8304   -4221.8584    16983.258    14.692259 
    8070    804.63314   -9150.1948   -9060.4368   -2229.6659    16956.666    14.728676 
    8080    801.48276   -9149.3191   -9059.9125    742.06785    16928.104    14.763801 
    8090    824.44261   -9151.2231   -9059.2553    2298.3409    16899.993    14.795095 
    8100    843.56441   -9152.6147   -9058.5138    3387.4102    16873.799    14.831026 
    8110    848.94763   -9152.4573   -9057.7559    4109.1273    16850.457    14.870736 
    8120    866.10866   -9153.6623   -9057.0466    4653.0325    16830.597     14.91036 
    8130    836.30625   -9149.6966   -9056.4054    6472.2958    16814.834    14.956202 
    8140    816.43323   -9146.9017   -9055.8274    8673.3815    16804.678    15.009491 
    8150    816.20896   -9146.3332   -9055.2839    8950.4749    16801.817     15.05752 
    8160    828.76772   -9147.2233    -9054.773    7207.3911    16806.534    15.093358 
    8170    855.57927   -9149.7556   -9054.3145    3411.4546    16817.296    15.119811 
    8180     839.1558   -9147.5365   -9053.9274    940.23783    16831.161    15.141956 
    8190    819.59747   -9145.0482   -9053.6209   -479.85501    16845.976    15.165006 
    8200    828.90833   -9145.7971   -9053.3311   -2474.5019    16860.371    15.190641 
    8210    846.44197   -9147.5052   -9053.0833   -3521.5126    16872.737    15.222131 
    8220    852.31002   -9148.0065     -9052.93     -3863.06     16882.09    15.261302 
    8230    845.69397   -9147.1677   -9052.8293    -4101.899    16888.127    15.310114 
    8240    864.03208   -9149.1613   -9052.7772   -5210.4699    16890.526    15.371018 
    8250    831.32633    -9145.514   -9052.7783   -4694.3699    16888.583    15.438294 
    8260    817.92326   -9144.0337   -9052.7932   -4394.6846    16882.556    15.497471 
    8270    848.57691   -9147.4826   -9052.8226   -4750.2317    16872.668    15.545114 
    8280    836.22984     -9146.18   -9052.8973    -2953.263    16858.886    15.592332 
    8290    813.04756   -9143.6732   -9052.9765   -622.20017    16842.624    15.643369 
    8300    819.54935   -9144.4506   -9053.0286     340.4843    16825.771    15.690508 
    8310    823.93578   -9144.9662    -9053.055     663.5888    16809.212    15.725435 
    8320    837.62737   -9146.5055   -9053.0669    842.80505    16793.248    15.748298 
    8330    862.29953   -9149.3059   -9053.1151    1246.1638    16778.056    15.762718 
    8340     847.9456   -9147.8155   -9053.2259    2444.6707    16764.035    15.769784 
    8350    846.33326   -9147.8056   -9053.3958    3416.5237    16752.122    15.774999 
    8360    854.43531   -9148.9303   -9053.6168    4490.6213    16743.179    15.783136 
    8370    840.71589   -9147.6699   -9053.8868    5713.0357    16738.118    15.786066 
    8380    835.13804   -9147.3529    -9054.192    5868.8433    16737.878    15.771446 
    8390    847.00337   -9149.0138   -9054.5293    3834.9161    16742.478    15.734786 
    8400    860.10318   -9150.8648    -9054.919    915.29278    16750.271    15.683101 
    8410    843.47222   -9149.4537   -9055.3631   -463.83385    16758.988    15.627685 
    8420    823.07106   -9147.6472   -9055.8324   -936.48848    16767.361    15.577104 
    8430    814.30345   -9147.1296   -9056.2928   -1515.2513    16774.922    15.539957 
    8440    804.99447   -9146.5108   -9056.7125   -2063.5785    16781.228    15.515985 
    8450    812.64264   -9147.7402   -9057.0887   -3100.3653    16785.705    15.497046 
    8460    816.94669   -9148.5703   -9057.4387   -3435.1071     16787.57    15.478245 
    8470    808.42818   -9147.9523   -9057.7709   -2964.4821     16786.56    15.460717 
    8480    813.07261   -9148.7758   -9058.0763   -2642.4263    16782.997    15.454897 
    8490    819.98087   -9149.8246   -9058.3545     -1931.41    16777.223    15.468298 
    8500    800.83106    -9147.899   -9058.5651   -1099.5282    16769.825    15.492273 
    8510    825.85799   -9150.8657     -9058.74   -1233.2539    16761.394    15.516223 
    8520    821.28093   -9150.5124   -9058.8973    346.32251    16752.076    15.544132 
    8530    800.99516   -9148.3802    -9059.028    2833.4988     16743.15    15.572607 
    8540    827.14434   -9151.3946   -9059.1254    3605.2405    16736.534    15.594058 
    8550    846.67546    -9153.685   -9059.2371    3887.9312    16732.982    15.606872 
    8560    812.39366   -9150.0072   -9059.3835    4154.0451    16732.761    15.612276 
    8570    828.42711   -9151.9624   -9059.5501    2447.4077    16735.937    15.614804 
[...]
   22890    850.15191   -9175.3986   -9080.5629    2758.0226    17211.547     21.05092 
   22900    817.37624   -9171.4756    -9080.296    1266.6054      17212.1    21.072504 
   22910    811.52404   -9170.5382   -9080.0115   -496.47946    17213.787      21.1098 
   22920    833.32478   -9172.6218   -9079.6632   -1461.1497     17215.12    21.157274 
   22930    820.61026   -9170.8159   -9079.2756   -562.08497    17215.326    21.205581 
   22940    828.93277   -9171.3281   -9078.8594   -310.60152    17214.967     21.24708 
   22950    850.80638   -9173.3087   -9078.3999   -799.49059    17214.258    21.280671 
   22960    837.30541   -9171.3388   -9077.9361   -502.61987    17212.882    21.311188 
   22970    836.67933   -9170.8401   -9077.5073    201.70455    17211.072    21.337187 
   22980    839.51496   -9170.7553   -9077.1061    539.73672    17209.397    21.355121 
   22990    851.71385   -9171.7453   -9076.7353     394.3705    17208.157    21.373573 
   23000    839.36521   -9170.0393   -9076.4068      387.385    17207.293    21.404998 
   23010    830.85786   -9168.7916   -9076.1082   -274.52193    17206.712    21.446486 
   23020    844.30868   -9169.9905   -9075.8066   -1030.5682    17205.869      21.4893 
   23030     868.7772   -9172.4501   -9075.5367   -1162.9444     17204.13    21.528059 
   23040    854.89267   -9170.6977   -9075.3332   -1075.4899    17201.364       21.561 
   23050    834.39788    -9168.278   -9075.1997   -2584.0814    17197.443    21.586761 
   23060    833.95678   -9168.1248   -9075.0957   -3719.8208    17191.173     21.60965 
   23070    822.93306   -9166.7944    -9074.995   -2328.8149    17181.703    21.631653 
   23080    826.82104   -9167.1054   -9074.8723   -710.70429    17170.056    21.649955 
   23090    859.14796   -9170.5822    -9074.743   -155.06276    17157.563    21.666767 
   23100    836.59942   -9167.9654   -9074.6415    981.78136    17144.885    21.689104 
   23110     835.8433   -9167.8085   -9074.5689    858.67585    17132.862    21.717533 
   23120    860.97646   -9170.5626   -9074.5193   -613.21648    17121.386    21.749697 
   23130    865.68315   -9171.1084   -9074.5401   -752.83282    17109.359    21.783245 
   23140    863.34768   -9170.9621   -9074.6543     294.4754    17096.629    21.816545 
   23150    859.35036   -9170.7327   -9074.8709    854.28083     17083.99    21.847289 
   23160    867.81075   -9172.0316    -9075.226    2093.6536    17072.047    21.874451 
   23170    850.21362    -9170.571   -9075.7284    3695.9116    17061.884    21.898645 
   23180    834.09838   -9169.3942   -9076.3493    4306.8764    17054.845    21.923774 
   23190    845.46121   -9171.3924   -9077.0799    3930.4495    17051.494    21.950314 
   23200    821.33656   -9169.4997   -9077.8784    3617.4957    17051.638     21.98291 
   23210    828.39083   -9171.0975   -9078.6892     1996.773    17054.903    22.021559 
   23220    823.50895   -9171.3431   -9079.4794   -545.73935    17059.905    22.059059 
   23230     801.7891   -9169.6338    -9080.193   -820.34635    17064.677    22.093297 
   23240    819.20375   -9172.1978   -9080.8144    74.013133    17068.881    22.125478 
   23250    847.67825   -9175.9498     -9081.39   -318.53646    17073.075    22.156644 
   23260     834.2182   -9175.0142   -9081.9559   -618.60604    17077.061     22.18356 
   23270    778.96271   -9169.3259   -9082.4314   -1552.1552    17080.516     22.19509 
   23280    817.44204     -9173.99   -9082.8031   -4242.3105     17082.46    22.187443 
   23290    838.78498   -9176.7071   -9083.1394   -5491.0561    17080.747    22.177665 
   23300    801.21073   -9172.8357   -9083.4594   -4432.6035    17074.294    22.180638 
   23310    816.55137   -9174.8262   -9083.7387   -3231.7523      17063.8     22.19856 
   23320    819.49097   -9175.3905    -9083.975   -1388.0309    17050.359    22.227485 
   23330    799.65057   -9173.3652    -9084.163    1042.3351    17035.583    22.257167 
   23340    793.96106    -9172.843   -9084.2754    1952.2507    17021.449    22.281491 
   23350    816.41838   -9175.4122   -9084.3395     1355.152    17008.743    22.306316 
   23360    812.64708   -9175.0312   -9084.3792    2304.4447    16997.256    22.342427 
   23370    786.42659   -9172.1098   -9084.3827    2999.6782    16987.624    22.390206 
   23380    785.62464   -9171.9463   -9084.3087    2366.5814    16980.418    22.442733 
   23390     815.0703   -9175.0862   -9084.1639    1288.0969    16975.197      22.4942 
   23400    788.49784   -9171.9239   -9083.9658    976.89032    16971.104    22.533736 
   23410    756.39326   -9168.0582   -9083.6814     771.9427    16967.835    22.549387 
   23420    808.87112   -9173.4969   -9083.2661   -476.41335    16965.137    22.537761 
   23430    837.31156   -9176.1608   -9082.7574   -1045.9504    16962.044    22.505767 
   23440    822.81574   -9174.0467   -9082.2603    559.97677    16958.188    22.470448 
   23450    811.90596   -9172.3391   -9081.7698    2299.6706    16954.782    22.446204 
   23460    822.32146    -9172.995   -9081.2638    2860.3775    16953.273    22.429265 
   23470    821.53764   -9172.3958    -9080.752    2029.6005    16954.176    22.409372 
   23480    818.12979   -9171.5138   -9080.2502     360.5927    16956.814    22.384952 
   23490    837.23661   -9173.1571   -9079.7621   -886.47935     16959.85    22.359034 
   23500    836.09779   -9172.5872   -9079.3192   -696.59939    16962.269    22.335225 
   23510    815.53535   -9169.9014   -9078.9272   -331.00079    16964.111    22.314658 
   23520    827.34513    -9170.838   -9078.5464   -638.95623    16965.648    22.294773 
   23530    831.22813   -9170.8911   -9078.1664   -923.51509    16966.644     22.28112 
   23540    817.05213   -9168.9495   -9077.8061   -860.03074    16966.885    22.276339 
   23550    827.06451   -9169.7231   -9077.4629   -874.47427    16966.387    22.275628 
   23560    830.11444   -9169.7445    -9077.144   -592.56079    16965.149    22.271636 
   23570    817.27713   -9168.0426   -9076.8741   -462.75834    16963.366    22.263658 
   23580    808.91458   -9166.8671   -9076.6315   -970.62382    16961.119    22.269036 
   23590    840.29802   -9170.1447   -9076.4082   -1771.5338    16957.979    22.301895 
   23600    846.24256   -9170.6429   -9076.2433   -2069.5062    16953.265    22.361535 
   23610    814.17076   -9166.9458   -9076.1239   -1056.0736    16946.799    22.440754 
   23620    854.93133   -9171.3989     -9076.03   -85.952667    16939.331    22.524046 
   23630     857.6363   -9171.6513   -9075.9807    1329.7931    16931.739    22.598706 
   23640    808.48573   -9166.1676   -9075.9798    2922.5356    16925.246    22.661509 
   23650    812.00484   -9166.5558   -9075.9754    2443.0774    16921.084     22.71216 
   23660    836.51779   -9169.2605   -9075.9457    734.35129    16918.915    22.757965 
   23670    841.52102   -9169.7934   -9075.9205    538.74141     16917.49    22.810303 
   23680    817.42507   -9167.0974   -9075.9124    1829.5181     16916.64    22.874127 
   23690    805.31927   -9165.7169   -9075.8823    2158.9286    16917.321    22.942248 
   23700    850.06722   -9170.6549   -9075.8287    248.44011    16919.702    23.002585 
   23710    840.19757   -9169.5117   -9075.7864   -714.71003    16922.406    23.046848 
   23720    831.96117   -9168.5927   -9075.7862   -1102.2971    16924.545    23.070367 
   23730    840.96966   -9169.6324    -9075.821   -1737.7408    16925.716    23.078074 
   23740    849.38082   -9170.6946   -9075.9448   -2099.8288    16925.397    23.075437 
   23750    829.92828    -9168.746   -9076.1662    -1913.422    16923.283    23.057885 
   23760    823.36042   -9168.2841    -9076.437   -2252.0348    16919.422    23.013479 
   23770    820.24162   -9168.1671   -9076.6679    -2378.078    16913.619    22.939481 
   23780    847.38842   -9171.3837   -9076.8563   -3008.4455    16905.654    22.847161 
   23790    861.42794   -9173.1605   -9077.0669    -3300.993    16895.069    22.750721 
   23800    837.32996   -9170.7427   -9077.3373   -3383.1084    16881.605    22.659126 
   23810     837.5701   -9171.0581   -9077.6259   -3467.6668    16865.186    22.575334 
   23820    829.17737   -9170.3766   -9077.8806   -2520.4482     16845.86    22.502561 
   23830    824.54607    -9170.047   -9078.0677    -242.6524    16824.519    22.441596 
   23840    831.44282    -9170.922   -9078.1733    1800.1357    16803.018     22.38545 
   23850     830.0414   -9170.8299   -9078.2375    3717.8905    16783.182    22.323093 
   23860     813.1453   -9169.0002   -9078.2927    5381.1634    16766.638    22.256698 
   23870    810.48262   -9168.7634   -9078.3528    6537.7954    16754.764    22.200943 
   23880     820.2107   -9169.9326   -9078.4369    7093.4179    16748.489    22.167297 
   23890    827.64629   -9170.8867   -9078.5615    7087.5076    16748.274    22.158141 
   23900     855.9525   -9174.2604   -9078.7776    5921.1863    16753.989    22.173588 
   23910    828.28646   -9171.4731   -9079.0765    5954.6305    16764.847    22.207698 
   23920    805.99641   -9169.3184   -9079.4083    6059.9585    16780.756    22.250746 
   23930    818.79969   -9171.0533   -9079.7149    4195.6169    16801.623    22.299271 
   23940    818.98685   -9171.3027   -9079.9435    1012.5787    16825.878    22.356764 
   23950    817.82351   -9171.3069   -9080.0775   -1231.5882    16850.939    22.424306 
   23960    808.09151   -9170.2756   -9080.1318   -3069.4927     16874.79     22.49801 
   23970    818.53918   -9171.4242    -9080.115   -5340.1197    16895.719    22.570599 
   23980    812.56826   -9170.6797   -9080.0365   -6579.4058    16911.901    22.637538 
   23990    798.22692   -9168.9601   -9079.9167   -7386.2051      16922.2    22.701335 
   24000    807.75321   -9169.8837   -9079.7776   -7246.9267    16926.026    22.770625 
   24010    808.23546   -9169.7872   -9079.6273   -5800.1121    16923.624    22.849964 
   24020    815.96641   -9170.4833    -9079.461   -3765.1998    16916.279    22.929465 
   24030    827.32198   -9171.5737   -9079.2847   -1608.7155     16905.81    22.992402 
   24040    835.08992   -9172.2915    -9079.136   -92.274229    16894.033    23.030503 
   24050     810.1222   -9169.3768   -9079.0064    1847.9431    16882.402    23.045339 
   24060    825.07619   -9170.9144   -9078.8759    2459.4394    16872.421    23.043825 
   24070    842.05199   -9172.6935   -9078.7614     2575.564     16864.68    23.032431 
   24080    819.14817    -9170.045   -9078.6677    2696.2382    16859.285     23.00852 
   24090    856.59498   -9174.1548   -9078.6004    1118.7504    16856.119    22.967032 
   24100    849.58767   -9173.3546   -9078.5818    1301.0761    16854.109     22.91533 
   24110     802.3318   -9168.0895   -9078.5882    2308.6433    16853.314    22.862253 
   24120      843.798   -9172.7082   -9078.5812    733.89803    16854.314    22.808514 
   24130    858.23391   -9174.3316   -9078.5943   -309.51555    16855.986    22.754971 
   24140    819.08791   -9170.0304     -9078.66    1035.0837    16857.559    22.703315 
   24150    827.76678   -9171.0682   -9078.7295    1084.4249    16859.903    22.654364 
   24160    847.86725    -9173.382   -9078.8011   -260.07144    16863.011    22.611648 
   24170    822.32661   -9170.6193   -9078.8875   -166.63374    16865.987    22.575502 
   24180    812.42219   -9169.5795   -9078.9526   -318.90885    16868.791     22.54378 
   24190    858.88844   -9174.8228   -9079.0125   -2480.0933    16871.096    22.520618 
   24200    849.34018   -9173.8704   -9079.1252   -3389.1064    16871.364    22.515007 
   24210    811.56544   -9169.8016   -9079.2703   -3292.0153    16868.775    22.529116 
   24220    830.75557   -9172.0801   -9079.4081   -2399.2076    16863.416    22.559817 
   24230    813.04938   -9170.1962   -9079.4993    422.13692    16856.239    22.605688 
   24240    835.99278   -9172.8259   -9079.5696    2275.4199    16849.423    22.655785 
   24250    841.69887   -9173.5354   -9079.6426    3075.4324    16844.557    22.699291 
   24260    817.17259   -9170.8716   -9079.7148    4059.0355    16842.422    22.728721 
   24270    792.67865   -9168.1625    -9079.738    3932.6787    16843.715    22.745521 
   24280    801.09319   -9169.0619   -9079.6988    2464.0234    16848.287    22.761268 
   24290    816.85359   -9170.7327   -9079.6114    688.60167    16854.904    22.779234 
   24300    811.76253   -9170.0489   -9079.4955   -242.79558    16862.113    22.794983 
   24310    821.37358   -9170.9973   -9079.3719   -580.97139    16869.093    22.804579 
   24320    808.35806   -9169.4073   -9079.2337   -606.52924    16875.558    22.810844 
   24330    812.53837   -9169.7221   -9079.0822    -1237.564    16881.393    22.820919 
   24340    813.36046   -9169.6307   -9078.8992   -1397.0638    16886.176    22.835682 
   24350    833.21991   -9171.6447   -9078.6978   -1787.5389    16889.674    22.846218 
   24360    850.29796   -9173.3566   -9078.5046   -1319.1229    16891.666    22.843581 
   24370    841.16062   -9172.1875   -9078.3547   -784.45616     16892.51    22.822765 
   24380     849.7458   -9173.0569   -9078.2664   -1297.7312    16892.604    22.785761 
   24390    826.80438   -9170.4607   -9078.2294   -2366.1449    16891.509    22.745893 
   24400       805.45   -9168.0506   -9078.2014   -2548.1534    16888.466    22.719375 
   24410    827.51374   -9170.4487   -9078.1383   -1815.9112    16883.317    22.708013 
   24420    844.95845   -9172.3302   -9078.0738    261.27967    16876.739    22.706028 
   24430    810.35366   -9168.4197   -9078.0236    2767.3189    16870.481    22.710726 
   24440    797.91384   -9166.9609   -9077.9525    3763.7575    16866.565     22.71148 
   24450    836.73976   -9171.1868   -9077.8472    3263.2965    16865.835    22.686233 
   24460     868.3276   -9174.6289   -9077.7657    2346.8986    16867.881    22.621865 
   24470    855.30822   -9173.1655   -9077.7546    2178.3809    16872.013    22.535028 
   24480     826.3446    -9169.963    -9077.783    2635.5209     16878.06    22.446376 
   24490    816.07661   -9168.8392   -9077.8046    2419.9457    16886.307    22.371712 
   24500    833.35759   -9170.7871   -9077.8248     1001.281    16896.508    22.320745 
   24510    830.80692   -9170.5458    -9077.868    -169.6183    16907.568    22.293134 
   24520    818.18048   -9169.1978   -9077.9286   -1299.6697     16918.43    22.278847 
   24530    814.24363   -9168.7943   -9077.9642   -2705.5396    16928.089    22.273612 
   24540    824.45597   -9169.9501   -9077.9808   -3789.6355    16935.352    22.281186 
   24550    812.51784   -9168.6281   -9077.9905    -3365.502    16939.407    22.301756 
   24560    814.86367   -9168.8873    -9077.988   -2924.5413    16940.498     22.32903 
   24570    850.50571    -9172.862   -9077.9868   -2385.7649    16939.039    22.360219 
   24580    843.91323   -9172.1639   -9078.0241   -1474.6724    16935.545    22.392551 
   24590    831.96948    -9170.911   -9078.1036   -443.65663    16930.805    22.414688 
   24600    841.52139   -9172.0965   -9078.2235    1340.2189    16925.791    22.420338 
   24610    829.42508    -9170.906   -9078.3824     3195.523    16921.995    22.411775 
   24620    830.77291   -9171.2589   -9078.5849     3279.588    16920.853    22.392035 
   24630    839.65158   -9172.5063   -9078.8419    2182.9847    16922.482    22.371664 
   24640     831.2775   -9171.8747   -9079.1445    703.01629    16925.977    22.362459 
   24650    839.86762   -9173.1707   -9079.4822   -708.37848    16930.059    22.366224 
   24660    849.18379   -9174.6133   -9079.8856    -522.9913    16933.631    22.370835 
   24670    828.64794   -9172.7923   -9080.3554    897.91481    16936.819    22.368675 
   24680    821.06001   -9172.4466   -9080.8561    1750.3538    16940.735    22.366518 
   24690    837.16831   -9174.7702   -9081.3829     1056.927    16946.016    22.369626 
   24700    820.26741   -9173.4413   -9081.9393    502.68613    16952.224    22.375007 
   24710    803.73447    -9172.144   -9082.4862   -231.81217    16958.839    22.378248 
   24720    811.28242   -9173.4981   -9082.9984      -1494.5    16965.169    22.377698 
   24730    823.09227   -9175.3131   -9083.4959   -2048.5212    16970.228    22.373141 
   24740    805.48356   -9173.8261   -9083.9732   -1840.7953    16973.522    22.367225 
   24750     785.7713   -9172.0464   -9084.3924   -484.14414    16975.291    22.362491 
   24760    780.12261   -9171.7284   -9084.7046    390.12418    16976.574    22.353604 
   24770    816.57455   -9176.0256   -9084.9355    16.075277    16978.093    22.328666 
   24780    827.02322   -9177.3972   -9085.1415   -1041.3297    16979.572     22.28714 
   24790     812.3052   -9175.9674   -9085.3535   -1554.5024    16980.184    22.238507 
   24800    803.31426   -9175.1669    -9085.556   -1903.4834    16979.437    22.189614 
   24810    813.92078   -9176.5333   -9085.7392    -2424.537    16977.032    22.144894 
   24820    823.68875   -9177.8107    -9085.927   -2892.8463    16972.504    22.106864 
   24830    796.21796   -9174.9063    -9086.087   -2042.6423    16965.562    22.074991 
   24840    787.80634   -9174.0552   -9086.1742   -326.03397    16956.936    22.044844 
   24850    798.28033   -9175.2246   -9086.1752    2513.4172    16948.141    22.014829 
   24860    797.23682   -9175.0219   -9086.0889    6116.0488    16941.642    21.983895 
   24870    787.03634   -9173.7005   -9085.9054    7937.2609    16940.377    21.943361 
   24880    778.75264   -9172.4887   -9085.6176    6567.0973    16945.796    21.888996 
   24890    787.70199   -9173.0657   -9085.1964    3122.4466    16956.755    21.832832 
   24900    820.46399   -9176.1397   -9084.6157   -568.67273    16970.351    21.786702 
   24910    832.61589    -9176.798   -9083.9185   -2418.6429    16983.519    21.752809 
   24920    813.96621   -9173.9632    -9083.164   -2462.8291    16994.641    21.733332 
   24930    803.77855   -9172.0197    -9082.357   -2588.1679    17003.548    21.731612 
   24940    805.75295   -9171.3503   -9081.4673   -2553.0708    17010.156    21.744866 
   24950    810.78712   -9170.9802   -9080.5357   -1412.5038     17014.56    21.765544 
   24960    815.25601   -9170.5674   -9079.6244   -476.40476    17017.692    21.792449 
   24970    827.03635    -9171.056   -9078.7988   -946.69597    17020.276    21.826988 
   24980    818.58998   -9169.4324   -9078.1174   -1511.1813    17022.014    21.869967 
   24990    829.22112   -9170.0926   -9077.5917   -1221.2298    17022.493    21.924595 
   25000    825.40934   -9169.2639   -9077.1883   -374.18011    17021.932    21.988254 
Loop time of 13700.3 on 16 procs for 20000 steps with 864 atoms

Performance: 0.126 ns/day, 190.282 hours/ns, 1.460 timesteps/s
96.3% CPU use with 16 MPI tasks x 1 OpenMP threads

MPI task timing breakdown:
Section |  min time  |  avg time  |  max time  |%varavg| %total
---------------------------------------------------------------
Pair    | 2242.1     | 7716.8     | 13125      |4725.3 | 56.33
Bond    | 0.002243   | 0.0053877  | 0.0094874  |   2.8 |  0.00
Neigh   | 0.12767    | 0.38354    | 0.63514    |  32.3 |  0.00
Comm    | 40.977     | 4667.2     | 10679      |5067.6 | 34.07
Output  | 1.4173     | 1.4435     | 1.8234     |   8.2 |  0.01
Modify  | 531.37     | 1314.4     | 3634.4     |3234.9 |  9.59
Other   |            | 0.1035     |            |       |  0.00

Nlocal:        54.0000 ave          85 max          18 min
Histogram: 4 2 0 0 0 1 1 1 5 2
Nghost:        551.875 ave         775 max         327 min
Histogram: 2 0 4 0 0 3 3 2 0 2
Neighs:         0.00000 ave           0 max           0 min
Histogram: 16 0 0 0 0 0 0 0 0 0
FullNghs:      3102.00 ave        5794 max         479 min
Histogram: 6 0 0 0 1 1 0 4 2 2

Total # of neighbors = 49632
Ave neighs/atom = 57.444444
Ave special neighs/atom = 0.0000000
Neighbor list builds = 2000
Dangerous builds = 2000
Total wall time: 4:49:33
