LAMMPS (29 Sep 2021 - Update 3)
OMP_NUM_THREADS environment is not set. Defaulting to 1 thread. (src/comm.cpp:98)
  using 1 OpenMP thread(s) per MPI task
units	metal
atom_style	full

read_data	mixed.data
Reading data file ...
  orthogonal box = (0.0000000 0.0000000 0.0000000) to (15.502212 15.402052 70.841525)
  2 by 1 by 8 MPI processor grid
  reading atoms ...
  864 atoms
Finding 1-2 1-3 1-4 neighbors ...
  special bond factors lj:    0        0        0       
  special bond factors coul:  0        0        0       
     0 = max # of 1-2 neighbors
     0 = max # of 1-3 neighbors
     0 = max # of 1-4 neighbors
     1 = max # of special neighbors
  special bonds CPU = 0.001 seconds
  read_data CPU = 0.009 seconds

pair_style	quip
pair_coeff	* * /ocean/projects/cts180021p/wuziqi/clease/mint-PD/PhaseDiagram-Clease/Liquid/GAP_potential/gap_LiKCl.xml "Potential xml_label=GAP_2021_9_27_0_1_17_37_618" 17 19 3

neighbor	0.3 bin
neigh_modify	delay 10

timestep	0.001
compute	msd all msd
thermo_style	custom step temp pe etotal press vol c_msd[4]
thermo	10
dump	1 all custom 10 xyz-mix.dump type id x y z
dump	2 all custom 10 force-mix.dump type id fx fy fz

fix     1 all nve
run     2000
Neighbor list info ...
  update every 1 steps, delay 10 steps, check yes
  max neighbors/atom: 2000, page size: 100000
  master list distance cutoff = 6.22
  ghost atom cutoff = 6.22
  binsize = 3.11, bins = 5 5 23
  1 neighbor lists, perpetual/occasional/extra = 1 0 0
  (1) pair quip, perpetual
      attributes: full, newton on
      pair build: full/bin
      stencil: full/bin/3d
      bin: standard
Per MPI rank memory allocation (min/avg/max) = 8.904 | 8.909 | 8.916 Mbytes
Step Temp PotEng TotEng Press Volume c_msd[4] 
       0            0   -6414.6092   -6414.6092   -8996.9866    16914.539            0 
      10    95.860065   -6425.3161   -6414.6228   -10882.275    16914.539 0.00077933166 
      20    229.03731    -6440.185   -6414.6355   -12475.142    16914.539 0.0093775226 
      30    249.34477   -6442.4428    -6414.628     -10213.3    16914.539  0.030212741 
      40    248.24655    -6442.315   -6414.6227   -8336.8682    16914.539  0.053808265 
      50    285.14769    -6446.437   -6414.6283   -8615.1952    16914.539  0.072000809 
      60    292.72184   -6447.2808   -6414.6272   -9342.9381    16914.539  0.087153748 
      70    280.17142   -6445.8771   -6414.6236   -9869.2499    16914.539   0.10198109 
      80    281.19207   -6445.9951   -6414.6277    -10294.65    16914.539   0.11798926 
      90    268.26029   -6444.5494   -6414.6246   -9784.8729    16914.539   0.13582886 
     100    263.60742   -6444.0319   -6414.6261   -9260.1077    16914.539   0.15297691 
     110    266.81408   -6444.3885    -6414.625   -9324.2282    16914.539   0.16905869 
     120    277.26539   -6445.5556   -6414.6262   -9888.0881    16914.539    0.1846357 
     130    285.07553   -6446.4267   -6414.6261    -10213.05    16914.539   0.20084172 
     140    284.14138   -6446.3223   -6414.6259   -10193.515    16914.539   0.21791648 
     150    279.03191   -6445.7517   -6414.6253   -10301.408    16914.539   0.23440376 
     160    280.06863   -6445.8685   -6414.6264   -10527.708    16914.539   0.24944995 
     170    273.73993   -6445.1618   -6414.6257   -10301.134    16914.539   0.26342452 
     180    268.00203    -6444.521   -6414.6249   -9641.2173    16914.539    0.2755889 
     190    273.83964   -6445.1737   -6414.6265   -9293.2599    16914.539   0.28642792 
     200    272.45085   -6445.0193    -6414.627   -9401.3798    16914.539   0.29775171 
     210    266.52225   -6444.3555   -6414.6245    -9739.952    16914.539   0.30975692 
     220    277.26483   -6445.5568   -6414.6275   -10274.008    16914.539   0.32155584 
     230    271.03398   -6444.8608   -6414.6265   -10197.129    16914.539   0.33326886 
     240    256.99297   -6443.2921   -6414.6241   -9796.9787    16914.539   0.34420392 
     250      260.518   -6443.6868   -6414.6256   -10082.712    16914.539   0.35319632 
     260    269.24542   -6444.6609   -6414.6262   -10817.477    16914.539   0.36024544 
     270    272.22344   -6444.9933   -6414.6263   -11178.931    16914.539   0.36660869 
     280    269.37878   -6444.6751   -6414.6255   -10808.686    16914.539   0.37346839 
     290    271.00389   -6444.8563   -6414.6254   -10344.777    16914.539   0.38086972 
     300    276.76784   -6445.4999    -6414.626   -10017.839    16914.539   0.38795838 
     310    280.46562   -6445.9129   -6414.6265   -10033.139    16914.539    0.3941169 
     320    277.07214   -6445.5343   -6414.6265   -10046.112    16914.539   0.40018262 
     330    269.95649   -6444.7383   -6414.6242   -9805.4895    16914.539   0.40670818 
     340    277.76904    -6445.612   -6414.6265   -9619.6934    16914.539   0.41197492 
     350    285.05274   -6446.4248   -6414.6267   -9485.1667    16914.539   0.41648156 
     360    281.88575   -6446.0712   -6414.6264   -9140.4937    16914.539   0.42146503 
     370    274.53044   -6445.2493    -6414.625    -8962.175    16914.539   0.42701601 
     380    276.18295   -6445.4346    -6414.626   -9426.8139    16914.539   0.43273687 
     390    277.57134   -6445.5897   -6414.6262   -10070.673    16914.539   0.43923402 
     400     276.8595   -6445.5103   -6414.6262    -10303.89    16914.539   0.44707416 
     410    275.46607   -6445.3545   -6414.6259   -10360.075    16914.539   0.45492711 
     420    275.69775   -6445.3806   -6414.6261   -10312.296    16914.539   0.46006875 
     430    277.65506   -6445.5987   -6414.6258   -10210.723    16914.539   0.46173996 
     440    281.42642   -6446.0203   -6414.6268   -10308.419    16914.539    0.4617939 
     450    276.88831    -6445.514   -6414.6267   -10250.708    16914.539   0.46269964 
     460    270.21574   -6444.7677   -6414.6248   -9929.1914    16914.539   0.46518425 
     470    276.62755   -6445.4853   -6414.6271   -9753.2735    16914.539   0.46909827 
     480    275.65992   -6445.3765   -6414.6262   -9607.8074    16914.539   0.47463575 
     490    271.78497   -6444.9435   -6414.6255   -9553.3315    16914.539   0.48058495 
     500    272.32251   -6445.0046   -6414.6266   -9909.1382    16914.539   0.48553511 
     510    270.37544   -6444.7864   -6414.6256   -10365.506    16914.539   0.48834362 
     520    275.17373   -6445.3223   -6414.6263    -10515.66    16914.539   0.48843099 
     530    278.78936   -6445.7259   -6414.6265   -10437.285    16914.539   0.48792995 
     540    277.10642   -6445.5367   -6414.6251   -10771.458    16914.539   0.48938579 
     550    282.60439   -6446.1508   -6414.6259   -11859.636    16914.539   0.49278637 
     560    285.47147   -6446.4709   -6414.6262   -12796.498    16914.539   0.49690199 
     570    281.74023   -6446.0538   -6414.6252   -13126.326    16914.539   0.50034525 
     580    281.37788   -6446.0138   -6414.6257    -13240.78    16914.539   0.50202219 
     590    281.57404   -6446.0359   -6414.6258   -12844.509    16914.539   0.50251947 
     600    279.80949   -6445.8394   -6414.6262   -12078.209    16914.539   0.50341715 
     610    275.08337   -6445.3114   -6414.6254   -11496.883    16914.539    0.5053235 
     620    273.83436   -6445.1722   -6414.6256   -11201.877    16914.539   0.50732064 
     630    275.31248   -6445.3374   -6414.6259   -11206.933    16914.539   0.50828438 
     640    275.60187     -6445.37   -6414.6262    -11537.36    16914.539   0.50794637 
     650    274.21825   -6445.2155   -6414.6261   -11690.872    16914.539   0.50662649 
     660    272.65227   -6445.0411   -6414.6263   -11698.657    16914.539   0.50518157 
     670     269.8069   -6444.7228   -6414.6254   -11783.391    16914.539   0.50451723 
     680    274.15038   -6445.2075   -6414.6256   -11810.462    16914.539   0.50456436 
     690    280.99552   -6445.9719   -6414.6264   -11861.031    16914.539   0.50555103 
     700    280.63072   -6445.9305   -6414.6257   -11627.854    16914.539   0.50781264 
     710    278.92562   -6445.7406    -6414.626   -11080.463    16914.539   0.51097066 
     720    273.95593   -6445.1857   -6414.6255   -10327.151    16914.539   0.51457431 
     730    270.75852   -6444.8288   -6414.6252   -9765.8913    16914.539   0.51787072 
     740    276.18815   -6445.4342    -6414.625   -9492.6985    16914.539   0.51977351 
     750    290.40662   -6447.0224   -6414.6271   -9560.4488    16914.539   0.52017505 
     760    291.76733   -6447.1737   -6414.6266   -9561.5036    16914.539   0.52117133 
     770    283.11091   -6446.2069   -6414.6254   -9453.5946    16914.539   0.52378958 
     780    279.64758   -6445.8206   -6414.6255   -9604.3927    16914.539   0.52683471 
     790    283.69703   -6446.2721   -6414.6253   -9946.1137    16914.539   0.52917358 
     800    294.07987   -6447.4316   -6414.6265   -10564.719    16914.539   0.53017696 
     810    295.44119   -6447.5838   -6414.6269   -10778.266    16914.539   0.53058912 
     820    284.62085    -6446.375   -6414.6251   -10769.398    16914.539   0.53152004 
     830    283.14102   -6446.2102   -6414.6254    -11181.41    16914.539   0.53258998 
     840    287.99305   -6446.7525   -6414.6265   -11723.574    16914.539   0.53389001 
     850    287.09189   -6446.6515    -6414.626   -11500.578    16914.539   0.53659046 
     860      284.553   -6446.3684    -6414.626   -10897.209    16914.539   0.54081319 
     870    282.67441   -6446.1585   -6414.6257   -10433.812    16914.539   0.54539106 
     880    283.51653   -6446.2522   -6414.6255   -10209.532    16914.539    0.5489499 
     890    288.50338    -6446.809    -6414.626   -10354.377    16914.539   0.55135174 
     900    291.76454   -6447.1726   -6414.6258   -10876.976    16914.539   0.55353637 
     910    292.97848   -6447.3082    -6414.626   -11347.991    16914.539   0.55595171 
     920    291.51405   -6447.1447   -6414.6258   -11398.427    16914.539   0.55853793 
     930    291.60074   -6447.1542   -6414.6257    -11293.91    16914.539   0.56185808 
     940     293.2344   -6447.3372   -6414.6265   -11200.097    16914.539   0.56678171 
     950    287.97843   -6446.7504    -6414.626   -11130.864    16914.539   0.57322831 
     960    283.64605   -6446.2659   -6414.6248   -11250.962    16914.539    0.5801369 
     970    292.04718   -6447.2043    -6414.626   -11840.242    16914.539   0.58714521 
     980    298.10465    -6447.881    -6414.627   -12253.162    16914.539   0.59518368 
     990     291.0629   -6447.0941   -6414.6256   -12038.151    16914.539    0.6045403 
    1000    284.65421   -6446.3788   -6414.6252   -11444.717    16914.539   0.61356144 
    1010    284.88743   -6446.4056    -6414.626    -11257.53    16914.539   0.62075706 
    1020    284.45231   -6446.3572   -6414.6261   -11432.152    16914.539   0.62656562 
    1030    283.20586   -6446.2174   -6414.6254   -11511.221    16914.539   0.63192389 
    1040    287.83552   -6446.7343   -6414.6258   -11667.574    16914.539   0.63739756 
    1050    291.82132   -6447.1799   -6414.6268   -11837.973    16914.539   0.64401168 
    1060    283.59762   -6446.2613   -6414.6256   -11789.256    16914.539   0.65213742 
    1070    276.66662   -6445.4869   -6414.6243   -11806.091    16914.539   0.65985523 
    1080    282.99965   -6446.1952   -6414.6262   -11840.254    16914.539   0.66594809 
    1090    284.44573   -6446.3567   -6414.6263   -11632.042    16914.539   0.67175387 
    1100    278.27382   -6445.6672   -6414.6253   -11480.901    16914.539   0.67800117 
    1110    275.51841   -6445.3596   -6414.6251    -11752.64    16914.539   0.68395064 
    1120    280.64433   -6445.9316   -6414.6253   -12488.193    16914.539   0.68890156 
    1130    288.25028   -6446.7809   -6414.6262   -13418.509    16914.539   0.69291839 
    1140    287.86356   -6446.7373   -6414.6257   -13894.107    16914.539   0.69647294 
    1150     284.1342   -6446.3207   -6414.6251   -13718.421    16914.539   0.69999552 
    1160    284.54442   -6446.3664    -6414.625   -13274.877    16914.539   0.70441524 
    1170    289.30798   -6446.8989   -6414.6262   -12874.099    16914.539   0.71032926 
    1180    288.40526   -6446.7977   -6414.6256   -12499.771    16914.539   0.71698745 
    1190    288.87345   -6446.8499   -6414.6256   -12393.703    16914.539   0.72286598 
    1200    289.55166   -6446.9266   -6414.6266   -12529.541    16914.539   0.72828782 
    1210    280.56525   -6445.9223   -6414.6249   -12558.433    16914.539   0.73461558 
    1220    279.30484    -6445.782   -6414.6251   -12626.277    16914.539   0.74159765 
    1230    283.14385   -6446.2112   -6414.6261    -12562.24    16914.539   0.74841645 
    1240    281.80648   -6446.0608   -6414.6249   -12023.389    16914.539   0.75444294 
    1250     287.2171   -6446.6653   -6414.6258   -11729.343    16914.539   0.75867551 
    1260    291.37697   -6447.1294   -6414.6258   -11960.648    16914.539    0.7611503 
    1270     290.7704   -6447.0612   -6414.6254   -12380.586    16914.539   0.76288707 
    1280    289.55224   -6446.9258   -6414.6258   -12882.375    16914.539    0.7645348 
    1290    287.09987   -6446.6515   -6414.6251   -12907.605    16914.539   0.76662403 
    1300     288.7486   -6446.8364   -6414.6261    -12351.66    16914.539   0.76992192 
    1310     286.5441   -6446.5899   -6414.6255   -11746.932    16914.539   0.77514416 
    1320    286.76446   -6446.6147   -6414.6256   -11616.487    16914.539     0.782071 
    1330    287.70548   -6446.7204   -6414.6264    -11836.58    16914.539   0.79015066 
    1340    282.63252   -6446.1531    -6414.625   -11799.148    16914.539   0.79849012 
    1350    284.43132   -6446.3541   -6414.6254   -11987.933    16914.539   0.80587623 
    1360    290.10013   -6446.9873   -6414.6262   -12175.108    16914.539   0.81222683 
    1370    288.39934   -6446.7972   -6414.6258   -12215.241    16914.539   0.81788554 
    1380    282.88925   -6446.1815   -6414.6247   -12046.377    16914.539   0.82275667 
    1390    283.76927   -6446.2807   -6414.6258   -12356.549    16914.539   0.82695931 
    1400    284.16314   -6446.3247   -6414.6258   -12558.911    16914.539   0.83096223 
    1410    282.88017   -6446.1807    -6414.625   -12245.265    16914.539   0.83439005 
    1420     289.0508   -6446.8696   -6414.6256   -12006.917    16914.539   0.83692973 
    1430    296.30837   -6447.6802   -6414.6265   -12125.384    16914.539   0.83971571 
    1440    294.95766   -6447.5284   -6414.6255   -12272.826    16914.539   0.84385839 
    1450    294.31334   -6447.4568   -6414.6257   -12376.112    16914.539   0.84859385 
    1460    293.05239   -6447.3161   -6414.6256   -12629.004    16914.539   0.85302956 
    1470    291.25758   -6447.1162   -6414.6259   -13083.249    16914.539    0.8570116 
    1480    286.64819   -6446.6016   -6414.6255   -13428.045    16914.539   0.86066862 
    1490    283.52532   -6446.2528   -6414.6252   -13496.705    16914.539   0.86430477 
    1500     286.3633   -6446.5701   -6414.6258   -13624.975    16914.539   0.86918451 
    1510    287.48957    -6446.696   -6414.6261   -13700.531    16914.539   0.87693222 
    1520      283.311   -6446.2294   -6414.6257   -13763.966    16914.539   0.88681719 
    1530    278.93423   -6445.7409   -6414.6254    -13749.08    16914.539    0.8961479 
    1540    279.24322   -6445.7753   -6414.6253   -13602.367    16914.539   0.90287427 
    1550    284.34307   -6446.3451   -6414.6262   -13438.713    16914.539   0.90704945 
    1560    286.61186   -6446.5976   -6414.6256   -13327.774    16914.539   0.90952163 
    1570    288.64067   -6446.8242   -6414.6259   -13235.348    16914.539   0.91064836 
    1580    289.00905   -6446.8647   -6414.6253   -13276.193    16914.539   0.91132952 
    1590    292.22619   -6447.2238   -6414.6255   -13462.144    16914.539   0.91275471 
    1600    296.71233   -6447.7243   -6414.6256   -13630.138    16914.539   0.91602557 
    1610    298.76154   -6447.9536   -6414.6263   -13722.427    16914.539   0.92135086 
    1620    292.39065   -6447.2423   -6414.6257   -13309.957    16914.539   0.92745789 
    1630    287.36199   -6446.6803   -6414.6246   -12820.554    16914.539   0.93230372 
    1640    296.02429   -6447.6483   -6414.6263   -13120.327    16914.539   0.93527841 
    1650    300.16791   -6448.1107   -6414.6265   -13790.323    16914.539   0.93826144 
    1660    293.71858   -6447.3901   -6414.6253    -14241.14    16914.539   0.94282849 
    1670    288.35047   -6446.7915   -6414.6256   -14455.623    16914.539   0.94858717 
    1680    282.73321   -6446.1651   -6414.6258   -14172.658    16914.539   0.95453176 
    1690    275.72229   -6445.3823   -6414.6251   -13627.921    16914.539   0.95952727 
    1700    277.97595   -6445.6333   -6414.6247   -13300.724    16914.539   0.96211871 
    1710    291.05049   -6447.0941    -6414.627    -13269.73    16914.539   0.96263565 
    1720    289.50874   -6446.9216   -6414.6265   -13136.603    16914.539    0.9641931 
    1730     279.6014   -6445.8141   -6414.6241    -12984.07    16914.539   0.96762806 
    1740    285.21215   -6446.4421   -6414.6263   -12956.522    16914.539    0.9714688 
    1750    286.63852   -6446.6019   -6414.6269    -12491.03    16914.539   0.97542993 
    1760    276.86406   -6445.5095   -6414.6249   -11731.805    16914.539   0.97865163 
    1770    278.27156   -6445.6664   -6414.6248   -11664.802    16914.539   0.98004953 
    1780    292.12948   -6447.2142   -6414.6268   -12328.976    16914.539   0.98151253 
    1790    296.31795   -6447.6809   -6414.6262   -12931.917    16914.539   0.98612529 
    1800    292.55667   -6447.2612    -6414.626   -13640.461    16914.539   0.99403792 
    1810    285.79514   -6446.5059    -6414.625   -14229.526    16914.539    1.0030771 
    1820    288.12419   -6446.7662   -6414.6256   -14597.158    16914.539    1.0110949 
    1830    292.85204   -6447.2945   -6414.6264   -14639.212    16914.539    1.0174953 
    1840    289.21054   -6446.8874   -6414.6255   -13970.459    16914.539    1.0218515 
    1850    287.11754   -6446.6534    -6414.625   -13100.598    16914.539    1.0231482 
    1860    292.11589   -6447.2121   -6414.6262   -12689.719    16914.539    1.0216815 
    1870    291.24456   -6447.1151   -6414.6264    -12380.18    16914.539    1.0194153 
    1880    284.36534   -6446.3461   -6414.6247   -12152.672    16914.539    1.0178874 
    1890     288.1505   -6446.7696    -6414.626   -12357.505    16914.539    1.0174891 
    1900    290.81767   -6447.0678   -6414.6266   -12569.765    16914.539    1.0188537 
    1910    284.40865   -6446.3521   -6414.6259   -12506.032    16914.539    1.0221045 
    1920    279.51829   -6445.8054   -6414.6247   -12334.547    16914.539    1.0260227 
    1930    286.47358   -6446.5831   -6414.6265   -12454.296    16914.539    1.0290399 
    1940    288.06715   -6446.7604    -6414.626   -12717.705    16914.539    1.0306657 
    1950    286.25893   -6446.5579   -6414.6253   -12605.082    16914.539    1.0306186 
    1960    289.99788   -6446.9755   -6414.6258   -12348.209    16914.539    1.0295042 
    1970    293.21828    -6447.335    -6414.626   -12071.048    16914.539    1.0291662 
    1980    292.53599   -6447.2583   -6414.6255   -11867.242    16914.539    1.0306618 
    1990    292.57928   -6447.2634   -6414.6257   -12029.322    16914.539    1.0338136 
    2000    292.21203   -6447.2225   -6414.6258   -12394.635    16914.539    1.0382092 
Loop time of 1578.36 on 16 procs for 2000 steps with 864 atoms

Performance: 0.109 ns/day, 219.216 hours/ns, 1.267 timesteps/s
96.7% CPU use with 16 MPI tasks x 1 OpenMP threads

MPI task timing breakdown:
Section |  min time  |  avg time  |  max time  |%varavg| %total
---------------------------------------------------------------
Pair    | 917.44     | 1248.4     | 1576.2     | 471.1 | 79.10
Bond    | 0.00015354 | 0.00051031 | 0.0013642  |   0.0 |  0.00
Neigh   | 0.025846   | 0.036104   | 0.056092   |   3.9 |  0.00
Comm    | 1.736      | 303.19     | 660.48     | 906.9 | 19.21
Output  | 0.3697     | 17.101     | 40.816     | 390.5 |  1.08
Modify  | 0.0098445  | 0.011325   | 0.014069   |   1.2 |  0.00
Other   |            | 9.584      |            |       |  0.61

Nlocal:        54.0000 ave          73 max          37 min
Histogram: 1 0 1 2 5 5 0 0 1 1
Nghost:        565.875 ave         657 max         471 min
Histogram: 1 1 0 5 2 2 0 2 1 2
Neighs:         0.00000 ave           0 max           0 min
Histogram: 16 0 0 0 0 0 0 0 0 0
FullNghs:      2887.12 ave        4564 max        1794 min
Histogram: 1 3 4 2 2 0 2 0 0 2

Total # of neighbors = 46194
Ave neighs/atom = 53.465278
Ave special neighs/atom = 0.0000000
Neighbor list builds = 199
Dangerous builds = 198
unfix   1

velocity    all create 1125.0 1312343 dist gaussian
fix     2 all npt temp 1125.0 1125.0 $(100.0*dt) aniso 0.0 1.01325 $(1000.0*dt)
fix     2 all npt temp 1125.0 1125.0 0.10000000000000000555 aniso 0.0 1.01325 $(1000.0*dt)
fix     2 all npt temp 1125.0 1125.0 0.10000000000000000555 aniso 0.0 1.01325 1
run     3000
Per MPI rank memory allocation (min/avg/max) = 8.905 | 8.910 | 8.916 Mbytes
Step Temp PotEng TotEng Press Volume c_msd[4] 
    2000         1125   -6447.2225    -6321.727    -6528.274    16914.539    1.0382092 
    2010    935.60215   -6426.0302   -6321.6624   -380.20327    16912.802    1.0535996 
    2020    727.33066   -6402.4507   -6321.3159    6501.9152    16910.828    1.0833811 
    2030    708.11828    -6399.502   -6320.5103    6484.0077    16912.616    1.1089597 
    2040    700.25662   -6397.3158   -6319.2012    5435.1599    16918.528    1.1308477 
    2050    664.91062   -6391.8872   -6317.7154     5515.458    16927.998    1.1527512 
    2060    655.98672   -6389.5429   -6316.3666    6128.8122    16941.052    1.1751682 
    2070    672.19993   -6390.1353   -6315.1504    6082.7438    16958.043    1.1973911 
    2080     710.9537   -6393.2028   -6313.8948    4683.5197     16978.91     1.219657 
    2090    718.96908   -6392.6901   -6312.4881    3894.2387    17002.905    1.2440857 
    2100    727.10628   -6392.0528    -6310.943    2867.6385    17029.473    1.2698582 
    2110    743.38624    -6392.166   -6309.2401    1979.2464    17057.975    1.2947354 
    2120    729.60874   -6388.8558   -6307.4668    2374.7124    17087.899    1.3173534 
    2130    733.84544   -6387.5392   -6305.6777    1960.6263    17119.365    1.3354514 
    2140    772.41188   -6389.9425   -6303.7788    44.978886    17152.044    1.3498729 
    2150    788.73918    -6389.744   -6301.7589   -1167.6541    17184.783    1.3653968 
    2160    765.64976   -6385.1588   -6299.7494   -683.96398    17216.845    1.3830152 
    2170    779.34484   -6384.6744   -6297.7374   -1422.7248    17248.319    1.3997482 
    2180    789.80868   -6383.7314    -6295.627   -2761.2046    17278.735    1.4167776 
    2190    774.84909   -6379.9303   -6293.4947   -3453.3068    17307.249    1.4367423 
    2200    792.91405   -6379.7868   -6291.3361   -3962.9808    17333.332    1.4579444 
    2210    818.55362   -6380.4018   -6289.0909    -3238.653    17356.704    1.4786157 
    2220    823.33531   -6378.6926   -6286.8483   -1759.5666    17377.816    1.5001208 
    2230    823.32483   -6376.4698   -6284.6266   -1103.2115    17397.556    1.5218534 
    2240    829.09101   -6374.8883   -6282.4019   -1418.3846    17416.357    1.5390491 
    2250    856.57206   -6375.6804   -6280.1285   -2530.6443    17434.021    1.5479268 
    2260    867.87077   -6374.6205   -6277.8083   -2984.9119     17449.89    1.5527084 
    2270    862.46226   -6371.7173   -6275.5084   -2795.9995    17463.661    1.5592595 
    2280     886.5231   -6372.0826   -6273.1896   -3238.7712     17475.38    1.5683201 
    2290    876.99615   -6368.6774   -6270.8472   -2596.4425    17484.888    1.5802856 
    2300    861.01093   -6364.5937   -6268.5466   -1385.5037    17492.584    1.5961699 
    2310    855.40908    -6361.671   -6266.2489   -925.56247    17499.232    1.6161779 
    2320    876.01055   -6361.6295   -6263.9092   -1691.1621    17505.116    1.6381698 
    2330    892.94631   -6361.1356   -6261.5261   -2231.2123    17509.806    1.6608283 
    2340    900.84962   -6359.6349   -6259.1437   -1956.1887    17512.997    1.6805701 
    2350    931.72941   -6360.6934   -6256.7576   -2088.1289    17514.794    1.6983117 
    2360    968.04904   -6362.3481   -6254.3608   -1938.3956    17515.168    1.7191985 
    2370    967.90822   -6359.9679   -6251.9963   -759.27443    17514.279    1.7428438 
    2380    959.69992   -6356.7609    -6249.705    331.50493    17512.869    1.7651003 
    2390     970.0176   -6355.6176   -6247.4107    742.37282    17511.666     1.784907 
    2400      980.807   -6354.5154   -6245.1049    1390.6561    17510.991    1.8023763 
    2410    969.11791   -6350.9272   -6242.8206    2944.3945    17511.343    1.8164218 
    2420    985.24439   -6350.4533   -6240.5478    3625.1283     17513.65    1.8241101 
    2430    997.47337   -6349.5198   -6238.2501    3683.8356     17518.37    1.8302784 
    2440    999.97622   -6347.5302   -6235.9814     3772.368    17525.557    1.8423508 
    2450    990.56555   -6344.2486   -6233.7495    3824.4343    17535.258    1.8596996 
    2460    1003.7544    -6343.518   -6231.5477    3368.3361    17547.428    1.8793024 
    2470    1035.0943    -6344.784   -6229.3177    3218.6187     17561.79     1.899324 
    2480    1058.3497   -6345.1648   -6227.1043    3182.6337    17578.203    1.9159865 
    2490    1062.5606   -6343.4805   -6224.9503    2564.8407    17596.583    1.9278172 
    2500    1080.8388   -6343.4228   -6222.8536    1329.2086    17616.461    1.9365276 
    2510    1054.0066   -6338.3986   -6220.8225    837.45964    17637.064    1.9463934 
    2520    1043.6822   -6335.2945   -6218.8702    630.75963    17658.003    1.9586042 
    2530    1045.7286   -6333.5552   -6216.9026    682.19156    17679.144    1.9765123 
    2540    1090.8359   -6336.6033   -6214.9189    185.17073    17700.441    2.0022224 
    2550    1134.4398   -6339.4791   -6212.9306    93.023659    17721.586    2.0347604 
    2560    1134.6732   -6337.6466   -6211.0721    1058.3239     17742.56     2.073884 
    2570    1123.2541   -6334.6703   -6209.3696     1452.058    17763.937    2.1163847 
    2580    1123.5444   -6333.1111   -6207.7781     1214.267    17785.958      2.15324 
    2590     1100.274   -6328.9908   -6206.2536    1469.7994    17808.534     2.182408 
    2600    1131.7081   -6331.0098   -6204.7661    202.90488    17831.664    2.2079847 
    2610    1151.0971   -6331.6942   -6203.2876   -863.75782    17854.546    2.2375287 
    2620    1126.0847   -6327.5131   -6201.8967   -370.42081    17876.527    2.2759234 
    2630    1119.7124   -6325.4961   -6200.5905   -414.93524    17897.804    2.3197743 
    2640    1129.4239   -6325.3009    -6199.312    -1896.105    17918.275    2.3616862 
    2650    1126.1487   -6323.6701   -6198.0465   -3095.3587    17937.018    2.4015577 
    2660     1115.682   -6321.2858   -6196.8298   -3047.4356    17953.247     2.445612 
    2670    1113.3482   -6319.8376    -6195.642   -2013.3261    17967.041     2.496585 
    2680    1129.0346   -6320.4097   -6194.4642   -1430.3659    17979.058    2.5479299 
    2690    1118.9114   -6318.1134   -6193.2971   -769.48685    17989.793    2.5910671 
    2700    1097.2701   -6314.5696   -6192.1674    29.580211    17999.753    2.6219738 
    2710    1090.4831   -6312.6606   -6191.0155    239.68051    18009.481    2.6449916 
    2720    1126.2935   -6315.4606   -6189.8209    -214.2375    18019.116    2.6683115 
    2730    1135.6215   -6315.2972   -6188.6169   -407.28336     18028.41    2.6945973 
    2740    1124.6499   -6312.9182   -6187.4618    -678.1563    18037.191    2.7182453 
    2750    1134.4579   -6312.8914   -6186.3409   -1642.1889    18045.226    2.7349854 
    2760     1137.716   -6312.1554   -6185.2414   -1696.9721    18051.974    2.7485277 
    2770    1131.3408   -6310.3881   -6184.1854    -1231.902    18057.365    2.7664958 
    2780     1143.904   -6310.7751   -6183.1709   -483.53462    18061.775     2.794336 
    2790    1185.0486   -6314.4015   -6182.2075   -145.29689    18065.712    2.8365675 
    2800    1183.8279   -6313.4204   -6181.3626    384.01202    18069.468     2.888098 
    2810    1152.0046   -6309.1789   -6180.6711    1373.9139    18073.441    2.9344281 
    2820    1160.3811   -6309.5206   -6180.0783     1554.761    18078.252    2.9693253 
    2830    1172.9252    -6310.395   -6179.5534    1952.5312    18084.108    3.0054545 
    2840    1147.0719   -6307.0829   -6179.1253     2175.687    18091.232    3.0480429 
    2850     1150.817   -6307.1417   -6178.7663    1032.0894    18099.667    3.0865583 
    2860    1180.7351   -6310.1723   -6178.4595   -791.90543    18108.599    3.1185818 
    2870    1203.7897   -6312.5525   -6178.2679   -1689.2012    18116.822    3.1499459 
    2880    1222.6247   -6314.6527    -6178.267   -1588.4613    18123.688    3.1856882 
    2890     1214.391   -6313.9616   -6178.4944   -508.49514     18129.31    3.2322938 
    2900    1189.2122   -6311.5844    -6178.926    605.06656    18134.449    3.2909762 
    2910    1188.0031   -6312.0458   -6179.5222    748.03736    18139.854    3.3508057 
    2920    1190.5097   -6313.0779   -6180.2748     521.3568     18145.66    3.4034583 
    2930    1175.5722   -6312.2958    -6181.159    610.26764    18151.745    3.4548179 
    2940    1151.5585   -6310.5866   -6182.1285    515.02622    18158.142    3.5068344 
    2950    1147.0804   -6311.1019   -6183.1434    324.88916    18164.796    3.5528586 
    2960      1145.36    -6311.953   -6184.1863    374.15765    18171.587    3.5928633 
    2970    1139.6263   -6312.3743   -6185.2473    149.25978    18178.512    3.6268689 
    2980     1149.325   -6314.5321   -6186.3231   -663.86746    18185.381    3.6532771 
    2990    1153.0447   -6316.0641   -6187.4402   -913.79348    18191.703    3.6800651 
    3000    1126.0972    -6314.179   -6188.5611   -1157.8015    18197.238    3.7149062 
    3010    1108.3571    -6313.282   -6189.6431   -1040.9116    18201.852     3.753356 
    3020    1097.2903    -6313.061   -6190.6566    2.1552651    18205.702    3.7961589 
    3030    1087.0958    -6312.851   -6191.5839    623.97939    18209.466    3.8416568 
    3040    1090.7362   -6314.0957   -6192.4224    213.37581    18213.557    3.8880434 
    3050    1101.8837   -6316.0945   -6193.1777   -86.414348    18217.759     3.933453 
    3060    1112.5288   -6317.9887   -6193.8845    -145.5249    18221.855    3.9717237 
    3070    1128.8976   -6320.4934   -6194.5632   -214.68993    18225.785    4.0005607 
    3080    1134.0149   -6321.7592   -6195.2581   -142.69348     18229.52    4.0228219 
    3090    1121.9242   -6321.1124     -6195.96   -424.56148    18233.071    4.0431762 
    3100    1087.8244   -6317.9807   -6196.6323   -532.98215    18236.278    4.0652219 
    3110    1066.1497   -6316.1399   -6197.2093   -810.28729    18239.046    4.0899769 
    3120    1071.6056   -6317.2035   -6197.6643    -1782.543    18241.149    4.1178874 
    3130    1073.8237   -6317.7883   -6198.0017    -2781.647    18241.927    4.1508178 
    3140    1070.0102   -6317.5934   -6198.2322   -2900.4537     18240.71    4.1882525 
    3150    1052.2859   -6315.7254   -6198.3413   -1861.1186    18237.461    4.2262494 
    3160    1064.0433   -6317.0137    -6198.318   -1646.0812    18232.807    4.2620609 
    3170    1057.1612   -6316.0849   -6198.1569   -1466.1886    18226.977    4.2957482 
    3180    1063.5515   -6316.5029   -6197.8621   -1600.7943    18220.101    4.3242087 
    3190    1093.7763   -6319.4506   -6197.4382   -2091.5768    18212.098    4.3455957 
    3200    1119.3083   -6321.7931   -6196.9326   -2440.2877    18202.643    4.3589455 
    3210    1117.6572   -6321.0748   -6196.3984   -2049.1546    18191.528     4.369334 
    3220    1084.9064   -6316.8786   -6195.8557   -1128.6357    18179.027    4.3840457 
    3230    1067.8554   -6314.3601   -6195.2392    -455.1516    18165.785    4.4086769 
    3240    1076.3663   -6314.5754   -6194.5052   -473.59102    18152.295    4.4426136 
    3250    1096.0117   -6315.9295   -6193.6677    -678.0067    18138.563    4.4796986 
    3260    1103.1329   -6315.8233   -6192.7672   -81.564105    18124.506    4.5137769 
    3270    1136.2446   -6318.5802   -6191.8304    125.48634    18110.483    4.5404456 
    3280     1161.793   -6320.5028    -6190.903     181.7615    18096.672    4.5598335 
    3290    1177.4302   -6321.4111    -6190.067    439.06296    18083.108    4.5730804 
    3300    1139.3444   -6316.4396    -6189.344     1645.089    18070.049    4.5829678 
    3310    1130.6163   -6314.8121   -6188.6901    2044.2736    18058.242    4.5899872 
    3320    1136.6896   -6314.8489   -6188.0494    1787.7633    18047.983    4.6032992 
    3330    1135.6047    -6314.124   -6187.4456    1771.8965    18039.131    4.6303972 
    3340    1133.6304   -6313.3247   -6186.8665    2017.9953    18031.661    4.6680723 
    3350    1142.8488   -6313.7977   -6186.3112    2667.4574    18025.748    4.7079167 
    3360    1151.2465   -6314.2008   -6185.7775    3117.0127    18021.815    4.7448796 
    3370    1187.9633   -6317.8389   -6185.3198    2974.6346    18020.126    4.7790595 
    3380    1156.1343   -6313.9503   -6184.9818    3767.9083    18020.674    4.8180473 
    3390    1110.5431   -6308.6126   -6184.7298    4612.5448    18023.945     4.858765 
    3400    1149.5678   -6312.7113   -6184.4753    3625.4939    18030.398    4.8984209 
    3410    1189.2401   -6316.9198   -6184.2582    2948.9518    18039.432    4.9417881 
    3420     1148.021   -6312.2128   -6184.1494    4687.3303    18050.693     4.991843 
    3430    1132.7392   -6310.4853   -6184.1265    4773.3127    18065.121    5.0473094 
    3440    1133.4515   -6310.5656   -6184.1273    3003.4749    18082.744    5.1005509 
    3450    1102.1524   -6307.0569   -6184.1101    2367.1935    18102.476    5.1426691 
    3460    1116.9734   -6308.6749   -6184.0748    2052.8262    18123.748    5.1719212 
    3470    1111.3326   -6307.9778    -6184.007    2274.5433    18146.339    5.2060576 
    3480    1093.8928   -6305.9377   -6183.9123    3013.4457    18170.407    5.2561649 
    3490    1119.7348   -6308.6895   -6183.7814    2619.1241    18196.356     5.313692 
    3500    1151.2044   -6312.0433   -6183.6247    1581.9466    18223.902    5.3646248 
    3510    1156.9182   -6312.5403   -6183.4843    432.61293    18252.306    5.4074077 
    3520    1157.8383   -6312.5561   -6183.3975   -841.44367    18280.675    5.4544479 
    3530    1138.0582   -6310.3206   -6183.3685   -697.83109    18308.173    5.5132678 
    3540     1125.806   -6308.9672   -6183.3818    -144.3281    18334.821    5.5780088 
    3550    1140.4376   -6310.6287   -6183.4112   -605.45758    18360.939    5.6434456 
    3560    1146.6909   -6311.3771    -6183.462   -880.63395    18386.278    5.7007972 
    3570    1132.2739   -6309.8689   -6183.5621   -446.17509    18410.653    5.7431677 
    3580    1125.1317   -6309.1949   -6183.6848    -756.6413    18434.297    5.7755466 
    3590    1111.6815   -6307.8015   -6183.7918   -1232.5459    18457.052    5.8054376 
    3600    1118.3377   -6308.6348   -6183.8826   -2119.3267    18478.535    5.8421571 
    3610    1138.2965   -6310.9354   -6183.9567   -2863.4527    18498.125    5.8933751 
    3620    1130.5374   -6310.1639   -6184.0507     -2628.63    18515.342    5.9576463 
    3630    1121.0851   -6309.2188   -6184.1601   -2958.0149    18530.287    6.0208912 
    3640    1146.4807   -6312.1659   -6184.2743   -4142.3824    18542.724    6.0667873 
    3650    1160.1641   -6313.8507   -6184.4327   -4615.8721    18551.889    6.1033608 
    3660    1129.3966   -6310.6605   -6184.6746    -3939.588    18557.495    6.1469581 
    3670    1125.2312   -6310.4672    -6184.946   -3702.0541    18559.971    6.1943919 
    3680    1121.1333   -6310.2924   -6185.2282   -2932.5709    18559.617    6.2390457 
    3690    1080.9387   -6306.0565   -6185.4762   -1738.4911     18557.07    6.2734808 
    3700    1077.1494   -6305.8027    -6185.645   -1942.4659    18553.127    6.2913234 
    3710     1080.636   -6306.2657   -6185.7192   -2499.1549    18547.748     6.301026 
    3720    1093.2242   -6307.6632   -6185.7124   -3484.0743    18540.487    6.3092018 
    3730    1106.9038   -6309.1199   -6185.6431    -3810.637    18530.712    6.3105289 
    3740    1110.7114    -6309.436   -6185.5345   -3554.5753     18518.18    6.3038339 
    3750    1122.2316   -6310.5759   -6185.3893   -3155.8897    18503.097    6.3029904 
    3760    1152.9637   -6313.8615   -6185.2467   -3086.5687    18485.744    6.3213484 
    3770    1127.2063   -6310.8781   -6185.1366   -1696.6491    18466.345    6.3518871 
    3780    1091.2506    -6306.748   -6185.0173   -552.83566    18445.861    6.3808143 
    3790     1100.086   -6307.5465   -6184.8303   -380.16203    18425.126    6.4023494 
    3800    1107.7195   -6308.1474   -6184.5796   -431.80216    18404.322    6.4144408 
    3810    1115.2105   -6308.6972   -6184.2938   -310.53368     18383.43    6.4211003 
    3820    1115.2387   -6308.3809   -6183.9743     166.6805    18362.558    6.4393952 
    3830    1138.5286   -6310.6415   -6183.6369    307.61978        18342    6.4738699 
    3840    1132.3985   -6309.6194   -6183.2987    1215.6599    18321.958    6.5125725 
    3850    1110.8643   -6306.8818   -6182.9633    1882.9947    18303.021    6.5401549 
    3860    1143.4966   -6310.1806   -6182.6219    1208.2166    18285.597    6.5463905 
    3870     1172.669   -6313.1358   -6182.3228    318.84422    18269.245    6.5378281 
    3880    1140.4026   -6309.3194   -6182.1058    589.16859    18253.385    6.5267644 
    3890    1132.2916   -6308.2566   -6181.9478    352.46602    18238.067    6.5154296 
    3900    1134.6099   -6308.3766   -6181.8091    -169.3607    18223.127    6.5033704 
    3910    1102.1826   -6304.6206   -6181.6704    1079.5214    18208.327    6.4985509 
    3920    1119.3956   -6306.3634   -6181.4931    2089.9174    18194.448    6.5039579 
    3930    1156.4626   -6310.2979   -6181.2928    2285.8038    18182.177    6.5121183 
    3940    1149.9779   -6309.4262   -6181.1445    2519.3934    18171.699    6.5190752 
    3950    1131.8562   -6307.3133    -6181.053    2469.3171    18163.156    6.5258967 
    3960    1139.7813    -6308.139   -6180.9947    2141.2355    18156.493     6.538992 
    3970    1164.1654   -6310.8459   -6180.9815    1785.6574    18151.463    6.5684373 
    3980    1148.8677    -6309.198     -6181.04    2235.3761    18147.839    6.6092678 
    3990    1130.9669   -6307.3257   -6181.1647    2684.8184    18145.876     6.646433 
    4000     1118.369   -6306.0526   -6181.2969    2762.1307     18145.87    6.6804984 
    4010    1136.0255   -6308.1589   -6181.4336    2707.5696    18147.893    6.7179119 
    4020    1148.4149   -6309.7078   -6181.6004    2262.9324    18151.846    6.7658626 
    4030    1109.5516   -6305.5687   -6181.7966    3167.0899    18157.555    6.8227635 
    4040    1128.2978   -6307.8534   -6181.9901    2396.0319    18165.433    6.8771628 
    4050    1161.9696   -6311.8163   -6182.1969    642.67768    18174.979     6.925013 
    4060    1140.8602   -6309.7281   -6182.4634     137.4618     18185.03    6.9699986 
    4070    1119.4486   -6307.6382    -6182.762    1051.9986    18195.217    7.0159288 
    4080     1112.289   -6307.1273   -6183.0498    2194.9111    18206.157    7.0653168 
    4090    1139.1742   -6310.4192   -6183.3426    2350.0103    18218.597    7.1171739 
    4100    1144.8119   -6311.3851   -6183.6796    1950.5074    18232.683    7.1702898 
    4110    1113.3012   -6308.2371   -6184.0467    2012.6633    18248.198    7.2255609 
    4120    1087.0524   -6305.6467   -6184.3843    1462.5504    18265.094    7.2907508 
    4130    1080.4297   -6305.1506    -6184.627    648.84651    18282.985    7.3650613 
    4140    1075.7722   -6304.7804   -6184.7763     372.8388    18301.316    7.4459241 
    4150    1073.7892   -6304.5939   -6184.8111   -122.55242    18319.836    7.5289727 
    4160    1096.0216   -6307.0044   -6184.7416   -812.85495    18338.165    7.6043365 
    4170    1101.7733   -6307.4948   -6184.5904   -1069.7295    18355.838    7.6674973 
    4180    1103.5941   -6307.4927   -6184.3851   -1281.1549    18372.628    7.7170573 
    4190    1116.5213   -6308.6882   -6184.1385   -1510.4526    18388.383    7.7526745 
    4200     1111.955    -6307.891   -6183.8508   -1814.1903    18402.914    7.7830674 
    4210    1126.7381   -6309.2238   -6183.5345   -2188.6107    18415.988    7.8172991 
    4220    1150.7285   -6311.5743   -6183.2088   -1907.4816    18427.384    7.8623961 
    4230    1170.4338   -6313.5021   -6182.9384   -1091.3735    18437.305    7.9089441 
    4240    1157.8676   -6311.9349    -6182.773   -285.81425    18446.356    7.9418869 
    4250    1143.3757   -6310.2314   -6182.6862   -882.18489    18455.065    7.9633192 
    4260    1149.0992   -6310.8248   -6182.6411   -2296.3316    18463.015    7.9830169 
    4270    1149.0822   -6310.8321   -6182.6503   -2996.7113    18469.222    8.0097521 
    4280    1124.0803    -6308.084   -6182.6912   -2291.1473    18473.247    8.0426105 
    4290    1145.2107    -6310.508   -6182.7581   -2026.2575    18475.472    8.0721565 
    4300    1141.7682   -6310.2272   -6182.8613   -1763.1258    18476.174    8.0951804 
    4310    1144.6071   -6310.6972   -6183.0145   -2102.2839    18475.497    8.1141479 
    4320     1154.777   -6312.0444   -6183.2273   -2480.5358    18473.229    8.1372928 
    4330     1138.075   -6310.4604   -6183.5064   -1909.6928    18469.168      8.17248 
    4340    1111.0726   -6307.7477   -6183.8059   -911.56945    18463.702    8.2160219 
    4350    1114.7838   -6308.4531   -6184.0973   -649.90087    18457.512    8.2553385 
    4360     1119.519   -6309.2538   -6184.3698   -401.76506    18450.869    8.2862877 
    4370    1122.2588   -6309.8307    -6184.641   -242.99918     18443.94    8.3104196 
    4380    1096.8224   -6307.2438   -6184.8916    129.79613    18436.863      8.32415 
    4390    1074.9497   -6304.9909   -6185.0786     664.0924    18429.915    8.3306741 
    4400     1065.848   -6304.0486   -6185.1517    1051.8446    18423.494    8.3433581 
    4410    1095.6417   -6307.3419   -6185.1214    683.30078    18417.817    8.3704472 
    4420    1108.6129   -6308.6794    -6185.012    637.34009     18412.71    8.3981757 
    4430    1113.3777   -6309.0619   -6184.8629    398.46585    18408.085    8.4126164 
    4440    1134.6043    -6311.264   -6184.6972    240.62965    18403.792    8.4164297 
    4450    1128.6592   -6310.4334   -6184.5298    525.42484    18399.742    8.4216957 
    4460    1130.0154   -6310.4285   -6184.3735    268.49725    18396.058    8.4391414 
    4470     1114.647   -6308.5535    -6184.213   -285.46078    18392.565    8.4734908 
    4480    1092.9432   -6305.9484    -6184.029    51.157749    18388.924    8.5149139 
    4490    1082.3335   -6304.5106   -6183.7746    773.96393    18385.346    8.5607355 
    4500    1083.5473    -6304.302   -6183.4306    1148.2463    18382.326    8.6118741 
    4510    1085.8038    -6304.102    -6182.979    1441.3893    18380.183    8.6557013 
    4520    1115.3831   -6306.8532   -6182.4305    1647.2111    18379.126    8.6832755 
    4530    1135.5691   -6308.5015   -6181.8271    1988.3221    18379.332    8.7006601 
    4540    1149.9559   -6309.5167   -6181.2374    2020.1781     18381.03    8.7133394 
    4550    1149.6263   -6308.9401   -6180.6976    1874.3846    18384.242    8.7286603 
    4560    1144.2815   -6307.8685   -6180.2222    1897.6121    18388.886    8.7650542 
    4570     1143.757   -6307.3796   -6179.7918    2126.7859    18394.979    8.8193684 
    4580    1133.5805    -6305.853   -6179.4004         2826    18402.725    8.8784769 
    4590     1143.449   -6306.5887   -6179.0352    2393.5391    18412.573    8.9287391 
    4600    1176.7583   -6309.9712    -6178.702    689.09677    18424.183      8.96471 
    4610    1167.0988   -6308.6454   -6178.4538   -59.728717    18436.417    8.9960498 
    4620    1168.5013   -6308.6507   -6178.3026    -634.8029    18448.618    9.0352255 
    4630    1138.4986   -6305.2407   -6178.2395   -299.51593    18460.421    9.0819249 
    4640    1127.1564    -6303.955    -6178.219    294.07885    18472.029    9.1286479 
    4650     1146.173   -6306.0695   -6178.2122    419.01539    18483.871    9.1731864 
    4660    1155.1671   -6307.1205   -6178.2599   -141.31799    18496.009    9.2233759 
    4670    1105.7836   -6301.6982   -6178.3464   -364.77438    18508.119    9.2823458 
    4680    1092.6764   -6300.2965   -6178.4068   -1229.0784    18519.947    9.3452519 
    4690    1112.3369   -6302.4779   -6178.3951   -2277.5212    18530.864    9.4056569 
    4700    1127.6999   -6304.1513   -6178.3547   -2378.9416    18540.137    9.4549471 
    4710    1123.0481    -6303.591   -6178.3133   -2191.1227     18547.65    9.4933723 
    4720    1129.7359   -6304.3054   -6178.2817   -3060.1071    18553.413    9.5211952 
    4730     1094.761   -6300.3621   -6178.2399   -3216.0809    18556.887    9.5376199 
    4740    1079.1881   -6298.5324   -6178.1474    -2941.106    18557.936    9.5447318 
    4750    1105.5932   -6301.2873   -6177.9567   -2955.8779      18556.7    9.5518184 
    4760     1131.959   -6303.9644   -6177.6927   -2349.0534    18553.233    9.5564526 
    4770    1163.3951   -6307.1815   -6177.4031   -1652.0356    18547.946    9.5588148 
    4780    1150.7626   -6305.5199   -6177.1506   -465.99796    18541.404    9.5725093 
    4790    1112.8713   -6301.0684   -6176.9259    897.10427    18534.495    9.5991663 
    4800     1097.463   -6299.0779   -6176.6542    1618.4582    18528.219    9.6243046 
    4810    1113.2029   -6300.4853   -6176.3058    1348.5697    18523.083     9.647519 
    4820    1133.3182   -6302.3103    -6175.887    879.68051    18518.966    9.6769842 
    4830    1140.8007   -6302.6765   -6175.4184    213.69629    18515.501    9.7155676 
    4840    1133.7871   -6301.4049   -6174.9293    79.697497    18512.235    9.7574109 
    4850    1110.8846   -6298.3362   -6174.4153    332.19571    18509.036    9.7932673 
    4860    1118.9782   -6298.6565   -6173.8328    807.32152    18506.102    9.8227807 
    4870    1165.4458   -6303.1844   -6173.1771    338.53094    18503.692    9.8607603 
    4880    1182.8025   -6304.4768   -6172.5334     335.2772    18501.569    9.9075889 
    4890    1194.8405   -6305.2719   -6171.9857    619.54589    18499.712    9.9464526 
    4900    1200.6926   -6305.5008   -6171.5617     369.3767    18498.277    9.9690347 
    4910    1194.0083   -6304.4985   -6171.3051    407.19013    18497.156    9.9741733 
    4920    1186.0733   -6303.5135   -6171.2052    548.85387    18496.359    9.9802202 
    4930    1167.7595   -6301.5027   -6171.2374    1177.9826    18496.021    10.001234 
    4940    1161.1189   -6300.9185    -6171.394    1490.5188    18496.551    10.032919 
    4950     1132.711   -6297.9815   -6171.6259     1643.358    18498.246    10.058964 
    4960    1121.1334   -6296.9849   -6171.9208    1811.0333    18501.227    10.066505 
    4970    1100.5583   -6294.9868   -6172.2179    1578.3929    18505.601     10.07397 
    4980    1130.0612   -6298.5755   -6172.5154    327.60263    18511.165    10.098805 
    4990     1140.163   -6300.0365   -6172.8496   -478.87601    18517.088    10.139883 
    5000    1126.7103   -6298.9401   -6173.2538   -622.76266    18522.743    10.186441 
Loop time of 2567.91 on 16 procs for 3000 steps with 864 atoms

Performance: 0.101 ns/day, 237.770 hours/ns, 1.168 timesteps/s
96.0% CPU use with 16 MPI tasks x 1 OpenMP threads

MPI task timing breakdown:
Section |  min time  |  avg time  |  max time  |%varavg| %total
---------------------------------------------------------------
Pair    | 1997.9     | 2264.9     | 2551.1     | 311.4 | 88.20
Bond    | 0.0002625  | 0.00079608 | 0.0028608  |   0.0 |  0.00
Neigh   | 0.039195   | 0.045442   | 0.059242   |   2.6 |  0.00
Comm    | 15.137     | 217.39     | 508.6      | 934.6 |  8.47
Output  | 0.18547    | 0.18897    | 0.24039    |   3.1 |  0.01
Modify  | 1.1539     | 85.411     | 158.65     | 741.8 |  3.33
Other   |            | 0.0171     |            |       |  0.00

Nlocal:        54.0000 ave          71 max          49 min
Histogram: 7 4 1 1 1 1 0 0 0 1
Nghost:        543.938 ave         606 max         500 min
Histogram: 5 2 1 1 0 1 0 2 2 2
Neighs:         0.00000 ave           0 max           0 min
Histogram: 16 0 0 0 0 0 0 0 0 0
FullNghs:      2518.12 ave        3694 max        2167 min
Histogram: 6 5 2 0 0 1 1 0 0 1

Total # of neighbors = 40290
Ave neighs/atom = 46.631944
Ave special neighs/atom = 0.0000000
Neighbor list builds = 300
Dangerous builds = 300
unfix   2

fix     3 all npt temp 1125.0 1125.0 $(100.0*dt) aniso 1.01325 1.01325 $(1000.0*dt)
fix     3 all npt temp 1125.0 1125.0 0.10000000000000000555 aniso 1.01325 1.01325 $(1000.0*dt)
fix     3 all npt temp 1125.0 1125.0 0.10000000000000000555 aniso 1.01325 1.01325 1
run     20000
Per MPI rank memory allocation (min/avg/max) = 8.906 | 8.911 | 8.917 Mbytes
Step Temp PotEng TotEng Press Volume c_msd[4] 
    5000    1126.7103   -6298.9401   -6173.2538   -622.76266    18522.743    10.186441 
    5010    1117.7982   -6297.9413   -6173.2492   -389.79555    18522.537    10.229233 
    5020    1131.1719   -6299.4255   -6173.2415   -516.34936    18522.006    10.269478 
    5030     1117.324   -6297.8711   -6173.2319   -263.87994    18521.125    10.298326 
    5040    1108.9427    -6296.919   -6173.2148   -346.14505    18520.012    10.323114 
    5050    1118.6275   -6297.9405   -6173.1559   -311.35734    18518.658      10.3564 
    5060    1179.4863   -6304.6942   -6173.1208   -707.26643    18517.014     10.39392 
    5070    1149.8462   -6301.4213   -6173.1543   -114.52021    18514.918     10.43437 
    5080    1109.1139   -6296.9843    -6173.261    814.45301    18512.753    10.479986 
    5090    1111.5899   -6297.3576    -6173.358    1228.7776    18511.176     10.52347 
    5100    1157.4081   -6302.5533   -6173.4426    197.86948    18510.448     10.54683 
    5110    1164.5465    -6303.508    -6173.601   -1011.2508    18509.864    10.551254 
    5120    1145.5678    -6301.664   -6173.8742   -1533.9588    18508.548    10.551175 
    5130    1141.5564   -6301.5956   -6174.2533   -1035.9951    18506.125    10.559252 
    5140    1115.5028   -6299.1495   -6174.7135    254.78639    18502.975    10.577055 
    5150     1124.582   -6300.7044   -6175.2555   -82.251249    18499.898    10.590149 
    5160    1128.4004   -6301.7569   -6175.8822   -894.36362    18496.736    10.596887 
    5170    1142.1003   -6304.0482   -6176.6452   -1937.6263    18492.862    10.601954 
    5180    1123.8275   -6302.9096    -6177.545   -2463.6175    18487.528    10.607385 
    5190     1097.576    -6300.938   -6178.5017    -2342.697    18480.332    10.625444 
    5200     1106.381      -6302.9   -6179.4815   -1972.1781    18471.331    10.653318 
    5210    1089.1534   -6301.9359   -6180.4392   -635.77681    18460.878    10.684878 
    5220    1056.7791   -6299.1847   -6181.2995    875.76005    18449.923    10.724019 
    5230    1025.5218   -6296.3626   -6181.9641    2453.9639    18439.644    10.777018 
    5240    1049.0289   -6299.4543   -6182.4335    2171.8711    18431.069       10.845 
    5250    1078.3477   -6303.0411   -6182.7498    1596.4578     18424.12     10.92521 
    5260     1098.963    -6305.564    -6182.973    1239.1179    18418.377    11.006822 
    5270    1083.2278   -6303.9609   -6183.1253    1009.3868    18413.571      11.0768 
    5280    1090.8514   -6304.8968   -6183.2106    887.28708    18409.518    11.137354 
    5290     1094.858    -6305.344   -6183.2109    1407.7873    18406.175    11.190462 
    5300     1101.778   -6306.0588   -6183.1538    1953.6576    18403.896    11.237317 
    5310    1106.1352   -6306.4385   -6183.0475    1710.5674    18403.046    11.282874 
    5320    1109.1941   -6306.6364   -6182.9042    1210.7976    18403.467    11.331452 
    5330    1096.9736   -6305.0795   -6182.7104    1259.1956    18404.857     11.38324 
    5340    1104.1852   -6305.6139   -6182.4404    951.02347    18407.189    11.437455 
    5350    1125.8022   -6307.6691   -6182.0842    145.63135     18410.23    11.494423 
    5360    1123.8246   -6307.0509   -6181.6866   -691.41967    18413.393    11.559756 
    5370    1114.8652   -6305.6159    -6181.251   -668.00487    18416.113    11.634361 
    5380    1116.9755   -6305.3541   -6180.7538    426.49013    18418.412    11.709339 
    5390    1091.4451   -6301.9237   -6180.1714    1914.0658    18421.079    11.779407 
    5400    1111.2523   -6303.4215   -6179.4596    2159.4599    18425.124    11.841124 
    5410    1148.5739   -6306.7146   -6178.5894    1700.4944    18430.789    11.890669 
    5420    1164.6149   -6307.5612   -6177.6467    663.40619    18437.721    11.922095 
    5430     1172.071    -6307.452   -6176.7058   -163.31072    18445.195    11.936584 
    5440    1156.8653   -6304.8523   -6175.8023    4.4689761    18452.633    11.952439 
    5450    1147.9405   -6303.0056   -6174.9511    215.77608    18460.092    11.978747 
    5460    1150.4857   -6302.4636   -6174.1252   -15.146674    18467.712    12.007703 
    5470    1167.6869   -6303.5938   -6173.3366   -856.97102    18475.277     12.02616 
    5480    1144.9155   -6300.3188   -6172.6017   -1027.6305    18482.254    12.036772 
    5490    1138.7194     -6298.95   -6171.9241   -715.05114    18488.482    12.059564 
    5500    1129.2758   -6297.2414   -6171.2689    245.16283     18494.22    12.111991 
    5510     1138.941   -6297.7037   -6170.6531    420.23383    18500.074    12.188168 
    5520    1139.1969   -6297.1573   -6170.0781    263.59495    18506.245    12.276547 
    5530     1134.625   -6296.1124   -6169.5433    325.40026    18512.638    12.365107 
    5540    1166.9885   -6299.2503    -6169.071    1073.9124    18519.329    12.449509 
    5550     1190.156   -6301.4615   -6168.6978    1791.2013    18526.839    12.538779 
    5560    1194.0539   -6301.6771   -6168.4786    2081.3399    18535.693    12.630881 
    5570    1198.1506   -6302.0814   -6168.4259    1584.4402    18546.087    12.723498 
    5580    1168.4665   -6298.8578   -6168.5136    942.14908    18557.677    12.818702 
    5590    1130.8104   -6294.8494   -6168.7058    701.81746        18570     12.89534 
    5600    1120.1482   -6293.8631   -6168.9089    415.69364    18582.825    12.939076 
    5610    1106.2047   -6292.4823   -6169.0835    816.18233    18595.998    12.959326 
    5620    1130.4212   -6295.3301   -6169.2299    788.82857    18609.733    12.968669 
    5630    1159.6165   -6298.7502   -6169.3932     388.2433    18624.014    12.980269 
    5640    1189.3299    -6302.312   -6169.6405   -178.05144    18638.545    13.002794 
    5650    1209.4853   -6304.9469    -6170.027   -220.38218    18652.931    13.039926 
    5660     1191.339   -6303.4951   -6170.5994    796.09276    18667.179    13.087515 
    5670    1137.6465   -6298.1832   -6171.2771    1626.2023    18681.973    13.129513 
    5680    1115.5814   -6296.3771   -6171.9323    1613.5314    18697.929    13.157971 
    5690    1141.3091   -6299.8486   -6172.5338    205.16162    18714.961    13.176505 
    5700    1152.7619   -6301.6824   -6173.0901   -736.39936    18732.113    13.191493 
    5710    1139.8342   -6300.7655   -6173.6153   -838.62497    18748.658    13.214109 
    5720    1123.7623    -6299.423   -6174.0657   -1133.4032    18764.425    13.246699 
    5730    1123.4077    -6299.725   -6174.4072   -2106.4208    18779.158     13.28202 
    5740    1122.4547   -6299.8592   -6174.6476   -3450.5101    18792.117    13.321502 
    5750    1116.5157   -6299.3583   -6174.8093   -4366.8453      18802.3    13.378215 
    5760    1099.6177   -6297.5638   -6174.8998   -4139.0909    18809.064    13.449131 
    5770    1103.2392   -6297.9982   -6174.9302   -3515.0945    18812.541    13.524798 
    5780      1102.27   -6297.8826   -6174.9227   -2510.1227    18813.264    13.596134 
    5790    1082.5357   -6295.6237   -6174.8652   -1905.8984    18811.991    13.649355 
    5800    1104.6427   -6297.9712   -6174.7466   -2670.0087    18809.132    13.675161 
    5810    1109.2648   -6298.3072    -6174.567   -2631.3385    18804.292    13.674683 
    5820    1125.4592   -6299.9222   -6174.3756   -2552.5451    18797.437    13.655082 
    5830    1156.7839   -6303.2483   -6174.2073    -3059.064    18788.605    13.631381 
    5840    1159.3439   -6303.4238   -6174.0972   -2868.7343    18777.535    13.614028 
    5850    1160.1102   -6303.4769   -6174.0649   -2346.2199    18764.363    13.607814 
    5860    1146.4835   -6301.9777   -6174.0857   -1454.1932     18749.56    13.611746 
    5870    1152.7575   -6302.7722   -6174.1804   -688.60389     18733.79    13.612216 
    5880    1134.8475   -6300.9152   -6174.3213    271.63764    18717.699    13.606056 
    5890    1137.8506   -6301.4415   -6174.5126    687.97881     18701.98    13.610277 
    5900    1104.8645   -6297.9597   -6174.7104    1103.3128     18687.01     13.62938 
    5910    1095.9122   -6297.1267    -6174.876     1100.121    18673.055    13.656288 
    5920    1144.7482   -6302.6995   -6175.0011    654.76937    18660.086    13.697797 
    5930    1179.4931   -6306.7394   -6175.1652    909.26919     18647.87    13.753805 
    5940    1171.0636   -6306.0917   -6175.4578    601.67563    18636.466    13.800969 
    5950    1160.7141   -6305.3501   -6175.8707     -650.971    18625.625    13.823891 
    5960    1149.9906   -6304.6859   -6176.4027   -1277.8993    18614.484    13.835887 
    5970    1104.2316   -6300.1574   -6176.9787   -278.95955    18602.652    13.856478 
    5980     1086.591   -6298.7322   -6177.5213   -169.95765    18590.711    13.893538 
    5990    1078.3392   -6298.2806   -6177.9902   -723.82494    18578.765     13.93956 
    6000    1074.9386   -6298.2756   -6178.3646   -1020.2299     18566.46    13.988563 
    6010    1079.7368   -6299.0902   -6178.6439   -709.16759    18553.595    14.041377 
    6020    1087.7333   -6300.1626   -6178.8243   -100.84274    18540.374    14.096749 
    6030    1108.8202   -6302.6184   -6178.9279    936.01408    18527.292    14.154709 
    6040    1115.0168   -6303.3634   -6178.9816    1934.5344    18515.102     14.20725 
    6050    1112.7763   -6303.1401   -6179.0083    2322.4055    18504.507    14.239973 
    6060    1118.3304   -6303.7717   -6179.0202    2271.4722    18495.806    14.249083 
    6070    1128.0936   -6304.8752   -6179.0346    1862.7793    18488.921    14.245738 
    6080    1127.9647   -6304.8814   -6179.0553    1590.9631    18483.559    14.235953 
    6090    1156.0003   -6308.0639   -6179.1103    996.26048    18479.447    14.227993 
    6100    1150.8241    -6307.605   -6179.2288    1669.6057     18476.25    14.237766 
    6110    1140.2675    -6306.612   -6179.4135    2333.8773    18474.356     14.26471 
    6120    1145.1541   -6307.4252   -6179.6816     2425.906    18474.211    14.301794 
    6130    1118.3537   -6304.7602   -6180.0061    3002.5506    18475.972    14.346351 
    6140    1122.9824    -6305.636   -6180.3656    2396.5849    18479.904    14.390742 
    6150    1137.6487   -6307.6782   -6180.7718    1176.0471    18485.557    14.433452 
    6160    1125.7718   -6306.8226   -6181.2411    846.19131    18492.117    14.479642 
    6170    1116.4966   -6306.3128   -6181.7659    819.80749    18499.271     14.52481 
    6180    1126.8264   -6308.0386   -6182.3394    466.54726    18506.949    14.557792 
    6190     1123.132   -6308.2673   -6182.9802    364.09741    18514.914    14.577811 
    6200    1101.6209   -6306.5465    -6183.659    607.19645    18523.091    14.593276 
    6210    1119.0799    -6309.199    -6184.364    169.19372    18531.589    14.620775 
    6220    1110.3891   -6308.9655   -6185.0999   -167.82536    18540.134    14.670942 
    6230    1092.3007    -6307.687   -6185.8392   -725.67207    18548.427    14.743027 
    6240    1066.3271   -6305.4674   -6186.5171   -1238.0868    18556.083    14.822768 
    6250    1086.6534   -6308.3326   -6187.1147   -2316.0621    18562.653    14.890459 
    6260    1064.0369   -6306.3093   -6187.6144   -2290.9777    18567.463    14.940305 
    6270     1045.897   -6304.6655   -6187.9941   -1568.7826    18570.505    14.962851 
    6280    1059.4145    -6306.405   -6188.2257   -1346.3493    18572.282    14.960168 
    6290    1093.4874   -6310.3021   -6188.3219   -1924.4973    18572.945    14.959509 
    6300      1116.09   -6312.8575    -6188.356   -2201.0605    18572.156    14.988857 
    6310     1115.459   -6312.8044   -6188.3733   -2525.1894    18569.693     15.05138 
    6320    1099.8714   -6311.0696   -6188.3773   -3037.0036    18565.299    15.128532 
    6330    1074.8377   -6308.2262   -6188.3264   -2467.5993    18558.723     15.20126 
    6340    1076.4786    -6308.231   -6188.1482   -2162.9421    18550.329    15.260866 
    6350    1106.1988   -6311.2514   -6187.8533   -1896.5226    18540.399    15.310375 
    6360    1121.3584   -6312.5356   -6187.4464   -1652.7082    18529.156    15.349252 
    6370    1102.1213   -6309.8844   -6186.9411   -921.51616    18516.876    15.366412 
    6380    1093.0543   -6308.2372   -6186.3053   -505.64835    18504.067    15.351162 
    6390    1103.5814   -6308.6113   -6185.5052   -542.25422    18491.049    15.315167 
    6400    1106.2813    -6307.972   -6184.5646   -291.57749    18477.835    15.291434 
    6410    1099.9809   -6306.1989   -6183.4944    274.23758    18464.642    15.294005 
    6420    1114.6522   -6306.6475   -6182.3064    622.14104     18451.87    15.319655 
    6430    1118.7557   -6305.8767   -6181.0778    914.81922    18439.797     15.36206 
    6440    1128.9437   -6305.8233    -6179.888    879.78805    18428.603    15.411764 
    6450    1130.8239   -6304.9598   -6178.8147    853.92932    18418.261    15.463653 
    6460     1122.477   -6303.0997   -6177.8857    1346.8615    18408.808    15.521036 
    6470    1133.5585   -6303.5547   -6177.1046    1205.2396    18400.495    15.579698 
    6480    1123.9999   -6301.8495   -6176.4656     1065.374    18393.253    15.631792 
    6490    1115.9366   -6300.4185   -6175.9341    1039.2573    18386.963    15.678593 
    6500     1139.404    -6302.583   -6175.4808    934.55513    18381.588    15.719967 
    6510    1151.9776   -6303.6244   -6175.1196    539.54532    18377.003    15.750584 
    6520    1169.6372    -6305.358   -6174.8832    591.94344    18372.944    15.776465 
    6530    1151.4393   -6303.1923   -6174.7475    1469.5054    18369.487    15.811081 
    6540    1129.7325   -6300.6972   -6174.6739    1754.1727    18367.162    15.857965 
    6550    1131.6367   -6300.8574   -6174.6216    954.46102    18366.114    15.912922 
    6560     1117.575   -6299.2403   -6174.5732    485.87055    18365.846    15.967614 
    6570    1112.8036   -6298.6645   -6174.5296   -402.62621    18365.902    16.007416 
    6580     1106.973   -6297.9519   -6174.4674   -461.82124    18365.714    16.025217 
    6590    1114.3537    -6298.682   -6174.3742    647.42762    18365.286    16.035045 
    6600     1133.612   -6300.7158   -6174.2596    1292.7392    18365.311    16.054646 
    6610    1157.6552   -6303.3109   -6174.1728    1327.0992    18366.265    16.088377 
    6620     1155.963   -6303.0889   -6174.1395    867.18317    18368.177    16.141801 
    6630    1155.6533   -6303.0904   -6174.1756   -252.48141    18370.657    16.218051 
    6640    1179.0706   -6305.8157   -6174.2886   -2281.6768    18372.818     16.30351 
    6650    1190.4977   -6307.3353   -6174.5335    -3669.958    18373.261    16.380934 
    6660     1168.265   -6305.2678   -6174.9461   -3546.2133    18371.049    16.451653 
    6670    1154.9615   -6304.3117    -6175.474   -2349.6936    18366.329    16.520957 
    6680    1165.0502   -6306.0744   -6176.1112   -1578.9055     18359.92    16.587433 
    6690    1134.5736   -6303.3907   -6176.8273   -717.37997    18352.501    16.647478 
    6700    1128.4849   -6303.4749   -6177.5907   -656.38624    18344.649    16.695713 
    6710    1116.7423   -6302.9263   -6178.3521   -490.88696    18336.494    16.723336 
    6720    1132.4159   -6305.4216   -6179.0989    122.64976    18328.174    16.724629 
    6730    1137.3262   -6306.7358   -6179.8654    1610.6494    18320.171    16.716952 
    6740    1115.0443   -6304.9837   -6180.5988    3109.2397    18313.537    16.716567 
    6750    1133.9653   -6307.8124   -6181.3169    2955.5552    18309.224    16.718979 
    6760    1124.1991   -6307.4036   -6181.9975    2813.9284    18307.204    16.730539 
    6770    1128.8695   -6308.5783   -6182.6512    2499.9798    18307.287    16.754652 
    6780    1118.6874   -6308.0369   -6183.2456    2374.4523    18309.253    16.785756 
    6790    1121.7529   -6308.9156   -6183.7824     1870.899    18312.916    16.818893 
    6800    1127.3102   -6310.0049   -6184.2518    1506.3344    18317.914    16.848121 
    6810    1129.9736   -6310.7359   -6184.6857    1411.1136    18323.948    16.871037 
    6820    1102.7615   -6308.0851   -6185.0704    1759.2456     18330.97    16.890603 
    6830    1082.7522   -6306.1403   -6185.3576    1356.7578    18339.127    16.904167 
    6840    1107.4116   -6309.0708   -6185.5374    754.32511    18348.141    16.915932 
    6850    1135.6727   -6312.3469   -6185.6609    1005.5675    18357.626    16.948379 
    6860    1120.9007   -6310.8176   -6185.7795    1462.8025    18367.722    17.008717 
    6870    1107.2936   -6309.4092    -6185.889    1517.4032    18378.731    17.077501 
    6880    1123.7386   -6311.3163   -6185.9616    1022.6456    18390.675    17.138597 
    6890    1150.1733   -6314.3334   -6186.0298    483.96468      18403.2    17.190274 
    6900    1116.5781   -6310.6821   -6186.1261    729.80792    18415.947    17.229025 
    6910    1081.9165   -6306.8872   -6186.1977    513.18116    18429.002    17.247262 
    6920    1073.7814   -6305.9608   -6186.1789    256.76015    18442.224    17.259879 
    6930    1077.5555   -6306.2709    -6186.068    521.38817    18455.465     17.29171 
    6940    1059.4131   -6304.0399   -6185.8607    363.65117    18468.857    17.350885 
    6950    1064.5824   -6304.3004   -6185.5447    -444.2031    18482.258    17.431657 
    6960    1102.4144   -6308.0963   -6185.1203   -1316.4342    18495.118    17.514292 
    6970    1131.4785    -6310.878   -6184.6599   -1993.1585    18506.767    17.586881 
    6980    1090.3544   -6305.8404   -6184.2097    -1309.201    18516.831    17.649627 
    6990    1079.7993    -6304.218   -6183.7647   -1333.3791    18525.669    17.695459 
    7000    1079.8167   -6303.7166   -6183.2614   -963.71102     18533.39     17.72689 
    7010    1067.2939   -6301.7611   -6182.7029   -400.20671    18540.271    17.752724 
    7020    1057.8928   -6300.0831   -6182.0736   -362.50786    18546.733    17.767936 
    7030    1079.4492   -6301.7969   -6181.3828   -1059.1367    18552.768    17.761489 
    7040    1087.6392   -6301.9959   -6180.6681   -1168.5689    18557.958    17.744752 
    7050    1090.8011   -6301.6676   -6179.9871   -1185.8937    18562.163    17.747103 
    7060    1080.7867   -6299.9101   -6179.3467   -525.63645    18565.457    17.780992 
    7070    1072.4603   -6298.3707   -6178.7362    11.446021      18568.3    17.839777 
    7080    1084.8213    -6299.149   -6178.1355   -159.34677    18571.068    17.900493 
    7090    1128.2342   -6303.4075   -6177.5513   -764.39838    18573.643    17.940024 
    7100    1145.8197   -6304.8601   -6177.0422   -398.53807    18575.664     17.96158 
    7110    1123.4218   -6301.9678   -6176.6484    745.52251    18577.416     17.97901 
    7120    1097.7272    -6298.769   -6176.3159    1172.3437    18579.649    17.991224 
    7130    1084.6507   -6296.9631   -6175.9686     993.1653    18582.719    17.997867 
    7140     1116.716   -6300.1606   -6175.5893   -419.27306    18586.421    18.003156 
    7150    1103.1997   -6298.2573   -6175.1937   -1189.3013    18589.822    18.016002 
    7160    1114.3122   -6299.1088   -6174.8056   -1881.9199    18592.277    18.039307 
    7170    1133.7978   -6300.8969   -6174.4201    -2621.581    18593.264    18.075538 
    7180    1128.1215   -6299.9132   -6174.0695   -3448.1864    18592.223      18.1226 
    7190     1126.764   -6299.4447   -6173.7525   -3846.9703    18588.598    18.166522 
    7200    1143.8202   -6301.0569    -6173.462   -3762.2192    18582.103    18.190468 
    7210    1141.4227   -6300.5437   -6173.2163   -3016.5031    18572.843    18.191784 
    7220    1127.7607   -6298.8098   -6173.0064   -2138.8868    18561.398    18.189271 
    7230    1149.7638   -6301.0786   -6172.8207   -1923.9326    18548.396    18.206746 
    7240    1136.1735    -6299.416   -6172.6742   -904.15209    18534.119    18.247133 
    7250      1100.75   -6295.3167   -6172.5264    508.68856    18519.344    18.292293 
    7260    1117.9946   -6297.0587   -6172.3447    735.71285    18505.024    18.329268 
    7270    1127.7115   -6297.9228   -6172.1249     1006.719     18491.44    18.358149 
    7280    1149.6242   -6300.1637   -6171.9214    1440.1573    18478.763    18.378072 
    7290    1135.2974   -6298.3804   -6171.7362    2373.8208    18467.346    18.397381 
    7300    1129.6286   -6297.5874   -6171.5756    2777.1766    18457.806    18.421047 
    7310    1133.1535   -6297.8225   -6171.4176     2276.217    18450.404    18.452776 
    7320     1140.194   -6298.4681   -6171.2777    1597.8605     18444.79    18.496187 
    7330    1150.1946   -6299.4663   -6171.1604     1009.481    18440.445    18.542054 
    7340    1172.2415   -6301.8606   -6171.0953    733.01797    18436.927    18.573377 
    7350    1183.6249   -6303.1753   -6171.1402    362.40807    18433.986    18.588364 
    7360    1182.7737   -6303.2822    -6171.342   -515.28651    18431.324      18.5824 
    7370    1149.4556   -6299.9275    -6171.704   -621.08426    18428.365    18.559685 
    7380    1121.2856   -6297.2485   -6172.1674   -382.63871     18424.98    18.541968 
    7390    1120.3442   -6297.6696   -6172.6935   -553.98356    18421.288    18.533947 
    7400    1103.0841   -6296.3121   -6173.2615    388.75413    18417.281    18.541063 
    7410    1113.7277   -6298.0999   -6173.8619    1404.9366    18413.591    18.553763 
    7420    1134.3074   -6301.0681   -6174.5344    1879.4506    18410.945    18.553101 
    7430    1122.2887   -6300.4935   -6175.3005    2829.1556    18409.784    18.530137 
    7440    1118.3537   -6300.8981    -6176.144    3579.0921    18410.776    18.493847 
    7450    1122.9707   -6302.2984   -6177.0293    2940.9184    18414.381    18.470701 
    7460    1112.1338   -6302.0145   -6177.9543    2060.4474    18420.181    18.470143 
    7470    1099.7916   -6301.5387   -6178.8553     1367.732    18427.546    18.490996 
    7480    1117.8163   -6304.4192   -6179.7251    117.18065    18435.878    18.543054 
    7490    1107.5605   -6304.0953   -6180.5453   -338.81876    18444.338    18.619317 
    7500    1078.2348   -6301.5551   -6181.2764   -99.702942    18452.572    18.699417 
    7510    1090.6362   -6303.5421   -6181.8799   -798.71883    18460.622    18.767939 
    7520    1121.9397   -6307.5346   -6182.3805    -1482.499    18468.077    18.823144 
    7530    1129.8758    -6308.888   -6182.8487   -1958.5929    18474.386    18.871247 
    7540    1097.7265   -6305.7268   -6183.2738    -1802.417    18479.248    18.924542 
    7550    1082.6409   -6304.3895   -6183.6193   -2535.9362    18482.647    18.992573 
    7560    1080.4153   -6304.3691   -6183.8471    -2710.562    18484.161    19.072057 
    7570    1094.0007   -6306.0331   -6183.9957   -2402.1338    18483.627     19.15196 
    7580    1065.4533   -6302.8996   -6184.0466   -1453.9505    18481.317    19.224273 
    7590    1082.0963   -6304.7033   -6183.9939   -1504.3538    18477.829    19.282261 
    7600    1101.2285   -6306.6919   -6183.8482   -2157.3801    18473.158    19.323189 
    7610    1076.6272   -6303.7376   -6183.6382   -1619.7965    18466.948    19.345149 
    7620    1076.7747   -6303.4668   -6183.3509   -1021.7498    18459.519    19.350553 
    7630    1096.1109   -6305.2388   -6182.9659   -90.057158    18451.341    19.358132 
    7640     1093.943   -6304.5506   -6182.5197    1413.6363    18443.159    19.383492 
    7650    1116.0428   -6306.5284   -6182.0322    1320.0047     18435.94    19.421478 
    7660     1115.185   -6305.9348   -6181.5343    1273.2341     18429.74    19.459286 
    7670    1113.1557   -6305.2176   -6181.0434    1300.9259    18424.496    19.488154 
    7680    1128.2343   -6306.4208   -6180.5645    1269.3325    18420.234    19.506274 
    7690    1135.8018   -6306.8239   -6180.1235    1830.9925    18416.971    19.518304 
    7700    1116.4486   -6304.2722   -6179.7306    2935.9738    18415.141    19.540685 
    7710    1087.8806   -6300.7138   -6179.3591    3313.4283    18415.487    19.583125 
    7720    1093.2838   -6300.9247   -6178.9672    2104.8837    18418.228    19.645627 
    7730     1108.613   -6302.2246   -6178.5572    1324.7123    18422.602    19.730195 
    7740    1105.4973   -6301.4701   -6178.1502    1381.2688    18428.062    19.839413 
    7750    1104.2682   -6300.9441   -6177.7613    1203.8012     18434.58    19.958035 
    7760    1122.0252   -6302.5695   -6177.4059    468.67467    18441.984    20.059838 
    7770    1127.9693   -6302.9179   -6177.0912    63.619646     18449.81    20.134143 
    7780    1139.9672    -6304.004   -6176.8389   -147.00975    18457.723    20.179067 
    7790    1169.1339   -6307.0884   -6176.6697   -56.975765    18465.582    20.217007 
    7800     1154.996   -6305.4576    -6176.616    660.03481     18473.47    20.278111 
    7810    1121.3822   -6301.7164   -6176.6245     1203.212    18481.873    20.356168 
    7820    1118.1564   -6301.3693   -6176.6372    1158.9527    18491.194    20.426421 
    7830    1123.5902   -6301.9725   -6176.6343     794.4506    18501.414    20.476457 
    7840    1128.1778   -6302.4828   -6176.6329    606.23379    18512.287    20.518675 
    7850     1118.474   -6301.3879   -6176.6205    1198.0441     18523.74    20.573267 
    7860    1134.8669   -6303.2129   -6176.6168    939.25435    18536.098    20.643093 
    7870    1149.2187   -6304.8245   -6176.6274     53.97448    18549.205    20.719759 
    7880    1137.8643   -6303.6131   -6176.6827   -405.99952    18562.452    20.803275 
    7890    1115.4904   -6301.1902   -6176.7555   -167.60326    18575.512    20.886548 
    7900    1126.6687   -6302.5062   -6176.8246   -513.79837    18588.457    20.962778 
    7910    1115.2033   -6301.2775   -6176.8749   -501.09161    18601.103    21.047296 
    7920    1092.8698   -6298.8235   -6176.9122   -488.04825    18613.409    21.140337 
    7930    1063.0259   -6295.4478   -6176.8657   -100.60865    18625.437    21.229581 
    7940    1091.7474   -6298.4964   -6176.7103   -535.04587    18637.371    21.307783 
    7950    1120.5418   -6301.4588   -6176.4606   -1079.7917    18648.957    21.366693 
    7960    1134.5122   -6302.7414   -6176.1848   -1741.6234    18659.748     21.39907 
    7970    1140.7298   -6303.1712   -6175.9211   -1871.2365    18669.283    21.417276 
    7980    1117.2054   -6300.3082   -6175.6823   -1591.9653    18677.449    21.440133 
    7990    1108.4768   -6299.0789   -6175.4267   -1880.4741    18684.381     21.46837 
    8000    1124.8942   -6300.6161   -6175.1325   -2151.8188    18689.889     21.49715 
    8010    1122.8876    -6300.067   -6174.8072   -2153.0201     18693.77    21.542554 
    8020    1149.2521   -6302.6647   -6174.4639   -2186.2917    18695.992    21.611411 
    8030     1148.057   -6302.1982   -6174.1307   -1352.2938    18696.581    21.704378 
    8040    1132.7109   -6300.1744   -6173.8187   -158.13195    18696.157    21.812124 
    8050    1172.6412   -6304.3382   -6173.5283   -154.33684    18695.516    21.920934 
    8060    1146.2958    -6301.148   -6173.2769    110.30127    18694.792     22.01344 
    8070    1119.1288   -6297.9042   -6173.0637    107.43385    18694.127    22.083091 
    8080    1110.7405   -6296.7151   -6172.8104   -181.14551    18693.515    22.147185 
    8090    1135.8761    -6299.204   -6172.4954   -849.92879    18692.724    22.215863 
    8100    1128.0712   -6297.9664   -6172.1284   -1079.3049    18691.299    22.284728 
    8110    1115.1895    -6296.112   -6171.7109   -627.19989    18689.088      22.3382 
    8120    1129.3019   -6297.1748   -6171.1995   -757.74127    18686.334    22.356586 
    8130    1156.8032   -6299.6469   -6170.6038    -1482.707    18682.925    22.336604 
    8140      1156.92    -6299.022   -6169.9659   -1318.1071    18678.416    22.302245 
    8150    1152.7681   -6297.9091   -6169.3161   -1364.1821    18672.815    22.266855 
    8160    1157.6859   -6297.8031   -6168.6615   -1818.7227    18666.085    22.231984 
    8170    1120.8168   -6293.0225   -6167.9937   -1252.1686    18657.991    22.206882 
    8180    1123.6716   -6292.6387   -6167.2915   -758.95787     18648.84    22.210752 
    8190    1114.1313   -6290.8015   -6166.5185    169.38444    18639.098    22.256626 
    8200    1159.4893   -6295.0366   -6165.6938   -282.25528    18629.332    22.327597 
    8210    1169.1294   -6295.2805   -6164.8623   -302.93185    18619.328    22.392646 
    8220    1176.5088   -6295.3555   -6164.1142    812.58435    18609.128    22.446933 
    8230    1180.2189   -6295.1183   -6163.4631    1642.8125    18599.487    22.487779 
    8240    1161.6047    -6292.505   -6162.9262     2052.558    18591.049    22.508497 
    8250    1168.3597   -6292.8247   -6162.4924    1692.5612    18584.111    22.514944 
    8260    1162.2663   -6291.7989   -6162.1463    1893.8373    18578.518    22.519678 
    8270    1158.4731     -6291.12   -6161.8905    2381.5304    18574.394    22.536758 
    8280    1159.6787    -6291.074   -6161.7101    2566.0729    18572.073    22.581118 
    8290    1172.5134   -6292.4076    -6161.612    2783.4918    18571.726     22.64968 
    8300    1200.9398   -6295.6098   -6161.6432     2826.601    18573.525     22.72459 
    8310    1207.6778   -6296.5773   -6161.8591    2525.0987    18577.503    22.800114 
    8320    1207.2083   -6296.9715   -6162.3056    1580.3618     18583.39    22.865952 
    8330    1172.1212   -6293.7079    -6162.956    1342.6245    18590.591    22.913556 
    8340    1161.2083   -6293.2949   -6163.7604    1627.4034    18598.889    22.949452 
    8350    1171.1329   -6295.3389   -6164.6973    1768.0376    18608.482    22.983199 
    8360    1171.9372   -6296.5224    -6165.791    1462.5275    18619.452    23.008405 
    8370    1136.9703   -6293.7684   -6166.9376    1649.5556    18631.679     23.02882 
    8380    1159.7154   -6297.4599   -6168.0919    461.03794    18645.133    23.049759 
    8390    1162.8104   -6298.9154   -6169.2022   -169.19973    18659.067    23.089759 
    8400    1124.1519   -6295.6088    -6170.208    589.79142    18673.047    23.153796 
    8410    1121.7441   -6296.1808   -6171.0486    1045.7166    18687.539    23.224998 
    8420    1139.7279   -6298.8629   -6171.7245    609.85498    18702.871    23.289397 
    8430    1135.0545   -6298.9168   -6172.2998    922.96994    18718.836    23.349854 
    8440    1119.4229   -6297.6391   -6172.7658    1030.5676    18735.588    23.414592 
    8450    1115.0929   -6297.5024   -6173.1121    879.84022    18753.228     23.48935 
    8460    1132.9036   -6299.7818   -6173.4047    573.83838    18771.639     23.56554 
    8470    1115.5467     -6298.08   -6173.6391   -104.68126    18790.579    23.626137 
[...]
   22890    1085.2058   -6279.3659   -6158.3096   -2182.7871    19072.135    101.23223 
   22900    1099.2008   -6280.2971   -6157.6796   -2217.9239     19075.98    101.24004 
   22910    1089.6709   -6278.4849   -6156.9305   -1759.0868    19078.107    101.23785 
   22920     1113.343   -6280.2765   -6156.0815    -2157.711    19078.737    101.25451 
   22930    1156.5953   -6284.1674   -6155.1474   -3581.7337    19077.536    101.27652 
   22940     1190.969   -6287.1015   -6154.2471   -4377.8354    19073.455    101.29511 
   22950    1190.8893   -6286.3569   -6153.5115   -3645.4249    19065.903    101.34202 
   22960    1193.3343   -6286.0852    -6152.967   -2833.2548    19055.357     101.4172 
   22970     1182.999   -6284.5469   -6152.5816   -2338.1803    19042.445    101.50206 
   22980    1176.3023   -6283.5612   -6152.3429   -2078.0192    19027.575    101.57235 
   22990     1187.187   -6284.6714   -6152.2389   -2106.5769    19010.948    101.60293 
   23000    1184.7624   -6284.4461   -6152.2841   -2060.3357    18992.587    101.58321 
   23010    1188.3697   -6285.0652   -6152.5007   -1821.4998    18972.537    101.52405 
   23020    1142.0594   -6280.2188   -6152.8204    47.615409    18951.133    101.45785 
   23030    1148.0409   -6281.2598   -6153.1941    1391.8282    18929.688    101.41546 
   23040    1157.3213   -6282.7079   -6153.6069    2420.8921    18909.349    101.39027 
   23050    1148.2813   -6282.1594   -6154.0669     2470.196    18890.884    101.33859 
   23060    1166.4459   -6284.7491   -6154.6303    1508.4978    18874.321    101.27166 
   23070    1127.0513   -6281.0034   -6155.2791    1474.4871    18859.044    101.23533 
   23080    1103.9025   -6279.0912   -6155.9492    1559.9282    18844.947    101.22286 
   23090    1119.1046   -6281.4397   -6156.6019    1522.7656    18832.097    101.21111 
   23100    1123.0578   -6282.5112   -6157.2324    1811.5914    18820.504     101.2053 
   23110    1124.5452   -6283.2972   -6157.8525    2014.1841    18810.359    101.23139 
   23120    1122.4635   -6283.6674   -6158.4549     1779.235    18801.811     101.2792 
   23130    1131.8521   -6285.3259   -6159.0661    1095.2888    18794.653     101.3175 
   23140    1142.5005   -6287.1359   -6159.6882    591.87946    18788.398    101.35416 
   23150    1169.9123   -6290.8446   -6160.3391   -161.18179     18782.61    101.41516 
   23160    1178.5822   -6292.5461   -6161.0735   -684.16813    18776.732     101.4862 
   23170    1130.0349   -6287.9041    -6161.847    12.596158    18770.438    101.54118 
   23180    1070.0996    -6281.892   -6162.5208    1174.9106    18764.214    101.56636 
   23190    1066.4755   -6281.9612   -6162.9942    1860.7206    18758.919    101.58641 
   23200    1102.2188   -6286.2757   -6163.3216    1992.7069    18755.069    101.63809 
   23210    1101.8361   -6286.4531   -6163.5416    2063.5066     18752.82    101.72334 
   23220    1107.5803   -6287.2406   -6163.6883    1964.5436    18752.193    101.81941 
   23230    1094.0499    -6285.768   -6163.7251    2631.8777    18753.188    101.86116 
   23240    1118.2706   -6288.4702   -6163.7255    2736.9492    18756.172      101.826 
   23250    1085.1079   -6284.7365   -6163.6911    3568.2462    18761.365    101.75845 
   23260    1053.4174   -6281.1077   -6163.5974    4026.5594    18769.309    101.70334 
   23270    1063.6784   -6282.0511   -6163.3962    2982.2124     18780.26    101.70991 
   23280     1084.537   -6284.0851   -6163.1034    1680.2081    18793.471    101.78583 
   23290    1076.3409   -6282.8293   -6162.7619    1440.4398    18808.006    101.89525 
   23300    1073.6827   -6282.1464   -6162.3755    1442.3406    18823.604    101.99234 
   23310    1089.7311   -6283.5049   -6161.9438    1295.8604    18840.239    102.06578 
   23320    1118.6374   -6286.2704   -6161.4847    1291.2294    18857.827    102.14145 
   23330    1135.7686   -6287.7408   -6161.0441    1291.3517    18876.319    102.24121 
   23340    1124.1137   -6286.0435   -6160.6469    1312.7483    18895.727    102.38537 
   23350    1114.4451   -6284.5909   -6160.2728    700.33276    18916.005     102.5741 
   23360    1115.7654   -6284.3567   -6159.8914   -488.29927    18936.651    102.76363 
   23370    1129.8756   -6285.5333    -6159.494   -1532.5626    18956.782      102.911 
   23380    1144.9542   -6286.8338   -6159.1125    -2013.302    18975.556     103.0272 
   23390     1116.799   -6283.3537   -6158.7731   -1165.1801    18992.686     103.1447 
   23400    1103.1532   -6281.5011   -6158.4427   -1017.7102    19008.688    103.26269 
   23410    1100.6965   -6280.8491   -6158.0647   -1282.6973    19023.712    103.38018 
   23420    1128.2223   -6283.4978   -6157.6429   -2131.1596     19037.53    103.52085 
   23430    1145.9601   -6285.0462   -6157.2126    -3046.139    19049.508    103.68892 
   23440    1147.1246   -6284.7867   -6156.8232   -2951.6152    19059.003    103.85363 
   23450    1139.0286   -6283.5527   -6156.4924   -1834.9613     19066.09     103.9839 
   23460    1123.1762   -6281.4792   -6156.1872    -797.0119    19071.643    104.08965 
   23470    1145.5311   -6283.6835   -6155.8978   -1508.6059    19076.367    104.16454 
   23480    1141.0565   -6282.9256    -6155.639    -1862.921    19079.868    104.19186 
   23490    1131.6163   -6281.6492   -6155.4157   -1658.8487    19081.871    104.18912 
   23500    1133.3133   -6281.6292   -6155.2064   -786.24837    19082.589    104.20336 
   23510     1154.485   -6283.7976    -6155.013   -922.40539    19082.583     104.2304 
   23520    1151.7959   -6283.3501   -6154.8656   -1025.1098    19081.839    104.23804 
   23530     1106.201   -6278.1376   -6154.7393   -324.53285    19080.355    104.21791 
   23540    1156.1468   -6283.5892   -6154.6193    -950.2818    19078.511    104.17278 
   23550    1184.3265    -6286.647   -6154.5336   -1596.0636    19075.928    104.10452 
   23560    1164.2399   -6284.4592   -6154.5864    -1767.909    19072.108    103.99545 
   23570    1141.0224   -6282.0252   -6154.7424   -1434.2492    19066.936    103.84016 
   23580    1151.4776   -6283.4332   -6154.9841    -673.3765    19060.677     103.7019 
   23590     1167.985   -6285.6085   -6155.3181    -69.16872    19053.927     103.6191 
   23600     1164.914   -6285.7561   -6155.8082   -450.19415    19047.104    103.56452 
   23610     1126.193   -6282.0805    -6156.452    98.218763    19040.071    103.50678 
   23620    1113.7705   -6281.4368    -6157.194    429.90151    19033.155    103.41358 
   23630    1150.1477   -6286.3429   -6158.0422   -355.59984    19026.577    103.30343 
   23640    1158.6897   -6288.3086    -6159.055   -1491.7609    19019.759    103.24082 
   23650    1125.5877   -6285.7565   -6160.1955   -2016.9261    19011.856    103.25613 
   23660    1109.5418   -6285.1256   -6161.3546   -2530.4743    19002.437    103.29263 
   23670    1118.2743   -6287.2297   -6162.4846   -3052.1128    18991.088    103.30416 
   23680    1117.8467   -6288.2511   -6163.5536   -2963.7202    18977.464    103.28908 
   23690    1109.0637   -6288.2419   -6164.5242   -2713.2604    18961.671    103.23338 
   23700    1090.8878   -6287.0486   -6165.3584   -2214.8289    18943.945    103.12778 
   23710    1065.4922   -6284.8537   -6165.9964   -1568.6675    18924.722    102.99618 
   23720    1078.9168    -6286.825   -6166.4702   -1500.0775    18904.489    102.87891 
   23730    1060.6175   -6285.1039   -6166.7904   -676.71811    18883.442    102.81189 
   23740    1050.9984   -6284.1683   -6166.9279    367.50362    18862.213    102.80639 
   23750    1086.7712    -6288.128    -6166.897    865.73915    18841.591    102.80737 
   23760    1131.5603   -6293.0124   -6166.7852    1269.3147    18822.005    102.79382 
   23770    1125.6892   -6292.2391   -6166.6667    1863.5368    18803.764    102.79212 
   23780    1123.1146   -6291.8304   -6166.5453    1935.5137    18787.276     102.7828 
   23790    1139.4772    -6293.545   -6166.4346    1403.8439    18772.571    102.75793 
   23800    1132.9796   -6292.7564   -6166.3709    1455.8906    18759.278    102.72777 
   23810    1120.4758   -6291.3217    -6166.331    1904.6458    18747.405    102.66818 
   23820    1108.6402   -6289.9468   -6166.2763    2344.8563    18737.249    102.58209 
   23830    1111.3155   -6290.1576   -6166.1886    2848.0817    18729.115    102.50558 
   23840    1133.4665   -6292.5211   -6166.0812    3009.7381    18723.348    102.45192 
   23850    1143.0564     -6293.51   -6166.0003    2366.4084    18719.967    102.41011 
   23860    1148.7041   -6294.0984   -6165.9587    1829.5329    18718.495    102.40409 
   23870    1138.0617   -6292.9247   -6165.9722    1897.2986    18718.518    102.45103 
   23880    1127.2302   -6291.7558   -6166.0115    1962.7728     18720.01     102.5034 
   23890     1132.772   -6292.4407   -6166.0783    1820.6271    18722.978      102.512 
   23900    1101.7881   -6289.0468   -6166.1407     1874.228    18727.334    102.51127 
   23910    1106.2554   -6289.5836   -6166.1791    1209.4051    18732.992    102.54011 
   23920    1113.2351   -6290.3365   -6166.1535      942.283    18739.511    102.60569 
   23930    1131.9948    -6292.387   -6166.1113    989.26213    18746.652    102.71773 
   23940    1121.3153    -6291.139   -6166.0545    1539.5164    18754.471    102.88867 
   23950    1119.9614    -6290.923   -6165.9896    1786.7231    18763.328    103.06878 
   23960    1129.0868    -6291.873   -6165.9217    1800.6131     18773.39       103.18 
   23970    1122.3058   -6291.0512   -6165.8563    2058.5589    18784.676    103.22251 
   23980    1109.6107   -6289.5427    -6165.764    1569.8864     18797.28    103.24757 
   23990    1091.8384   -6287.3878   -6165.5916    586.53553    18810.815    103.31047 
   24000     1076.316   -6285.3354   -6165.2708    95.394108    18824.569    103.44929 
   24010    1083.6431   -6285.6554   -6164.7734   -298.94865      18838.1    103.66882 
   24020    1093.7354   -6286.0821   -6164.0743   -382.79715    18851.144    103.92342 
   24030    1078.5223   -6283.4902   -6163.1794   -4.2394099    18863.643    104.15879 
   24040    1091.1015   -6283.8261   -6162.1121    24.276631    18875.827    104.32566 
   24050    1129.2668   -6286.8594    -6160.888   -201.25271     18887.76     104.4212 
   24060    1142.3107   -6287.0664   -6159.6399   -377.08356    18899.284    104.48066 
   24070    1130.3296   -6284.5722   -6158.4822   -487.34753    18910.266    104.54878 
   24080    1119.2028   -6282.3057   -6157.4569   -418.96254    18920.635    104.65295 
   24090      1131.36   -6282.7354   -6156.5305   -513.55875    18930.443    104.80925 
   24100    1146.6909   -6283.6183   -6155.7032   -829.05458    18939.612    105.00392 
   24110     1124.638   -6280.4431   -6154.9881   -520.37884    18947.977    105.17945 
   24120    1141.0475    -6281.664   -6154.3784   -209.32188    18955.737     105.2909 
   24130    1141.1153   -6281.1384   -6153.8453    532.86159    18963.203    105.35545 
   24140    1140.6155   -6280.6452   -6153.4078    1398.9392    18970.943    105.39892 
   24150    1145.6594   -6280.8474   -6153.0473    2178.6922    18979.641    105.44142 
   24160    1161.3471   -6282.3108   -6152.7608     2131.609    18989.835    105.50108 
   24170    1172.1747    -6283.321   -6152.5631    1773.3304     19001.51     105.5944 
   24180    1175.2931   -6283.5881   -6152.4824    1271.5485    19014.372    105.70429 
   24190    1195.5684   -6285.8868   -6152.5194    75.019573    19027.965    105.80676 
   24200    1202.5281   -6286.8499   -6152.7061   -919.60198    19041.382    105.92254 
   24210    1185.0475   -6285.2628    -6153.069   -1683.7781    19053.816    106.05392 
   24220    1165.9387   -6283.6159   -6153.5537   -2524.9013    19064.671    106.19361 
   24230    1169.4799   -6284.6059   -6154.1486   -2959.3162    19073.336    106.34435 
   24240    1140.8405   -6282.0841   -6154.8216   -2493.4752    19079.529    106.49044 
   24250    1133.0161   -6281.9121   -6155.5225   -2086.9641    19083.606    106.58344 
   24260    1159.6927   -6285.6177   -6156.2522   -2450.7711    19085.869    106.60854 
   24270    1143.2523   -6284.5529   -6157.0214   -2213.4468    19086.167    106.57372 
   24280    1122.1822   -6282.9721    -6157.791    -1764.735    19084.675    106.53784 
   24290    1136.7238   -6285.3217   -6158.5184   -1475.0178    19081.788    106.56694 
   24300    1143.4462   -6286.7866   -6159.2334    -1886.413    19077.708     106.6381 
   24310    1128.8224   -6285.8414   -6159.9196   -2254.6663     19072.18    106.66578 
   24320    1144.1848   -6288.2118   -6160.5763   -2219.5998    19064.957    106.63537 
   24330    1137.7785   -6288.1342   -6161.2133   -1870.5489    19056.082    106.58443 
   24340     1109.664   -6285.5774   -6161.7927   -1338.4254    19045.859    106.52409 
   24350    1119.7417   -6287.1979    -6162.289   -936.37889    19034.717    106.47699 
   24360     1149.494   -6290.9718    -6162.744    -1259.535    19022.921    106.48896 
   24370    1140.3671   -6290.4048   -6163.1952    -1391.038    19010.314    106.53119 
   24380    1127.5996   -6289.4254     -6163.64   -1790.2841    18996.742    106.52694 
   24390    1124.2041   -6289.4534   -6164.0467   -1659.6674    18981.977    106.45975 
   24400    1129.3762   -6290.3987   -6164.4151   -1042.4048    18966.119    106.35948 
   24410    1125.1142   -6290.2566   -6164.7484     156.0325    18949.704    106.26895 
   24420     1142.241   -6292.4829   -6165.0642    243.51409    18933.547    106.19866 
   24430    1129.6985   -6291.4035    -6165.384    114.68125    18917.783    106.14986 
   24440    1116.2273   -6290.1988    -6165.682    268.84977    18902.339    106.14015 
   24450     1145.743   -6293.7772   -6165.9679    200.76525    18887.275    106.16962 
   24460    1117.1973   -6290.8706   -6166.2456      960.785    18872.632    106.20959 
   24470    1093.1719   -6288.4316   -6166.4866    1406.1864    18858.895    106.22847 
   24480    1086.9136   -6287.8894   -6166.6426    1496.1495    18846.415    106.25005 
   24490    1089.7294   -6288.2775   -6166.7166    1538.1771     18835.25    106.27291 
   24500    1079.1588   -6287.0845   -6166.7028    1694.7597    18825.429     106.2705 
   24510    1087.8917   -6287.9613   -6166.6053    1331.3079    18817.008    106.25244 
   24520     1101.249   -6289.2823   -6166.4363    665.85678    18809.705    106.26536 
   24530    1129.6371   -6292.2429   -6166.2302   -175.00297    18802.985    106.30862 
   24540    1123.6076    -6291.362   -6166.0219    224.44464    18796.298    106.33117 
   24550    1086.9793   -6287.0504   -6165.7963    980.01643    18789.885    106.31137 
   24560    1090.6963   -6287.1765   -6165.5077    1139.3286    18784.258    106.30924 
   24570     1092.177   -6286.9561   -6165.1221    1522.2905    18779.605    106.38707 
   24580      1101.96   -6287.5835   -6164.6582    1297.9441    18776.131    106.52893 
   24590    1096.8269   -6286.4828   -6164.1301    1151.8125    18773.726    106.68904 
   24600    1098.3303   -6286.0636   -6163.5432    881.92164    18772.234    106.83288 
   24610     1102.131    -6285.835   -6162.8907    681.88488    18771.447    106.94213 
   24620    1112.3929   -6286.2655   -6162.1764    811.88752    18771.232    107.06292 
   24630    1126.2146   -6287.0551   -6161.4241    1499.8222    18771.686    107.21176 
   24640    1135.2001    -6287.311   -6160.6777    2651.3662     18773.35    107.34111 
   24650    1161.3769   -6289.5316   -6159.9783    3453.4449    18777.085    107.42279 
   24660    1172.9384   -6290.2142   -6159.3712    3301.1701    18783.449    107.49228 
   24670    1169.6874   -6289.3918   -6158.9114    2935.3397    18792.362    107.58587 
   24680    1144.9713   -6286.3024   -6158.5792    2652.8401    18803.566    107.73873 
   24690    1150.2075   -6286.6495   -6158.3421    1644.3748    18816.744    107.94402 
   24700    1103.9268   -6281.2874   -6158.1427    1539.4686    18831.255    108.14721 
   24710    1118.7713   -6282.7605   -6157.9598     594.0061     18846.86     108.3095 
   24720    1173.9768   -6288.7391   -6157.7802   -1278.0955    18862.799    108.45601 
   24730    1157.9733   -6286.8672   -6157.6935   -1555.6479    18877.802    108.61498 
   24740    1107.9057   -6281.2626   -6157.6741   -327.46231    18891.658    108.77914 
   24750    1124.7288   -6283.1284   -6157.6632    61.765108    18905.128    108.89944 
   24760     1147.286   -6285.6291   -6157.6476    388.89635    18918.613    108.95785 
   24770    1159.4768   -6287.0241   -6157.6827    990.42351    18932.402     108.9674 
   24780    1164.1138   -6287.6431   -6157.7845    1114.0457    18946.926    108.97124 
   24790    1167.7016   -6288.2151   -6157.9562    538.80349    18962.248     109.0301 
   24800    1140.0785   -6285.3391   -6158.1616    688.78545    18978.032    109.13677 
   24810    1125.2151   -6283.8944    -6158.375    1003.6176     18994.35    109.25119 
   24820    1096.9513    -6280.917   -6158.5504    1015.9879    19011.434    109.33983 
   24830     1071.404   -6278.1555   -6158.6388    1064.4134    19029.327    109.36604 
   24840    1076.5108   -6278.7158   -6158.6294    1039.2433    19048.051    109.33314 
   24850    1096.2457   -6280.8079     -6158.52    485.03772    19067.552    109.30603 
   24860    1122.6091   -6283.5906   -6158.3618   -181.36458    19087.412    109.33149 
   24870    1120.6758   -6283.2032   -6158.1901    -462.2819    19107.127    109.39355 
   24880    1133.9115   -6284.5067   -6158.0172   -1350.5632    19126.387    109.46533 
   24890    1142.3607   -6285.2723   -6157.8402   -2365.3753    19144.525    109.52826 
   24900    1131.1936   -6283.8849   -6157.6985   -2910.8662    19160.729    109.58076 
   24910    1100.3299   -6280.3043   -6157.5608   -2806.3542    19174.588    109.63858 
   24920    1092.5363   -6279.2618   -6157.3878   -3457.3703    19186.054    109.68731 
   24930    1104.4057   -6280.3436   -6157.1455    -4045.878    19194.662    109.69707 
   24940    1130.3647   -6282.9512   -6156.8573   -4009.3037     19199.97    109.69394 
   24950     1149.093   -6284.7611    -6156.578   -3514.9514    19202.008    109.71372 
   24960    1140.2788   -6283.5402   -6156.3404   -3237.4023    19201.143     109.7643 
   24970    1133.4037   -6282.5742   -6156.1413   -3123.1196    19197.626    109.84809 
   24980    1135.1715   -6282.5894   -6155.9593   -3035.7819    19191.552    109.93557 
   24990    1166.5152   -6285.9284   -6155.8019   -2866.3287    19183.021     109.9911 
   25000    1191.3248   -6288.6238   -6155.7297     -2339.63    19172.188    109.99219 
Loop time of 16863.9 on 16 procs for 20000 steps with 864 atoms

Performance: 0.102 ns/day, 234.221 hours/ns, 1.186 timesteps/s
95.6% CPU use with 16 MPI tasks x 1 OpenMP threads

MPI task timing breakdown:
Section |  min time  |  avg time  |  max time  |%varavg| %total
---------------------------------------------------------------
Pair    | 13496      | 15127      | 16430      | 705.4 | 89.70
Bond    | 0.0018368  | 0.0053805  | 0.022238   |   6.6 |  0.00
Neigh   | 0.27133    | 0.29783    | 0.32477    |   2.5 |  0.00
Comm    | 264.79     | 1510       | 3197.2     |2239.8 |  8.95
Output  | 1.2336     | 1.2569     | 1.6031     |   8.0 |  0.01
Modify  | 121.36     | 225.41     | 348.76     | 539.2 |  1.34
Other   |            | 0.1117     |            |       |  0.00

Nlocal:        54.0000 ave          61 max          43 min
Histogram: 1 0 1 0 2 3 3 3 1 2
Nghost:        519.875 ave         546 max         502 min
Histogram: 4 1 2 0 2 3 1 0 1 2
Neighs:         0.00000 ave           0 max           0 min
Histogram: 16 0 0 0 0 0 0 0 0 0
FullNghs:      2407.25 ave        2777 max        1789 min
Histogram: 1 1 0 0 2 1 5 3 0 3

Total # of neighbors = 38516
Ave neighs/atom = 44.578704
Ave special neighs/atom = 0.0000000
Neighbor list builds = 2000
Dangerous builds = 2000
unfix   3
                
Total wall time: 5:50:15
