LAMMPS (29 Sep 2021 - Update 3)
OMP_NUM_THREADS environment is not set. Defaulting to 1 thread. (src/comm.cpp:98)
  using 1 OpenMP thread(s) per MPI task
Reading data file ...
  orthogonal box = (0.0000000 0.0000000 0.0000000) to (15.502212 15.402052 70.841525)
  2 by 1 by 8 MPI processor grid
  reading atoms ...
  864 atoms
Finding 1-2 1-3 1-4 neighbors ...
  special bond factors lj:    0        0        0       
  special bond factors coul:  0        0        0       
     0 = max # of 1-2 neighbors
     0 = max # of 1-3 neighbors
     0 = max # of 1-4 neighbors
     1 = max # of special neighbors
  special bonds CPU = 0.001 seconds
  read_data CPU = 0.007 seconds
Neighbor list info ...
  update every 1 steps, delay 10 steps, check yes
  max neighbors/atom: 2000, page size: 100000
  master list distance cutoff = 6.22
  ghost atom cutoff = 6.22
  binsize = 3.11, bins = 5 5 23
  1 neighbor lists, perpetual/occasional/extra = 1 0 0
  (1) pair quip, perpetual
      attributes: full, newton on
      pair build: full/bin
      stencil: full/bin/3d
      bin: standard
Setting up Verlet run ...
  Unit style    : metal
  Current step  : 0
  Time step     : 0.001
Per MPI rank memory allocation (min/avg/max) = 8.904 | 8.909 | 8.916 Mbytes
Step Temp PotEng TotEng Press Volume c_msd[4] 
       0            0   -6414.6092   -6414.6092   -8996.9866    16914.539            0 
      10    95.860065   -6425.3161   -6414.6228   -10882.275    16914.539 0.00077933166 
      20    229.03731    -6440.185   -6414.6355   -12475.142    16914.539 0.0093775226 
      30    249.34477   -6442.4428    -6414.628     -10213.3    16914.539  0.030212741 
      40    248.24655    -6442.315   -6414.6227   -8336.8682    16914.539  0.053808265 
      50    285.14769    -6446.437   -6414.6283   -8615.1952    16914.539  0.072000809 
      60    292.72184   -6447.2808   -6414.6272   -9342.9381    16914.539  0.087153748 
      70    280.17142   -6445.8771   -6414.6236   -9869.2499    16914.539   0.10198109 
      80    281.19207   -6445.9951   -6414.6277    -10294.65    16914.539   0.11798926 
      90    268.26029   -6444.5494   -6414.6246   -9784.8729    16914.539   0.13582886 
     100    263.60742   -6444.0319   -6414.6261   -9260.1077    16914.539   0.15297691 
     110    266.81408   -6444.3885    -6414.625   -9324.2282    16914.539   0.16905869 
     120    277.26539   -6445.5556   -6414.6262   -9888.0881    16914.539    0.1846357 
     130    285.07553   -6446.4267   -6414.6261    -10213.05    16914.539   0.20084172 
     140    284.14138   -6446.3223   -6414.6259   -10193.515    16914.539   0.21791648 
     150    279.03191   -6445.7517   -6414.6253   -10301.408    16914.539   0.23440376 
     160    280.06863   -6445.8685   -6414.6264   -10527.708    16914.539   0.24944995 
     170    273.73993   -6445.1618   -6414.6257   -10301.134    16914.539   0.26342452 
     180    268.00203    -6444.521   -6414.6249   -9641.2173    16914.539    0.2755889 
     190    273.83964   -6445.1737   -6414.6265   -9293.2599    16914.539   0.28642792 
     200    272.45085   -6445.0193    -6414.627   -9401.3798    16914.539   0.29775171 
     210    266.52225   -6444.3555   -6414.6245    -9739.952    16914.539   0.30975692 
     220    277.26483   -6445.5568   -6414.6275   -10274.008    16914.539   0.32155584 
     230    271.03398   -6444.8608   -6414.6265   -10197.129    16914.539   0.33326886 
     240    256.99297   -6443.2921   -6414.6241   -9796.9787    16914.539   0.34420392 
     250      260.518   -6443.6868   -6414.6256   -10082.712    16914.539   0.35319632 
     260    269.24542   -6444.6609   -6414.6262   -10817.477    16914.539   0.36024544 
     270    272.22344   -6444.9933   -6414.6263   -11178.931    16914.539   0.36660869 
     280    269.37878   -6444.6751   -6414.6255   -10808.686    16914.539   0.37346839 
     290    271.00389   -6444.8563   -6414.6254   -10344.777    16914.539   0.38086972 
     300    276.76784   -6445.4999    -6414.626   -10017.839    16914.539   0.38795838 
     310    280.46562   -6445.9129   -6414.6265   -10033.139    16914.539    0.3941169 
     320    277.07214   -6445.5343   -6414.6265   -10046.112    16914.539   0.40018262 
     330    269.95649   -6444.7383   -6414.6242   -9805.4895    16914.539   0.40670818 
     340    277.76904    -6445.612   -6414.6265   -9619.6934    16914.539   0.41197492 
     350    285.05274   -6446.4248   -6414.6267   -9485.1667    16914.539   0.41648156 
     360    281.88575   -6446.0712   -6414.6264   -9140.4937    16914.539   0.42146503 
     370    274.53044   -6445.2493    -6414.625    -8962.175    16914.539   0.42701601 
     380    276.18295   -6445.4346    -6414.626   -9426.8139    16914.539   0.43273687 
     390    277.57134   -6445.5897   -6414.6262   -10070.673    16914.539   0.43923402 
     400     276.8595   -6445.5103   -6414.6262    -10303.89    16914.539   0.44707416 
     410    275.46607   -6445.3545   -6414.6259   -10360.075    16914.539   0.45492711 
     420    275.69775   -6445.3806   -6414.6261   -10312.296    16914.539   0.46006875 
     430    277.65506   -6445.5987   -6414.6258   -10210.723    16914.539   0.46173996 
     440    281.42642   -6446.0203   -6414.6268   -10308.419    16914.539    0.4617939 
     450    276.88831    -6445.514   -6414.6267   -10250.708    16914.539   0.46269964 
     460    270.21574   -6444.7677   -6414.6248   -9929.1914    16914.539   0.46518425 
     470    276.62755   -6445.4853   -6414.6271   -9753.2735    16914.539   0.46909827 
     480    275.65992   -6445.3765   -6414.6262   -9607.8074    16914.539   0.47463575 
     490    271.78497   -6444.9435   -6414.6255   -9553.3315    16914.539   0.48058495 
     500    272.32251   -6445.0046   -6414.6266   -9909.1382    16914.539   0.48553511 
     510    270.37544   -6444.7864   -6414.6256   -10365.506    16914.539   0.48834362 
     520    275.17373   -6445.3223   -6414.6263    -10515.66    16914.539   0.48843099 
     530    278.78936   -6445.7259   -6414.6265   -10437.285    16914.539   0.48792995 
     540    277.10642   -6445.5367   -6414.6251   -10771.458    16914.539   0.48938579 
     550    282.60439   -6446.1508   -6414.6259   -11859.636    16914.539   0.49278637 
     560    285.47147   -6446.4709   -6414.6262   -12796.498    16914.539   0.49690199 
     570    281.74023   -6446.0538   -6414.6252   -13126.326    16914.539   0.50034525 
     580    281.37788   -6446.0138   -6414.6257    -13240.78    16914.539   0.50202219 
     590    281.57404   -6446.0359   -6414.6258   -12844.509    16914.539   0.50251947 
     600    279.80949   -6445.8394   -6414.6262   -12078.209    16914.539   0.50341715 
     610    275.08337   -6445.3114   -6414.6254   -11496.883    16914.539    0.5053235 
     620    273.83436   -6445.1722   -6414.6256   -11201.877    16914.539   0.50732064 
     630    275.31248   -6445.3374   -6414.6259   -11206.933    16914.539   0.50828438 
     640    275.60187     -6445.37   -6414.6262    -11537.36    16914.539   0.50794637 
     650    274.21825   -6445.2155   -6414.6261   -11690.872    16914.539   0.50662649 
     660    272.65227   -6445.0411   -6414.6263   -11698.657    16914.539   0.50518157 
     670     269.8069   -6444.7228   -6414.6254   -11783.391    16914.539   0.50451723 
     680    274.15038   -6445.2075   -6414.6256   -11810.462    16914.539   0.50456436 
     690    280.99552   -6445.9719   -6414.6264   -11861.031    16914.539   0.50555103 
     700    280.63072   -6445.9305   -6414.6257   -11627.854    16914.539   0.50781264 
     710    278.92562   -6445.7406    -6414.626   -11080.463    16914.539   0.51097066 
     720    273.95593   -6445.1857   -6414.6255   -10327.151    16914.539   0.51457431 
     730    270.75852   -6444.8288   -6414.6252   -9765.8913    16914.539   0.51787072 
     740    276.18815   -6445.4342    -6414.625   -9492.6985    16914.539   0.51977351 
     750    290.40662   -6447.0224   -6414.6271   -9560.4488    16914.539   0.52017505 
     760    291.76733   -6447.1737   -6414.6266   -9561.5036    16914.539   0.52117133 
     770    283.11091   -6446.2069   -6414.6254   -9453.5946    16914.539   0.52378958 
     780    279.64758   -6445.8206   -6414.6255   -9604.3927    16914.539   0.52683471 
     790    283.69703   -6446.2721   -6414.6253   -9946.1137    16914.539   0.52917358 
     800    294.07987   -6447.4316   -6414.6265   -10564.719    16914.539   0.53017696 
     810    295.44119   -6447.5838   -6414.6269   -10778.266    16914.539   0.53058912 
     820    284.62085    -6446.375   -6414.6251   -10769.398    16914.539   0.53152004 
     830    283.14102   -6446.2102   -6414.6254    -11181.41    16914.539   0.53258998 
     840    287.99305   -6446.7525   -6414.6265   -11723.574    16914.539   0.53389001 
     850    287.09189   -6446.6515    -6414.626   -11500.578    16914.539   0.53659046 
     860      284.553   -6446.3684    -6414.626   -10897.209    16914.539   0.54081319 
     870    282.67441   -6446.1585   -6414.6257   -10433.812    16914.539   0.54539106 
     880    283.51653   -6446.2522   -6414.6255   -10209.532    16914.539    0.5489499 
     890    288.50338    -6446.809    -6414.626   -10354.377    16914.539   0.55135174 
     900    291.76454   -6447.1726   -6414.6258   -10876.976    16914.539   0.55353637 
     910    292.97848   -6447.3082    -6414.626   -11347.991    16914.539   0.55595171 
     920    291.51405   -6447.1447   -6414.6258   -11398.427    16914.539   0.55853793 
     930    291.60074   -6447.1542   -6414.6257    -11293.91    16914.539   0.56185808 
     940     293.2344   -6447.3372   -6414.6265   -11200.097    16914.539   0.56678171 
     950    287.97843   -6446.7504    -6414.626   -11130.864    16914.539   0.57322831 
     960    283.64605   -6446.2659   -6414.6248   -11250.962    16914.539    0.5801369 
     970    292.04718   -6447.2043    -6414.626   -11840.242    16914.539   0.58714521 
     980    298.10465    -6447.881    -6414.627   -12253.162    16914.539   0.59518368 
     990     291.0629   -6447.0941   -6414.6256   -12038.151    16914.539    0.6045403 
    1000    284.65421   -6446.3788   -6414.6252   -11444.717    16914.539   0.61356144 
    1010    284.88743   -6446.4056    -6414.626    -11257.53    16914.539   0.62075706 
    1020    284.45231   -6446.3572   -6414.6261   -11432.152    16914.539   0.62656562 
    1030    283.20586   -6446.2174   -6414.6254   -11511.221    16914.539   0.63192389 
    1040    287.83552   -6446.7343   -6414.6258   -11667.574    16914.539   0.63739756 
    1050    291.82132   -6447.1799   -6414.6268   -11837.973    16914.539   0.64401168 
    1060    283.59762   -6446.2613   -6414.6256   -11789.256    16914.539   0.65213742 
    1070    276.66662   -6445.4869   -6414.6243   -11806.091    16914.539   0.65985523 
    1080    282.99965   -6446.1952   -6414.6262   -11840.254    16914.539   0.66594809 
    1090    284.44573   -6446.3567   -6414.6263   -11632.042    16914.539   0.67175387 
    1100    278.27382   -6445.6672   -6414.6253   -11480.901    16914.539   0.67800117 
    1110    275.51841   -6445.3596   -6414.6251    -11752.64    16914.539   0.68395064 
    1120    280.64433   -6445.9316   -6414.6253   -12488.193    16914.539   0.68890156 
    1130    288.25028   -6446.7809   -6414.6262   -13418.509    16914.539   0.69291839 
    1140    287.86356   -6446.7373   -6414.6257   -13894.107    16914.539   0.69647294 
    1150     284.1342   -6446.3207   -6414.6251   -13718.421    16914.539   0.69999552 
    1160    284.54442   -6446.3664    -6414.625   -13274.877    16914.539   0.70441524 
    1170    289.30798   -6446.8989   -6414.6262   -12874.099    16914.539   0.71032926 
    1180    288.40526   -6446.7977   -6414.6256   -12499.771    16914.539   0.71698745 
    1190    288.87345   -6446.8499   -6414.6256   -12393.703    16914.539   0.72286598 
    1200    289.55166   -6446.9266   -6414.6266   -12529.541    16914.539   0.72828782 
    1210    280.56525   -6445.9223   -6414.6249   -12558.433    16914.539   0.73461558 
    1220    279.30484    -6445.782   -6414.6251   -12626.277    16914.539   0.74159765 
    1230    283.14385   -6446.2112   -6414.6261    -12562.24    16914.539   0.74841645 
    1240    281.80648   -6446.0608   -6414.6249   -12023.389    16914.539   0.75444294 
    1250     287.2171   -6446.6653   -6414.6258   -11729.343    16914.539   0.75867551 
    1260    291.37697   -6447.1294   -6414.6258   -11960.648    16914.539    0.7611503 
    1270     290.7704   -6447.0612   -6414.6254   -12380.586    16914.539   0.76288707 
    1280    289.55224   -6446.9258   -6414.6258   -12882.375    16914.539    0.7645348 
    1290    287.09987   -6446.6515   -6414.6251   -12907.605    16914.539   0.76662403 
    1300     288.7486   -6446.8364   -6414.6261    -12351.66    16914.539   0.76992192 
    1310     286.5441   -6446.5899   -6414.6255   -11746.932    16914.539   0.77514416 
    1320    286.76446   -6446.6147   -6414.6256   -11616.487    16914.539     0.782071 
    1330    287.70548   -6446.7204   -6414.6264    -11836.58    16914.539   0.79015066 
    1340    282.63252   -6446.1531    -6414.625   -11799.148    16914.539   0.79849012 
    1350    284.43132   -6446.3541   -6414.6254   -11987.933    16914.539   0.80587623 
    1360    290.10013   -6446.9873   -6414.6262   -12175.108    16914.539   0.81222683 
    1370    288.39934   -6446.7972   -6414.6258   -12215.241    16914.539   0.81788554 
    1380    282.88925   -6446.1815   -6414.6247   -12046.377    16914.539   0.82275667 
    1390    283.76927   -6446.2807   -6414.6258   -12356.549    16914.539   0.82695931 
    1400    284.16314   -6446.3247   -6414.6258   -12558.911    16914.539   0.83096223 
    1410    282.88017   -6446.1807    -6414.625   -12245.265    16914.539   0.83439005 
    1420     289.0508   -6446.8696   -6414.6256   -12006.917    16914.539   0.83692973 
    1430    296.30837   -6447.6802   -6414.6265   -12125.384    16914.539   0.83971571 
    1440    294.95766   -6447.5284   -6414.6255   -12272.826    16914.539   0.84385839 
    1450    294.31334   -6447.4568   -6414.6257   -12376.112    16914.539   0.84859385 
    1460    293.05239   -6447.3161   -6414.6256   -12629.004    16914.539   0.85302956 
    1470    291.25758   -6447.1162   -6414.6259   -13083.249    16914.539    0.8570116 
    1480    286.64819   -6446.6016   -6414.6255   -13428.045    16914.539   0.86066862 
    1490    283.52532   -6446.2528   -6414.6252   -13496.705    16914.539   0.86430477 
    1500     286.3633   -6446.5701   -6414.6258   -13624.975    16914.539   0.86918451 
    1510    287.48957    -6446.696   -6414.6261   -13700.531    16914.539   0.87693222 
    1520      283.311   -6446.2294   -6414.6257   -13763.966    16914.539   0.88681719 
    1530    278.93423   -6445.7409   -6414.6254    -13749.08    16914.539    0.8961479 
    1540    279.24322   -6445.7753   -6414.6253   -13602.367    16914.539   0.90287427 
    1550    284.34307   -6446.3451   -6414.6262   -13438.713    16914.539   0.90704945 
    1560    286.61186   -6446.5976   -6414.6256   -13327.774    16914.539   0.90952163 
    1570    288.64067   -6446.8242   -6414.6259   -13235.348    16914.539   0.91064836 
    1580    289.00905   -6446.8647   -6414.6253   -13276.193    16914.539   0.91132952 
    1590    292.22619   -6447.2238   -6414.6255   -13462.144    16914.539   0.91275471 
    1600    296.71233   -6447.7243   -6414.6256   -13630.138    16914.539   0.91602557 
    1610    298.76154   -6447.9536   -6414.6263   -13722.427    16914.539   0.92135086 
    1620    292.39065   -6447.2423   -6414.6257   -13309.957    16914.539   0.92745789 
    1630    287.36199   -6446.6803   -6414.6246   -12820.554    16914.539   0.93230372 
    1640    296.02429   -6447.6483   -6414.6263   -13120.327    16914.539   0.93527841 
    1650    300.16791   -6448.1107   -6414.6265   -13790.323    16914.539   0.93826144 
    1660    293.71858   -6447.3901   -6414.6253    -14241.14    16914.539   0.94282849 
    1670    288.35047   -6446.7915   -6414.6256   -14455.623    16914.539   0.94858717 
    1680    282.73321   -6446.1651   -6414.6258   -14172.658    16914.539   0.95453176 
    1690    275.72229   -6445.3823   -6414.6251   -13627.921    16914.539   0.95952727 
    1700    277.97595   -6445.6333   -6414.6247   -13300.724    16914.539   0.96211871 
    1710    291.05049   -6447.0941    -6414.627    -13269.73    16914.539   0.96263565 
    1720    289.50874   -6446.9216   -6414.6265   -13136.603    16914.539    0.9641931 
    1730     279.6014   -6445.8141   -6414.6241    -12984.07    16914.539   0.96762806 
    1740    285.21215   -6446.4421   -6414.6263   -12956.522    16914.539    0.9714688 
    1750    286.63852   -6446.6019   -6414.6269    -12491.03    16914.539   0.97542993 
    1760    276.86406   -6445.5095   -6414.6249   -11731.805    16914.539   0.97865163 
    1770    278.27156   -6445.6664   -6414.6248   -11664.802    16914.539   0.98004953 
    1780    292.12948   -6447.2142   -6414.6268   -12328.976    16914.539   0.98151253 
    1790    296.31795   -6447.6809   -6414.6262   -12931.917    16914.539   0.98612529 
    1800    292.55667   -6447.2612    -6414.626   -13640.461    16914.539   0.99403792 
    1810    285.79514   -6446.5059    -6414.625   -14229.526    16914.539    1.0030771 
    1820    288.12419   -6446.7662   -6414.6256   -14597.158    16914.539    1.0110949 
    1830    292.85204   -6447.2945   -6414.6264   -14639.212    16914.539    1.0174953 
    1840    289.21054   -6446.8874   -6414.6255   -13970.459    16914.539    1.0218515 
    1850    287.11754   -6446.6534    -6414.625   -13100.598    16914.539    1.0231482 
    1860    292.11589   -6447.2121   -6414.6262   -12689.719    16914.539    1.0216815 
    1870    291.24456   -6447.1151   -6414.6264    -12380.18    16914.539    1.0194153 
    1880    284.36534   -6446.3461   -6414.6247   -12152.672    16914.539    1.0178874 
    1890     288.1505   -6446.7696    -6414.626   -12357.505    16914.539    1.0174891 
    1900    290.81767   -6447.0678   -6414.6266   -12569.765    16914.539    1.0188537 
    1910    284.40865   -6446.3521   -6414.6259   -12506.032    16914.539    1.0221045 
    1920    279.51829   -6445.8054   -6414.6247   -12334.547    16914.539    1.0260227 
    1930    286.47358   -6446.5831   -6414.6265   -12454.296    16914.539    1.0290399 
    1940    288.06715   -6446.7604    -6414.626   -12717.705    16914.539    1.0306657 
    1950    286.25893   -6446.5579   -6414.6253   -12605.082    16914.539    1.0306186 
    1960    289.99788   -6446.9755   -6414.6258   -12348.209    16914.539    1.0295042 
    1970    293.21828    -6447.335    -6414.626   -12071.048    16914.539    1.0291662 
    1980    292.53599   -6447.2583   -6414.6255   -11867.242    16914.539    1.0306618 
    1990    292.57928   -6447.2634   -6414.6257   -12029.322    16914.539    1.0338136 
    2000    292.21203   -6447.2225   -6414.6258   -12394.635    16914.539    1.0382092 
Loop time of 1581.14 on 16 procs for 2000 steps with 864 atoms

Performance: 0.109 ns/day, 219.603 hours/ns, 1.265 timesteps/s
97.2% CPU use with 16 MPI tasks x 1 OpenMP threads

MPI task timing breakdown:
Section |  min time  |  avg time  |  max time  |%varavg| %total
---------------------------------------------------------------
Pair    | 922.49     | 1277.4     | 1578.8     | 455.8 | 80.79
Bond    | 0.00018668 | 0.00061721 | 0.001982   |   0.0 |  0.00
Neigh   | 0.025896   | 0.036105   | 0.055163   |   3.9 |  0.00
Comm    | 2.1473     | 278.99     | 658.45     | 942.2 | 17.64
Output  | 0.13844    | 15.475     | 36.572     | 368.6 |  0.98
Modify  | 0.0092692  | 0.011527   | 0.014532   |   1.5 |  0.00
Other   |            | 9.249      |            |       |  0.58

Nlocal:        54.0000 ave          73 max          37 min
Histogram: 1 0 1 2 5 5 0 0 1 1
Nghost:        565.875 ave         657 max         471 min
Histogram: 1 1 0 5 2 2 0 2 1 2
Neighs:         0.00000 ave           0 max           0 min
Histogram: 16 0 0 0 0 0 0 0 0 0
FullNghs:      2887.12 ave        4564 max        1794 min
Histogram: 1 3 4 2 2 0 2 0 0 2

Total # of neighbors = 46194
Ave neighs/atom = 53.465278
Ave special neighs/atom = 0.0000000
Neighbor list builds = 199
Dangerous builds = 198
Setting up Verlet run ...
  Unit style    : metal
  Current step  : 2000
  Time step     : 0.001
Per MPI rank memory allocation (min/avg/max) = 8.905 | 8.910 | 8.916 Mbytes
Step Temp PotEng TotEng Press Volume c_msd[4] 
    2000         1050   -6447.2225   -6330.0934   -7056.5923    16914.539    1.0382092 
    2010     876.8872    -6427.855   -6330.0369   -1442.7098    16912.463    1.0520855 
    2020    686.39446   -6406.2848   -6329.7165    4925.0601    16909.414    1.0788815 
    2030    670.22894   -6403.7282   -6328.9632    4920.4755    16909.351    1.1016128 
    2040    665.45379   -6401.9663   -6327.7339    3970.9775    16912.636    1.1206946 
    2050    632.06605   -6396.8336   -6326.3257    4160.7193    16918.724    1.1395432 
    2060    622.20332   -6394.4428   -6325.0351    4908.3468     16927.71    1.1583819 
    2070    638.56699   -6395.1008   -6323.8677    4989.1332    16940.053    1.1764967 
    2080     677.1961   -6398.2146   -6322.6724    3729.8792     16955.77    1.1944571 
    2090     684.1675   -6397.6671   -6321.3471    3197.7742    16974.171    1.2147086 
    2100    693.67458   -6397.2799   -6319.8994    2380.5473    16994.827    1.2364011 
    2110    709.30311   -6397.4293   -6318.3055    1548.2842    17017.197    1.2572776 
    2120    696.28752   -6394.3175   -6316.6456    2075.4108    17040.803    1.2761073 
    2130     697.8503   -6392.8176   -6314.9713    1881.8822    17065.871    1.2909534 
    2140    736.22363   -6395.3298    -6313.203    115.20486    17092.207    1.3020289 
    2150    747.25735   -6394.6913   -6311.3337   -781.43336    17118.733    1.3129195 
    2160    727.26691   -6390.6118   -6309.4841   -289.89071    17144.857    1.3242503 
    2170    743.86439   -6390.6033   -6307.6241   -1157.1188    17170.706    1.3342171 
    2180    751.51552   -6389.5072   -6305.6745   -2471.6353    17195.727    1.3450445 
    2190    745.05182   -6386.8184   -6303.7068   -3271.0828    17219.024    1.3587005 
    2200    765.44084   -6387.0862   -6301.7001   -3651.8748    17240.002    1.3740256 
    2210     777.7427   -6386.3991   -6299.6407   -2575.9397    17258.453    1.3903885 
    2220     783.7561   -6385.0224   -6297.5932   -1041.4863    17275.064     1.407326 
    2230    789.23312   -6383.5867   -6295.5465   -536.61721    17290.833    1.4231019 
    2240      792.003   -6381.8396   -6293.4905   -1027.5981     17306.12    1.4361418 
    2250    807.12934   -6381.4457   -6291.4092   -1818.6876    17320.616    1.4463091 
    2260    819.50854   -6380.7176   -6289.3002   -2135.3195    17333.806    1.4554954 
    2270    827.60455   -6379.4998   -6287.1792   -2396.9695    17345.438    1.4660357 
    2280    837.22927   -6378.4351    -6285.041   -2615.2212    17355.307    1.4771892 
    2290    825.34612   -6374.9768   -6282.9082   -2021.4047    17363.307    1.4875221 
    2300    822.15549    -6372.503   -6280.7903   -998.28778    17369.844    1.4980786 
    2310    812.43486   -6369.2962   -6278.6678   -170.65009    17375.638    1.5108874 
    2320    827.64867   -6368.8528   -6276.5274   -563.19397     17381.21    1.5249364 
    2330    858.47179   -6370.0852   -6274.3214   -1148.4505    17386.345    1.5375509 
    2340    872.84194   -6369.4774   -6272.1105   -1151.8214    17390.661    1.5486644 
    2350    895.59863   -6369.8283    -6269.923   -559.11762     17394.16    1.5606866 
    2360    913.20024   -6369.6182   -6267.7493    18.248236    17397.233    1.5757619 
    2370    917.57178   -6367.9706   -6265.6141    277.64993    17400.288    1.5931332 
    2380    917.52152   -6365.8661   -6263.5152    404.36951    17403.525    1.6117753 
    2390    918.18135   -6363.8694   -6261.4449    543.29015    17407.039    1.6310091 
    2400    927.64122   -6362.8576   -6259.3778    814.84697    17410.927     1.651382 
    2410    929.96691   -6361.0371   -6257.2979    1621.8242     17415.44    1.6718746 
    2420    931.91502   -6359.1969   -6255.2403    1925.6317    17421.072    1.6895122 
    2430    934.03639   -6357.3863   -6253.1931     2056.041    17428.068    1.7023613 
    2440    965.24363   -6358.8194    -6251.145    1702.4861    17436.465    1.7087803 
    2450    981.90581   -6358.6359   -6249.1028     1422.653    17446.042    1.7128237 
    2460    972.78586   -6355.6446   -6247.1289    1936.9526    17456.634    1.7170034 
    2470    965.06939   -6352.8713   -6245.2163    2715.0913     17468.57    1.7198254 
    2480    967.85539   -6351.2887    -6243.323    3142.7945    17482.376    1.7213254 
    2490    979.58516    -6350.705   -6241.4308    2798.5698    17498.303    1.7246947 
    2500    996.59871   -6350.7135   -6239.5415    2408.2888    17516.143    1.7352201 
    2510    991.43153   -6348.2866   -6237.6909    2115.7818    17535.602     1.753326 
    2520    1003.2169   -6347.8007   -6235.8903    1752.4816    17556.444    1.7752817 
    2530    1000.0343   -6345.6714   -6234.1161    2089.3107    17578.459    1.7957134 
    2540    1007.5832   -6344.7873   -6232.3898    1624.4089    17601.748    1.8121738 
    2550    1015.1247   -6343.9005   -6230.6618    504.91467    17625.985    1.8292171 
    2560    1024.4808   -6343.2455   -6228.9631   -546.47268    17650.356    1.8493513 
    2570    1006.0582   -6339.5311   -6227.3038   -755.64192     17674.12    1.8709083 
    2580    1028.0675   -6340.3643   -6225.6818   -1282.5619    17697.036    1.8884393 
    2590    1058.3562    -6342.098   -6224.0367   -1853.2313    17718.749    1.9041293 
    2600    1058.1385   -6340.4924   -6222.4555   -1784.1638    17738.847    1.9255765 
    2610    1022.9345   -6335.1091   -6220.9992    -628.4165    17757.424    1.9556556 
    2620    998.99607   -6331.0564   -6219.6169    566.57782      17775.3    1.9884089 
    2630     1025.445   -6332.6049    -6218.215    821.62289    17793.315    2.0181502 
    2640    1044.9149   -6333.3457   -6216.7838    1275.5329    17811.749    2.0457356 
    2650    1034.6272   -6330.8157   -6215.4015    1762.6573    17830.908    2.0727043 
    2660    1047.3069   -6330.8937   -6214.0651    1379.1576    17851.094    2.1031447 
    2670    1054.1056    -6330.335    -6212.748    324.86802    17872.006    2.1413409 
    2680    1029.9696   -6326.3767    -6211.482    90.250974    17892.959    2.1833013 
    2690    1021.6375   -6324.2072    -6210.242    174.47539    17913.726    2.2212082 
    2700    1043.6754   -6325.4108   -6208.9873    18.104079    17934.319    2.2541061 
    2710    1065.8452   -6326.6198   -6207.7231   -50.015478    17954.648    2.2876319 
    2720    1083.9115   -6327.4298   -6206.5179   -259.53561    17974.634    2.3267286 
    2730    1084.5852   -6326.3937   -6205.4066   -402.52455    17994.139    2.3706002 
    2740    1057.4512   -6322.3619   -6204.4017    254.61632    18013.121    2.4139006 
    2750    1071.5465        -6323   -6203.4673    68.977538    18031.958     2.450386 
    2760    1093.4804    -6324.546   -6202.5666   -535.28529    18050.543    2.4805073 
    2770    1089.5611   -6323.2997   -6201.7575   -1060.8684    18068.441    2.5092191 
    2780    1084.5591   -6322.0294   -6201.0452   -1896.1121    18085.236    2.5359756 
    2790    1090.3895   -6322.0569   -6200.4223   -2199.7414    18100.356    2.5591744 
    2800    1106.8299   -6323.3709   -6199.9024    -1548.078     18113.62    2.5803912 
    2810    1093.9127   -6321.5359   -6199.5083   -633.15566     18125.49    2.6041164 
    2820    1076.5066    -6319.314    -6199.228   -230.38893    18136.652    2.6315616 
    2830    1076.7526   -6319.1321   -6199.0187   -306.91782    18147.456    2.6619809 
    2840    1081.1795   -6319.4767   -6198.8695   -778.42915    18157.832    2.6950157 
    2850    1076.0851   -6318.8153   -6198.7763   -1226.4791    18167.475    2.7257486 
    2860    1094.1771   -6320.8165   -6198.7594   -2115.5655    18175.984    2.7500997 
    2870    1091.6417   -6320.6026   -6198.8284   -2473.9197    18182.757    2.7749925 
    2880    1077.0845   -6319.1374    -6198.987   -2738.4815    18187.496    2.8064182 
    2890    1077.2476    -6319.384   -6199.2154   -2962.0714    18190.021    2.8415839 
    2900    1070.4186    -6318.906   -6199.4992   -3131.4214    18190.186    2.8759387 
    2910    1066.8575   -6318.8555   -6199.8459   -3304.4696    18187.893    2.9028102 
    2920    1070.4431   -6319.6386   -6200.2291   -3145.9635    18183.083    2.9192725 
    2930    1101.8424   -6323.6059   -6200.6937   -2979.5223    18175.864    2.9278419 
    2940    1076.5871   -6321.3514   -6201.2565    -1927.872    18166.492    2.9339388 
    2950    1059.4347   -6320.0575    -6201.876   -1216.3817    18155.723    2.9334801 
    2960     1040.196   -6318.5377   -6202.5022   -960.56044    18144.131    2.9262135 
    2970    1036.3353   -6318.6996   -6203.0949   -1121.5328    18131.931    2.9180903 
    2980    1086.2308    -6324.867   -6203.6963   -2211.8541    18118.949    2.9136984 
    2990    1077.8508   -6324.6061   -6204.3702   -2276.5633    18104.511    2.9168524 
    3000    1045.4628   -6321.6959    -6205.073   -1557.2558    18088.567    2.9227872 
    3010    1045.7086   -6322.4194    -6205.769   -1591.8094    18071.583    2.9280866 
    3020    1038.4169   -6322.2759   -6206.4389   -1287.6934     18053.64    2.9370822 
    3030    1047.2801   -6323.9066   -6207.0809   -126.45447    18035.024    2.9509669 
    3040    1055.5633   -6325.4573   -6207.7076    1115.0187    18016.567    2.9683144 
    3050    1033.0653   -6323.5398   -6208.2998    2714.9195    17999.282    2.9897702 
    3060    1040.8634   -6324.9735   -6208.8636    2651.3946    17984.201    3.0133682 
    3070    1039.3202   -6325.3463   -6209.4086    1902.6134    17971.322    3.0368862 
    3080    1036.7988    -6325.592   -6209.9355    1225.1914     17960.08    3.0564143 
    3090    1038.0953   -6326.2344   -6210.4333    580.57148    17949.928    3.0735379 
    3100    1062.0554   -6329.4015   -6210.9276   -207.32455    17940.346    3.0927803 
    3110    1066.5819   -6330.4294   -6211.4506   -1095.4357    17930.704    3.1166697 
    3120    1045.5068   -6328.6239   -6211.9961   -1049.8838    17920.423    3.1459907 
    3130    1037.3325     -6328.25    -6212.534   -952.39972    17909.474    3.1790124 
    3140    1040.6623    -6329.126   -6213.0386   -861.48358     17897.96    3.2095135 
    3150    1061.1327   -6331.9103   -6213.5393   -1024.1608    17885.918     3.232378 
    3160    1065.4108    -6332.899   -6214.0508   -431.37101    17873.309    3.2512295 
    3170    1055.2891   -6332.3158   -6214.5967    968.91653    17860.576    3.2713217 
    3180    1038.1963   -6330.9386   -6215.1262    2803.2218    17848.781     3.295303 
    3190    1040.3837   -6331.6808   -6215.6245    3316.7206    17839.171     3.326271 
    3200    1050.7602   -6333.3324   -6216.1185    2732.4992    17832.102    3.3622702 
    3210    1017.0663   -6330.0504   -6216.5951    3017.3374    17827.248    3.4012666 
    3220    993.20591   -6327.7813   -6216.9877    3397.1178    17824.745     3.438567 
    3230    1025.0728   -6331.6362   -6217.2878    2483.4829    17824.742    3.4660215 
    3240    1060.8991   -6335.8867   -6217.5419    1612.4168    17826.626    3.4846052 
    3250     1078.334    -6338.119   -6217.8292    1564.7268    17829.768    3.5040398 
    3260     1042.795   -6334.4829   -6218.1575    2148.8238    17834.118    3.5274642 
    3270    1029.1213   -6333.2841    -6218.484    2275.9572    17840.033    3.5491172 
    3280    1044.6307   -6335.3059   -6218.7758    1698.7377     17847.59    3.5734057 
    3290     1040.632   -6335.1412   -6219.0572    1339.4473    17856.392    3.6075681 
    3300    998.67153   -6330.6977   -6219.2944    2063.2171    17866.235    3.6436012 
    3310    1009.2378   -6332.0293   -6219.4473    1717.8395    17877.491    3.6645706 
    3320    1024.1749   -6333.7538   -6219.5055    903.55702    17889.951     3.671713 
    3330    1003.9953   -6331.4906   -6219.4934    629.57929    17903.057    3.6810159 
    3340    978.20128   -6328.5005   -6219.3807    489.37763    17916.572    3.7043037 
    3350     990.1133   -6329.5753   -6219.1267    231.41821    17930.388    3.7418703 
    3360    1000.1442   -6330.3037   -6218.7361   -280.13866    17944.269    3.7839931 
    3370    978.93342   -6327.4282   -6218.2267   -598.66707    17957.859    3.8202252 
    3380     983.4764   -6327.2927   -6217.5844   -577.39788     17970.93    3.8452279 
    3390     1015.905   -6330.1294   -6216.8036   -999.56896    17983.434    3.8635343 
    3400    1028.6088   -6330.6708   -6215.9279    -1584.562    17995.074     3.881842 
    3410    1033.2409   -6330.2775   -6215.0179   -1328.4675    18005.493    3.8996388 
    3420    1041.9629   -6330.3191   -6214.0866   -1182.4522     18014.81    3.9162807 
    3430    1055.6939   -6330.9193   -6213.1551   -1202.3028    18023.156    3.9353572 
    3440    1090.5298   -6333.8977   -6212.2475   -1813.2919    18030.476    3.9614195 
    3450    1107.9641   -6335.0233   -6211.4282   -1794.8677    18036.403    4.0003854 
    3460    1084.3371    -6331.704   -6210.7445   -261.28692    18041.033    4.0488808 
    3470     1064.686   -6328.9488   -6210.1815     1204.339    18045.428    4.0946607 
    3480    1034.3424   -6325.0432   -6209.6608    2348.8942    18050.737    4.1314267 
    3490    1027.5077   -6323.7561    -6209.136    2223.6442    18057.766    4.1584999 
    3500    1043.7244    -6324.993    -6208.564     1147.901     18066.44    4.1732143 
    3510    1063.0195   -6326.5449   -6207.9634    323.66091    18075.982     4.178461 
    3520    1045.1393   -6323.9566   -6207.3697    24.004355    18085.783    4.1826189 
    3530    1040.0419   -6322.8008   -6206.7826   -1138.2553    18095.497    4.1907738 
    3540    1037.3109   -6321.8897   -6206.1761   -2110.1159    18104.314    4.2077322 
    3550    1026.0417   -6319.9979   -6205.5414   -2515.6806    18111.497    4.2295015 
    3560    1037.1686   -6320.5684   -6204.8706   -2598.1283    18116.717    4.2522232 
    3570    1053.3959   -6321.6883   -6204.1804   -2569.9975    18119.878    4.2780444 
    3580    1056.9162   -6321.3954   -6203.4948   -1706.1056    18121.084    4.3046354 
    3590    1055.0791   -6320.5336   -6202.8379   -135.61898    18121.008    4.3275196 
    3600    1081.4949   -6322.8359   -6202.1935    731.15331    18120.772    4.3475116 
    3610    1111.6685   -6325.6233    -6201.615    1457.1229     18121.12    4.3702614 
    3620    1104.8277    -6324.405   -6201.1598      1997.25    18122.616    4.3962194 
    3630    1104.8605   -6324.0904   -6200.8416    1764.1557    18125.636    4.4180982 
    3640    1085.0058   -6321.6746   -6200.6405    1532.3916    18130.041    4.4316828 
    3650    1097.8816   -6323.0081   -6200.5378     771.4217    18135.602     4.436901 
    3660    1120.6396   -6325.5578   -6200.5488   -121.69758    18141.751    4.4454732 
    3670     1096.375   -6323.0031   -6200.7008    79.838644     18147.89    4.4613886 
    3680    1099.2839   -6323.6092   -6200.9825   -247.69453    18154.031    4.4779689 
    3690    1095.1122   -6323.5287   -6201.3673   -466.08345    18159.991    4.4987308 
    3700    1083.2391   -6322.6947   -6201.8578    -432.7472    18165.604    4.5261943 
    3710    1078.6916   -6322.7674   -6202.4377   -796.69162    18170.831    4.5525984 
    3720    1052.6622   -6320.4908   -6203.0648   -193.08588    18175.524     4.572429 
    3730    1033.6813    -6318.987   -6203.6783    197.19346    18180.054    4.5869512 
    3740    1049.0525   -6321.2891   -6204.2658   -607.41353    18184.656    4.5974936 
    3750     1063.369   -6323.4624    -6204.842   -1730.0619    18188.762    4.6123545 
    3760    1063.8494   -6324.1208   -6205.4468   -2001.6886    18191.564      4.64105 
    3770    1050.7039   -6323.2765   -6206.0689   -1432.1088    18192.848    4.6741348 
    3780     1058.633   -6324.7912   -6206.6991   -1397.5921    18192.949    4.6958135 
    3790    1051.5638   -6324.6356   -6207.3321   -1435.7115    18191.944     4.699115 
    3800    1050.1042   -6325.1003   -6207.9596   -1710.2212    18189.793    4.6903629 
    3810     1075.408   -6328.5659   -6208.6025   -2576.2795    18186.263    4.6830811 
    3820    1092.4804   -6331.1782   -6209.3104   -3393.8789    18180.694    4.6857478 
    3830    1078.2615   -6330.3856   -6210.1039   -3203.7393    18172.516    4.7015356 
    3840    1064.2297   -6329.6702   -6210.9538   -3006.3633    18161.793    4.7320189 
    3850    1030.0548   -6326.6883   -6211.7841   -2197.1589    18148.755    4.7774096 
    3860    1018.6131   -6326.1633   -6212.5355   -1446.6442    18133.977    4.8312675 
    3870     1038.187   -6329.0212   -6213.2098   -1537.1248    18117.991    4.8834124 
    3880    1031.5709    -6328.916   -6213.8427   -1285.6523    18100.822    4.9298827 
    3890    992.94973   -6325.1408   -6214.3757   -194.70921    18082.725    4.9643174 
    3900    1027.6667   -6329.4526   -6214.8148    -334.4173    18064.383    4.9837367 
    3910     1052.077   -6332.5669   -6215.2062   -65.291566    18045.822    4.9975412 
    3920    1037.2022   -6331.2882   -6215.5867    1543.4476    18027.318    5.0086614 
    3930    1043.7832   -6332.3687   -6215.9331    2124.0301    18009.947    5.0141116 
    3940     1054.322   -6333.8911   -6216.2799    1949.2692     17994.17    5.0200269 
    3950    1035.4512   -6332.1241    -6216.618    1951.7034    17979.938    5.0366859 
    3960    1038.1765   -6332.7573   -6216.9472    1377.4599    17967.157    5.0640262 
    3970    1022.3922   -6331.2864    -6217.237    1158.1406    17955.471    5.0965025 
    3980     1010.077   -6330.1489   -6217.4732    1011.8524    17944.677    5.1317005 
    3990    1006.6497   -6329.9124   -6217.6191    924.72695    17934.673    5.1652653 
    4000    1032.0323   -6332.8244   -6217.6997    670.64103    17925.362    5.1897985 
    4010    1018.4986   -6331.3404   -6217.7254    1251.4897    17916.621    5.2121103 
    4020    1001.1076   -6329.3597   -6217.6847    2009.2592    17908.835     5.240122 
    4030    1013.1511   -6330.5638   -6217.5453    2251.5402    17902.542     5.274211 
    4040    1028.1269   -6332.0054   -6217.3163    2281.6854    17897.958     5.310568 
    4050      1018.62    -6330.657   -6217.0284    2409.3796    17895.134    5.3453358 
    4060    1020.3736   -6330.4976   -6216.6734    1912.7402    17894.113    5.3711747 
    4070    1029.4017   -6331.0872   -6216.2559    1757.8662    17894.593    5.3909133 
    4080    1019.1308   -6329.4654   -6215.7798    2212.5794     17896.47    5.4091218 
    4090    1040.8415   -6331.3601   -6215.2527    2244.0419    17900.022     5.427265 
    4100    1060.3914   -6332.9812   -6214.6929    2056.4548    17905.304    5.4506405 
    4110    1059.9501   -6332.3831   -6214.1441    1731.1346    17912.177    5.4733624 
    4120    1063.9789   -6332.3207   -6213.6322      1074.78    17920.397    5.4874078 
    4130    1040.5727   -6329.2209   -6213.1435    670.61666    17929.514    5.4974755 
    4140    1020.2825   -6326.4638   -6212.6498    89.934998    17939.182    5.5127303 
    4150    1029.8998   -6326.9872   -6212.1004   -346.81407    17949.006    5.5365568 
    4160    1067.9035    -6330.627   -6211.5008   -839.06401    17958.627    5.5669208 
    4170    1116.9311   -6335.5227   -6210.9273   -1601.4701    17967.622    5.6028626 
    4180     1111.691   -6334.4997   -6210.4889   -957.01025    17975.538    5.6431891 
    4190     1083.561   -6331.0733   -6210.2004   -266.38146    17982.763    5.6790486 
    4200     1077.089   -6330.1495   -6209.9986    106.68596    17989.803    5.7066417 
    4210    1096.4157   -6332.1724   -6209.8656    296.19313    17996.955    5.7324459 
    4220    1086.2314   -6331.0029   -6209.8321    374.20638    18004.388    5.7689676 
    4230     1031.059   -6324.8821   -6209.8659    728.57699    18012.192     5.822244 
    4240    1025.0115   -6324.2257   -6209.8841     364.2506    18020.558    5.8890511 
    4250     1058.416    -6327.903   -6209.8351   -469.64244     18029.25    5.9623221 
    4260    1115.8933   -6334.2912   -6209.8116   -734.03316     18037.68    6.0329156 
    4270    1103.8105   -6333.0441   -6209.9124     261.6328    18045.695     6.101501 
    4280    1073.2436   -6329.8768   -6210.1549    1248.2332    18053.982    6.1698728 
    4290    1040.2818   -6326.4921   -6210.4471    1393.9007    18063.269    6.2324821 
    4300    1037.4777   -6326.4684   -6210.7362    544.77533    18073.658    6.2800278 
    4310    1042.9531   -6327.3406   -6210.9976   -61.597754    18084.601    6.3174864 
    4320    1032.8995   -6326.4652   -6211.2437   -193.25152    18095.619    6.3582983 
    4330    1000.8333   -6323.0941   -6211.4496    431.92321    18106.635    6.4008928 
    4340    984.76863   -6321.4003   -6211.5479    700.40615    18118.084    6.4434896 
    4350    1008.2123   -6323.9883   -6211.5207   -539.95634    18130.079    6.4876728 
    4360    1014.1784   -6324.5144   -6211.3813   -1064.1704    18141.823    6.5284812 
    4370    1013.8082   -6324.2556   -6211.1638   -1079.8675    18152.864    6.5607848 
    4380    1010.1653   -6323.5488   -6210.8633   -1240.5317    18163.158    6.5856072 
    4390    1000.8835   -6322.1158   -6210.4657   -1948.0036    18172.538    6.6085872 
    4400    985.25266   -6319.8542   -6209.9478   -3076.1904    18180.451    6.6373128 
    4410    1005.9184   -6321.5071   -6209.2954   -4216.0627    18185.997    6.6750256 
    4420    1014.9322   -6321.7483   -6208.5311   -4298.6053    18188.315     6.718778 
    4430    1021.0119   -6321.6092   -6207.7138   -3858.9522    18187.266    6.7581734 
    4440    1029.6462   -6321.7212   -6206.8626   -3490.7399    18183.144    6.7856107 
    4450    1049.3894   -6323.0707   -6206.0098   -3486.8463    18176.182    6.8044823 
    4460    1071.4718   -6324.7339   -6205.2096   -3429.0717    18166.369    6.8201966 
    4470    1059.1489   -6322.6462   -6204.4965   -2538.8806    18153.803    6.8371032 
    4480    1049.9451   -6320.9957   -6203.8727   -1658.4158    18139.093     6.852171 
    4490    1042.9966   -6319.6438    -6203.296   -1197.4258    18122.872    6.8656264 
    4500    1028.6334    -6317.488   -6202.7424   -604.33307     18105.53    6.8728131 
    4510    1042.6085   -6318.4924   -6202.1879     -301.939    18087.471    6.8741106 
    4520    1067.8255   -6320.7561   -6201.6386    481.78917     18068.99    6.8813421 
    4530    1074.8221   -6321.0271    -6201.129    2100.4714    18050.727    6.8993559 
    4540    1080.7813   -6321.2461   -6200.6833    3639.6749    18033.891    6.9154912 
    4550    1086.7118   -6321.5392   -6200.3149    3960.8357    18019.614    6.9196598 
    4560    1108.3796   -6323.7089   -6200.0675    3565.9841    18008.211    6.9172801 
    4570    1068.3143   -6319.1075   -6199.9354    3782.2192    17999.488    6.9202575 
    4580    1058.9179   -6318.0021   -6199.8782    3064.8329    17993.522    6.9323807 
    4590    1079.1924   -6320.2353   -6199.8497    1486.2975    17989.809    6.9587388 
    4600    1088.8245   -6321.3523   -6199.8923    963.97234    17987.271    6.9941816 
    4610    1068.8077   -6319.2361    -6200.009     1957.347    17985.563    7.0265185 
    4620    1066.4308   -6319.1414   -6200.1794    2524.2809    17985.322    7.0530369 
    4630    1103.3648   -6323.4965   -6200.4145    1637.9084    17986.936    7.0832905 
    4640    1099.4993   -6323.4258    -6200.775    650.52142     17989.85    7.1244947 
    4650    1074.7203   -6321.1422   -6201.2556    635.50723      17993.4    7.1695783 
    4660    1075.0575   -6321.7315   -6201.8072    654.19889    17997.504    7.2061292 
    4670    1078.5251   -6322.7419   -6202.4308    627.80046    18002.205    7.2331968 
    4680    1074.6106   -6323.0118   -6203.1374    476.94309    18007.459    7.2545241 
    4690    1070.1885    -6323.288   -6203.9069    752.90144    18013.209    7.2727921 
    4700    1079.9396   -6325.1944   -6204.7255    561.87732    18019.607    7.2839153 
    4710    1091.8978    -6327.407   -6205.6042   -39.176783    18026.538     7.285533 
    4720    1076.9634   -6326.6623   -6206.5254   -108.43946    18033.598    7.2836833 
    4730    1039.1463   -6323.3181   -6207.3997    642.81145    18040.764    7.2913509 
    4740    1032.2691   -6323.3022    -6208.151    643.56471    18048.509    7.3136519 
    4750     1040.343    -6324.824   -6208.7722    549.09938    18056.916    7.3458018 
    4760    1033.8609   -6324.6043   -6209.2756    69.921471    18065.894    7.3842274 
    4770    1030.0401   -6324.5752   -6209.6727   -655.23574    18075.091    7.4301229 
    4780    1007.1058    -6322.292   -6209.9478   -709.50925    18084.025    7.4797812 
    4790    1023.6687   -6324.3085   -6210.1167   -1027.8735    18092.581    7.5193383 
    4800    1028.5262   -6324.9443   -6210.2106   -1014.4741    18100.531    7.5436376 
    4810    1017.1469   -6323.7056   -6210.2413   -310.49704    18107.911    7.5617396 
    4820    1038.4086   -6326.0485   -6210.2124   -108.62147    18115.192    7.5901412 
    4830    1040.2649   -6326.1886   -6210.1455    -29.49848    18122.551    7.6341295 
    4840    1040.4535   -6326.1409   -6210.0767    14.808636    18130.044    7.6804759 
    4850    1035.0477   -6325.4488   -6209.9877    130.53706    18137.765    7.7114149 
    4860    1051.8579   -6327.2342   -6209.8978   -638.41298    18145.708    7.7279364 
    4870    1025.4397   -6324.1756   -6209.7862   -918.32145    18153.405    7.7408022 
    4880    1035.5734   -6325.1732   -6209.6535   -1179.2766    18160.577    7.7542477 
    4890    1056.6036   -6327.3569   -6209.4911   -1360.8127    18167.012    7.7719404 
    4900     1057.203   -6327.2744   -6209.3418     -1781.24    18172.519    7.7954329 
    4910    1051.5507   -6326.5171    -6209.215    -1870.591    18176.796    7.8253889 
    4920    1053.4996   -6326.6139   -6209.0944   -1718.1796    18179.723    7.8582389 
    4930    1073.9883   -6328.7958   -6208.9907   -1983.8554    18181.319    7.8839334 
    4940    1059.2529   -6327.0832   -6208.9219   -2250.5353    18181.378    7.8996712 
    4950    1035.1238   -6324.3409   -6208.8713   -2892.3187    18179.613    7.9063599 
    4960     1025.815   -6323.2353   -6208.8041   -3190.6779    18175.503    7.9130796 
    4970    1015.3109   -6321.9335   -6208.6741   -2754.0717    18168.757    7.9284543 
    4980    1028.3589   -6323.1821   -6208.4671   -1923.6487    18159.617    7.9479811 
    4990    1027.9031   -6322.8347   -6208.1706   -826.08391     18148.68    7.9717615 
    5000    1028.5877   -6322.5257   -6207.7852   -163.02374    18136.731    7.9896397 
Loop time of 2528.45 on 16 procs for 3000 steps with 864 atoms

Performance: 0.103 ns/day, 234.116 hours/ns, 1.186 timesteps/s
95.5% CPU use with 16 MPI tasks x 1 OpenMP threads

MPI task timing breakdown:
Section |  min time  |  avg time  |  max time  |%varavg| %total
---------------------------------------------------------------
Pair    | 1982.5     | 2238.1     | 2513.4     | 316.7 | 88.52
Bond    | 0.00022888 | 0.00095539 | 0.0022638  |   0.0 |  0.00
Neigh   | 0.039939   | 0.045978   | 0.059018   |   2.5 |  0.00
Comm    | 13.968     | 204.59     | 541.44     | 900.3 |  8.09
Output  | 0.19714    | 0.2022     | 0.27583    |   4.2 |  0.01
Modify  | 0.76979    | 85.478     | 169.07     | 774.0 |  3.38
Other   |            | 0.0162     |            |       |  0.00

Nlocal:        54.0000 ave          67 max          48 min
Histogram: 4 3 0 4 2 1 0 1 0 1
Nghost:        547.188 ave         610 max         495 min
Histogram: 4 2 1 1 1 1 0 2 2 2
Neighs:         0.00000 ave           0 max           0 min
Histogram: 16 0 0 0 0 0 0 0 0 0
FullNghs:      2576.00 ave        3508 max        2060 min
Histogram: 2 4 2 3 2 0 1 0 1 1

Total # of neighbors = 41216
Ave neighs/atom = 47.703704
Ave special neighs/atom = 0.0000000
Neighbor list builds = 300
Dangerous builds = 300
Setting up Verlet run ...
  Unit style    : metal
  Current step  : 5000
  Time step     : 0.001
Per MPI rank memory allocation (min/avg/max) = 8.905 | 8.911 | 8.919 Mbytes
Step Temp PotEng TotEng Press Volume c_msd[4] 
    5000    1028.5877   -6322.5257   -6207.7852   -163.02374    18136.731    7.9896397 
    5010    1050.4327   -6324.9499   -6207.7725   -644.57717    18136.634    8.0006497 
    5020    1056.0546   -6325.5612   -6207.7567   -1109.6216    18136.039    8.0035295 
    5030    1034.8297   -6323.1812   -6207.7444   -381.15059    18134.673    8.0030921 
    5040    1021.8491   -6321.6909   -6207.7021    133.78637    18132.991    8.0022686 
    5050    1030.3417   -6322.5335   -6207.5973   -28.983737    18131.367    8.0161231 
    5060    1042.0038   -6323.6745   -6207.4374    30.364045    18129.748    8.0452182 
    5070    1053.3191   -6324.7482   -6207.2489    52.017932    18128.142    8.0742573 
    5080    1054.9698   -6324.7344   -6207.0509    423.45424    18126.608    8.0938583 
    5090    1046.7509   -6323.6093   -6206.8427    710.83899     18125.39    8.1074966 
    5100    1047.6093    -6323.472   -6206.6096    864.84717    18124.743    8.1187594 
    5110    1061.0969   -6324.7124   -6206.3455    257.53385    18124.725     8.136625 
    5120    1056.4245    -6323.904   -6206.0583   -426.34895    18124.907    8.1654991 
    5130    1043.8895   -6322.2001   -6205.7526   -975.00696    18124.758    8.1959756 
    5140     1025.225   -6319.7392   -6205.3738   -938.46906    18123.896     8.222463 
    5150    1060.3271    -6323.178   -6204.8969   -1536.6556    18122.241    8.2444146 
    5160    1094.7923   -6326.4565   -6204.3308   -1950.9626    18119.391    8.2687023 
    5170     1103.031   -6326.8081   -6203.7633   -1072.7581    18115.073    8.2985071 
    5180    1083.1491   -6324.0538   -6203.2269    721.61689    18109.944    8.3265313 
    5190    1066.5172   -6321.6696    -6202.698    2283.3889    18105.353    8.3466346 
    5200    1081.8574   -6322.8383   -6202.1555    2633.6804    18102.424    8.3593632 
    5210    1071.8062   -6321.1617   -6201.6001    3000.1174    18101.571    8.3749668 
    5220    1074.0258   -6320.8652    -6201.056    3180.7945    18103.043    8.3996792 
    5230    1055.0528    -6318.196   -6200.5033    3596.0826    18107.056    8.4331081 
    5240    1094.1898   -6322.0002   -6199.9417    2921.3684    18113.855    8.4721056 
    5250    1107.2546   -6322.9198   -6199.4039    2467.2075    18123.032      8.50741 
    5260    1096.7878   -6321.3103   -6198.9619    2720.7099    18134.274    8.5330872 
    5270    1095.3224    -6320.804   -6198.6191      2732.92    18147.718    8.5546258 
    5280    1047.8525   -6315.2227   -6198.3332    3681.8187    18163.525    8.5782359 
    5290    1050.9286   -6315.2924   -6198.0597    2762.7522    18182.218     8.597726 
    5300    1100.0006   -6320.4583   -6197.7515    698.60386    18203.178    8.6155371 
    5310    1103.6961   -6320.6078   -6197.4888   -604.71433    18224.927    8.6507495 
    5320    1094.0522   -6319.3654   -6197.3223   -1547.3897    18246.383     8.707568 
    5330    1096.1451   -6319.5256    -6197.249   -2257.9507    18266.775    8.7639027 
    5340    1107.3427   -6320.8021   -6197.2764   -2986.8236     18285.52    8.8064472 
    5350    1117.5853   -6322.1269   -6197.4586   -3414.4087    18302.023    8.8400028 
    5360    1093.3128    -6319.782   -6197.8213    -2668.306     18316.01    8.8718121 
    5370    1071.8211   -6317.9078   -6198.3445   -2349.7794    18327.897     8.906804 
    5380    1057.7771   -6316.9619   -6198.9652   -2631.2832    18337.922    8.9512851 
    5390     1072.592   -6319.3249   -6199.6756   -3233.1062    18345.859    9.0075092 
    5400    1066.9287   -6319.5097   -6200.4922   -3192.0787     18351.28    9.0649879 
    5410    1048.8026   -6318.3757   -6201.3802   -2996.9631    18354.158    9.1081519 
    5420     1053.109    -6319.782   -6202.3061   -2928.9787    18354.626    9.1374775 
    5430    1056.1182   -6321.0627   -6203.2511   -3015.7699    18352.732    9.1699457 
    5440    1050.4792   -6321.3663   -6204.1837   -3336.2457    18348.377    9.2126594 
    5450    1022.2166   -6319.0738    -6205.044   -2865.0004    18341.367    9.2570398 
    5460    1000.1933   -6317.3326   -6205.7595   -2172.8819    18332.036    9.2951908 
    5470    995.96693   -6317.4034   -6206.3018   -2463.4674     18320.84    9.3179114 
    5480    1006.2555   -6318.9567   -6206.7074   -3288.1445    18307.553    9.3239323 
    5490    1011.0124    -6319.774    -6206.994   -3642.8302    18291.599     9.321514 
    5500    1035.3655   -6322.6962   -6207.1996   -3691.5947    18272.674    9.3179005 
    5510    1037.6195    -6323.095    -6207.347   -2824.2818    18250.805    9.3174663 
    5520    1043.0932   -6323.8181   -6207.4595    -1743.572    18226.632    9.3247759 
    5530    1056.0291   -6325.3452   -6207.5436   -860.59555        18201     9.339075 
    5540    1042.2467   -6323.8543   -6207.5901    159.51362    18174.683    9.3595303 
    5550    1029.3988   -6322.4488   -6207.6178    971.69434    18148.479    9.3805581 
    5560    1026.0757   -6322.0482   -6207.5879    1667.0037    18123.071    9.3973933 
    5570     1057.773   -6325.5151   -6207.5189    1354.9233    18098.947    9.4055187 
    5580    1078.2291   -6327.7464   -6207.4684    1024.7452    18075.956     9.406472 
    5590    1070.8369   -6326.9179   -6207.4645    1437.3265    18053.921    9.4090738 
    5600    1071.1843   -6326.9899   -6207.4977    1879.2784    18033.114    9.4154741 
    5610    1066.3215   -6326.5078    -6207.558    2239.6049    18013.876    9.4258481 
    5620    1068.9739   -6326.8972   -6207.6516    2600.1741    17996.484    9.4315272 
    5630    1064.8087    -6326.561     -6207.78    3127.9258    17981.242    9.4276529 
    5640    1068.3996   -6327.1385   -6207.9569    3248.3017    17968.493    9.4216833 
    5650    1075.2006   -6328.1306   -6208.1904    3038.3676    17958.319    9.4248677 
    5660     1080.112   -6328.9944   -6208.5062    2692.6691    17950.539    9.4418678 
    5670     1072.241   -6328.5266   -6208.9165    2841.8788    17944.929    9.4682576 
    5680    1047.2162   -6326.2145   -6209.3959    2824.1058    17941.534    9.4928094 
    5690    1050.7961   -6327.1367   -6209.9188     2266.276    17940.293    9.5069468 
    5700     1031.262   -6325.4858    -6210.447    2473.5124    17940.859    9.5179582 
    5710    1035.5391   -6326.4864   -6210.9705    2442.6045    17943.299    9.5335378 
    5720    1043.3405   -6327.9027   -6211.5165    1931.2153    17947.561    9.5632114 
    5730    1013.5755   -6325.1679    -6212.102    1970.3368    17953.311    9.6093599 
    5740    989.21537   -6323.0138   -6212.6653    2033.7482    17960.536    9.6564434 
    5750    1012.7172   -6326.1389   -6213.1688    1108.4709    17969.197    9.6867355 
    5760    1039.0466   -6329.5615   -6213.6542    233.67852     17978.65    9.7034153 
    5770    1038.5292   -6330.0189   -6214.1694    282.94705    17988.272    9.7179189 
    5780    1035.5568   -6330.2702   -6214.7522    188.08701    17998.021    9.7351058 
    5790     1021.744     -6329.39   -6215.4129    213.04249     18007.85    9.7616134 
    5800    1004.2485    -6328.155   -6216.1295    96.296312    18017.761    9.7842889 
    5810    999.50471   -6328.3986   -6216.9024   -171.54078    18027.666    9.7972338 
    5820    970.17703   -6325.9099   -6217.6852    144.35426    18037.415    9.8164008 
    5830    975.99298    -6327.303   -6218.4295    144.93224    18047.189    9.8529707 
    5840    981.00293   -6328.5557   -6219.1233    3.1593616    18056.995    9.8980375 
    5850    983.65319   -6329.4594   -6219.7314   -488.35631    18066.706    9.9335517 
    5860     1026.061   -6334.7792   -6220.3206   -1443.4591     18075.92    9.9546036 
    5870    1019.8706   -6334.6749   -6220.9068   -1721.8453    18083.997    9.9637707 
    5880    1004.4618   -6333.5315   -6221.4823   -1668.6779      18090.7    9.9583385 
    5890    1001.4602   -6333.7342   -6222.0198   -1439.8112    18096.061    9.9415418 
    5900    947.32533   -6328.1259   -6222.4504    -282.9779    18100.337    9.9353167 
    5910    928.73493   -6326.3187    -6222.717   -165.78652     18104.28    9.9569167 
    5920    955.52274   -6329.3606   -6222.7706   -907.07165    18108.018    10.004423 
    5930    971.83285   -6331.0234   -6222.6139   -1584.7242    18111.025     10.06463 
    5940    986.39751   -6332.3046   -6222.2704   -2158.9101    18112.768    10.118588 
    5950    1007.2639   -6334.1019   -6221.7401   -2529.3784    18112.831    10.151231 
    5960    1020.2649   -6334.8563   -6221.0442   -2321.2392    18110.968    10.162611 
    5970    974.66306   -6328.9289   -6220.2038   -1239.7898    18107.386     10.16676 
    5980    958.24921   -6326.0968   -6219.2026   -922.34295    18102.809    10.172155 
    5990    979.48114   -6327.2597   -6217.9971   -1076.3285    18097.515    10.175576 
    6000    996.64615   -6327.8573   -6216.6799   -729.32985    18091.457    10.171488 
    6010    1028.4932   -6330.1402   -6215.4103   -773.42644     18084.82    10.166091 
    6020    1033.6558   -6329.6105   -6214.3046   -341.75214     18077.66    10.176292 
    6030    1023.4139   -6327.5761   -6213.4127    887.45916    18070.336    10.209161 
    6040    1019.6235   -6326.4224   -6212.6818    2299.9348    18063.769    10.251915 
    6050    1043.9583   -6328.5039   -6212.0488    2703.3826    18058.973    10.288148 
    6060    1088.1893   -6332.9156   -6211.5265    1359.6891    18056.175    10.313787 
    6070    1095.0872   -6333.3055   -6211.1469    352.98076    18054.466    10.326838 
    6080    1037.0243   -6326.5776    -6210.896     1472.582    18053.197    10.333402 
    6090    1030.8665   -6325.6609   -6210.6662    1828.3402    18053.007    10.341917 
    6100    1064.8217   -6329.2037   -6210.4212    1616.3598    18054.207    10.352546 
    6110    1042.8944   -6326.5317   -6210.1952    2615.5721    18056.777     10.36078 
    6120    1030.8732   -6324.9784   -6209.9829    2834.6859    18061.318    10.365982 
    6130    1029.5145   -6324.5834   -6209.7395    2463.1133    18068.031     10.37611 
    6140    1049.8701   -6326.5654   -6209.4508    1366.1825    18076.605       10.401 
    6150    1071.9014   -6328.7253   -6209.1531    441.07749    18086.242    10.440459 
    6160     1052.607   -6326.3038   -6208.8839    507.69377     18096.29    10.478052 
    6170    1066.0864   -6327.5599   -6208.6364   -227.83866    18106.641    10.496739 
    6180    1060.8513   -6326.7482   -6208.4087     184.2899    18116.891    10.498292 
    6190     1026.985   -6322.7677    -6208.206    1331.8404    18127.316    10.499008 
    6200    1009.5853   -6320.5836   -6207.9628      1247.33    18138.692    10.500658 
    6210    1035.9129   -6323.1972   -6207.6395    183.66427    18150.973    10.496835 
    6220     1038.631   -6323.1035   -6207.2426   -362.26626    18163.429    10.498866 
    6230    1040.8509    -6322.916   -6206.8075   -639.55935    18175.615    10.523336 
    6240    1055.0416   -6324.0375    -6206.346   -1033.9373     18187.27     10.56917 
    6250    1050.6087   -6323.0673   -6205.8703   -1097.5164    18198.143    10.617281 
    6260    1068.4467   -6324.5833   -6205.3964   -1479.6152     18208.12    10.650556 
    6270     1064.645   -6323.7011   -6204.9384   -1220.6076    18216.994    10.669589 
    6280    1057.0368    -6322.431    -6204.517   -1620.3489    18224.835    10.687971 
    6290    1052.0343   -6321.4625   -6204.1065   -2154.6637    18231.391     10.71886 
    6300    1067.0307   -6322.7298   -6203.7009   -2391.6015    18236.262    10.758264 
    6310    1081.2948   -6323.9438   -6203.3237   -1877.9951     18239.29    10.790769 
    6320    1080.7932   -6323.5673   -6203.0032   -1406.4951    18240.827    10.807155 
    6330    1076.6211    -6322.849   -6202.7503   -2009.9008    18241.164    10.808689 
    6340    1079.3327    -6322.959   -6202.5578   -2933.2943    18239.881    10.798361 
    6350    1094.9179    -6324.574   -6202.4342   -3313.5077    18236.301    10.787656 
    6360    1087.5802   -6323.7302    -6202.409   -2926.4244    18230.132    10.793995 
    6370     1049.763   -6319.5593   -6202.4566   -1972.1169    18221.676     10.82535 
    6380    1055.8194   -6320.2992   -6202.5209   -1317.6919    18211.639     10.87139 
    6390    1056.7731   -6320.4798   -6202.5951   -398.24276    18200.586    10.922015 
    6400    1016.8731    -6316.087   -6202.6533    987.84079    18189.271    10.971171 
    6410    1044.1078   -6319.1439   -6202.6721    885.94192    18178.617    11.020036 
    6420    1075.2171   -6322.6096   -6202.6675    804.16587    18168.694    11.074541 
    6430     1100.647   -6325.5188     -6202.74    1061.3789    18159.433     11.12812 
    6440    1062.1716   -6321.4082   -6202.9214    2379.8933    18151.124    11.171954 
    6450    1035.5271   -6318.6724   -6203.1578    2101.3993    18144.576    11.201566 
    6460    1062.3886     -6321.94    -6203.429    992.99535    18139.627    11.224404 
    6470    1033.8498    -6319.062   -6203.7345     1521.408     18135.58    11.258901 
    6480     1005.579   -6316.2264   -6204.0525    1950.0722    18132.729    11.310082 
    6490    1009.5148   -6316.9567   -6204.3438    1786.1733    18131.376    11.359576 
    6500    1007.6706   -6316.9832    -6204.576    1872.8497    18131.447    11.390456 
    6510    1016.5927   -6318.1465   -6204.7441    1615.3983    18132.952    11.403537 
    6520    1024.8858   -6319.1729   -6204.8453    1510.8031    18135.751    11.405517 
    6530     1064.782   -6323.7095   -6204.9314    659.55649    18139.683    11.409003 
    6540    1076.2483   -6325.1078   -6205.0507   -472.44234    18144.112    11.424263 
    6550    1052.4559    -6322.652   -6205.2489   -728.28902    18148.219    11.444797 
    6560    1013.0843   -6318.4714   -6205.4604   -142.63913    18151.814     11.45456 
    6570    1025.6547   -6320.0326   -6205.6192    95.323303    18155.255    11.447136 
    6580    1033.0326   -6320.9251   -6205.6887    225.00618    18158.758    11.432142 
    6590     1068.126    -6324.879   -6205.7279    46.507394    18162.404    11.424071 
    6600    1088.5602   -6327.2315    -6205.801    356.26832      18166.1    11.440814 
    6610    1094.8462   -6328.0996   -6205.9679    67.251182    18170.013    11.491983 
    6620    1106.3093   -6329.6983   -6206.2878   -1235.5982    18173.864    11.567371 
    6630    1075.6428   -6326.7415    -6206.752   -1399.0401    18176.805    11.645877 
    6640     1064.963   -6326.1298   -6207.3316   -1069.3465    18178.659    11.713553 
    6650    1053.6514    -6325.517   -6207.9806   -661.12079    18179.667    11.770043 
    6660    1022.4699   -6322.7087   -6208.6506    517.52974    18180.209    11.809242 
    6670    1004.9639   -6321.3789   -6209.2736    1200.1407    18181.107     11.82364 
    6680    1026.2562   -6324.3067   -6209.8263    792.94089    18182.862    11.817601 
    6690    1049.8541   -6327.4562   -6210.3434   -16.137608    18185.192     11.80588 
    6700    1035.3476    -6326.325   -6210.8305    -173.5499     18187.54    11.796521 
    6710     1033.551   -6326.5857   -6211.2915   -334.72655    18189.734    11.798029 
    6720    1050.5939   -6328.9142   -6211.7189   -979.08546    18191.616    11.815979 
    6730    1046.5048   -6328.8843   -6212.1451   -1436.5916     18192.72     11.84524 
    6740    1016.3975   -6325.9391   -6212.5584   -1107.1767    18192.748    11.881167 
    6750    1001.2524   -6324.5972    -6212.906   -968.61963    18191.892    11.916893 
    6760    984.91179   -6323.0185   -6213.1501   -1214.1188    18190.271    11.946822 
    6770     997.1993   -6324.5049   -6213.2658   -1888.9754    18187.709    11.971569 
    6780    1030.3481   -6328.2192   -6213.2823    -2831.917    18183.669    12.000824 
    6790    1035.6342   -6328.7674   -6213.2408   -2446.2346    18177.572    12.037204 
    6800    1049.0358   -6330.2052   -6213.1837   -1601.6155    18169.674    12.068144 
    6810    1030.9856   -6328.1091   -6213.1011   -495.60192    18160.673    12.083401 
    6820    1029.1581   -6327.7847   -6212.9805    64.469261    18151.398     12.08643 
    6830    1039.8231   -6328.7992   -6212.8053    54.333846    18142.281    12.082427 
    6840    1013.8663   -6325.6682   -6212.5699    495.12998    18133.391    12.073551 
    6850    1002.7928   -6324.1125   -6212.2495     1152.009    18125.037    12.064757 
    6860    995.65908   -6322.8458   -6211.7785    1912.0819    18117.735    12.061276 
    6870    1015.9284   -6324.4722   -6211.1438    1526.5327    18111.973    12.066417 
    6880    1015.3655   -6323.6066    -6210.341    1189.3114    18107.528    12.080816 
    6890    1031.1825    -6324.424   -6209.3941    745.09203    18104.082     12.09465 
    6900    1078.0685   -6328.5864   -6208.3263   -26.081828    18101.234    12.101172 
    6910     1079.072   -6327.6215   -6207.2493    422.59226    18098.518    12.106056 
    6920    1074.1645   -6326.0907    -6206.266    1228.4399    18096.208    12.115461 
    6930    1080.1398   -6325.8914   -6205.4002    1492.8867    18094.866    12.127381 
    6940     1077.014   -6324.8138   -6204.6713    1202.6862     18094.68    12.134196 
    6950    1071.6465   -6323.6274   -6204.0836    707.52005     18095.42    12.129624 
    6960    1055.3562   -6321.3328   -6203.6062    576.73307    18096.748    12.119485 
    6970    1061.2983   -6321.6058   -6203.2164   -235.61728    18098.452     12.12442 
    6980    1065.2647   -6321.7188   -6202.8869   -785.19998    18099.966    12.152962 
    6990    1088.9057   -6324.1123   -6202.6432   -487.75126    18100.919    12.190831 
    7000    1085.4511    -6323.588   -6202.5043    692.73864    18101.544    12.228472 
    7010    1067.9925   -6321.5939   -6202.4577    1678.4899    18102.697     12.27103 
    7020    1068.6454   -6321.6725   -6202.4635    1395.7545    18105.046    12.314621 
    7030    1061.9938   -6320.9729   -6202.5059    1017.5175    18108.455    12.357244 
    7040    1056.8269   -6320.4657   -6202.5751    363.84876    18112.591    12.398792 
    7050    1041.7104   -6318.8403   -6202.6359   -215.81168    18116.977    12.433702 
    7060    1063.0612    -6321.278   -6202.6919   -1042.9732    18121.108    12.465001 
    7070    1068.0361   -6321.9087   -6202.7676   -1369.7333    18124.386    12.503261 
    7080    1077.7231   -6323.1078   -6202.8861   -717.67584    18126.622    12.547101 
    7090    1085.0802   -6324.1022   -6203.0599   -274.54784    18128.254    12.586447 
    7100    1087.7369   -6324.6486   -6203.3099   -912.82687    18129.565    12.612975 
    7110    1078.0758   -6323.8665   -6203.6055   -2136.1179    18130.125    12.637984 
    7120    1092.4598    -6325.833   -6203.9674   -3524.7504    18128.998    12.670055 
    7130    1092.1307   -6326.2291   -6204.4002    -3799.694    18125.218    12.696276 
    7140    1078.4891   -6325.2231   -6204.9161   -2921.1651    18118.627    12.715868 
    7150    1046.8578   -6322.2229   -6205.4443   -1667.3823    18109.914    12.744525 
    7160    1032.4742   -6321.1071   -6205.9331   -569.45307    18100.044    12.795365 
    7170    1013.0116   -6319.3416   -6206.3387    731.23419    18089.916    12.868974 
    7180     989.2355   -6316.9728   -6206.6221    1313.5133    18080.484     12.94198 
    7190    1007.6826   -6319.1934   -6206.7849    532.09961    18072.134    12.988889 
    7200    1022.0271   -6320.8489   -6206.8402   -131.00363    18064.353    13.008225 
    7210    1045.9857   -6323.5269   -6206.8456   -6.5967318    18056.645    13.012167 
    7220    1059.6756   -6325.0326   -6206.8242    1094.7997    18049.146    13.012115 
    7230    1071.6366   -6326.3709   -6206.8282    1707.6566    18042.576    13.020383 
    7240    1075.4423   -6326.8461   -6206.8788    1704.2358      18037.4    13.043108 
    7250    1070.2885   -6326.3745   -6206.9822    919.89685    18033.577     13.07429 
    7260    1076.4904   -6327.2287   -6207.1445   -439.57266     18030.47    13.105872 
    7270    1084.2367   -6328.3059   -6207.3577   -945.65763    18027.154    13.129692 
    7280    1089.0069   -6329.1254    -6207.645   -730.06036      18023.2    13.144799 
    7290    1063.6076   -6326.6337   -6207.9867    652.19765    18018.831    13.162406 
    7300    1051.3485   -6325.6164   -6208.3369    1322.3268    18014.983     13.18707 
    7310    1060.3921   -6326.9663    -6208.678    649.50477    18012.122    13.219475 
    7320    1065.1579   -6327.8448   -6209.0249    134.31926    18009.823    13.259363 
    7330    1062.0497   -6327.8534   -6209.3801      121.673    18007.688    13.300843 
    7340    1057.2419   -6327.6776   -6209.7407    654.74836    18005.725    13.339112 
    7350    1045.3278   -6326.6927   -6210.0848    1243.8052    18004.294    13.370733 
    7360    1033.2103   -6325.6486   -6210.3925    1236.1462     18003.79    13.389181 
    7370    1021.6253   -6324.5942   -6210.6304    778.37474    18004.216    13.400003 
    7380     1020.778   -6324.6533    -6210.784    212.72297    18005.232    13.417636 
    7390     1041.198   -6327.0164   -6210.8692   -186.00432    18006.417    13.451478 
    7400    1056.7021   -6328.7908   -6210.9141   -539.99862    18007.441    13.499422 
    7410    1061.8803   -6329.4162   -6210.9618   -408.17324    18008.082    13.552244 
    7420    1049.6731   -6328.1079   -6211.0153   -80.127115    18008.431    13.597572 
    7430    1055.6206   -6328.8265   -6211.0705   -238.69066    18008.686    13.619777 
    7440    1036.8254   -6326.7763   -6211.1168    448.37432    18008.835     13.61908 
    7450    1016.6069   -6324.5354   -6211.1314    1349.4547     18009.34    13.615415 
    7460    1006.1634   -6323.3149   -6211.0759    1944.4907     18010.88    13.621182 
    7470    1035.8224   -6326.5145    -6210.967     1432.155    18013.827    13.634529 
    7480    1055.2624    -6328.544   -6210.8279    768.32059    18017.845    13.648125 
    7490    1058.9821   -6328.8488   -6210.7178    220.61077    18022.409    13.652876 
    7500    1042.3582   -6326.9074   -6210.6307    4.5801327    18027.114    13.651226 
    7510    1042.1279   -6326.8027   -6210.5517    299.95118    18031.806    13.656074 
    7520     1013.081    -6323.454   -6210.4433    1187.7274    18036.725    13.677284 
    7530    1026.1465   -6324.7631    -6210.295    1091.0757    18042.431    13.712561 
    7540    1042.5971   -6326.3983    -6210.095     725.2442    18048.915    13.748031 
    7550    1039.2869   -6325.8107   -6209.8767    316.53145    18055.898    13.777525 
    7560    1048.2984   -6326.5835   -6209.6442   -424.23896    18063.035    13.808206 
    7570    1049.8086   -6326.5177     -6209.41   -689.11566    18069.798    13.841557 
    7580    1023.4004   -6323.3334   -6209.1716   -197.38304     18076.02    13.869958 
    7590    1017.4593   -6322.3937   -6208.8946    -303.1739    18081.994    13.884289 
    7600    1039.2614   -6324.4784   -6208.5472   -552.09132    18087.685    13.885111 
    7610    1070.3533   -6327.5761   -6208.1765   -579.06426    18092.906    13.880871 
    7620    1070.5921   -6327.2518   -6207.8257    -698.6751    18097.636    13.878893 
    7630    1078.1378   -6327.7944   -6207.5265    -1205.497     18101.76    13.891956 
    7640    1076.1646   -6327.3258    -6207.278   -1632.9299    18104.918     13.92281 
    7650    1058.9365    -6325.211   -6207.0851   -1833.6845    18106.792    13.962588 
    7660    1026.5286   -6321.4122   -6206.9014   -1662.0341    18107.257    14.007811 
    7670    1010.3381   -6319.3814   -6206.6767   -1670.2143      18106.4    14.054847 
    7680    1002.2883   -6318.1675   -6206.3607   -1091.2198    18104.286    14.087889 
    7690    986.48005   -6315.9554    -6205.912    249.44583    18101.406    14.091977 
    7700     1019.829   -6319.0793   -6205.3158    574.06001    18098.663    14.075145 
    7710     1040.557   -6320.6562   -6204.5805    865.16324    18096.406    14.055646 
    7720    1070.6062   -6323.2144   -6203.7866    534.69071    18094.781    14.053083 
    7730    1081.8744   -6323.6795   -6202.9948    228.66617      18093.6    14.082831 
    7740    1103.8022   -6325.4084   -6202.2776   -545.38472    18092.564    14.140668 
    7750    1075.0547   -6321.5841   -6201.6601   -645.12919    18091.169    14.211874 
    7760    1053.8104   -6318.6946   -6201.1405   -646.79667    18089.288    14.274697 
    7770    1043.1824   -6317.0053   -6200.6367   -822.22928    18086.914    14.312247 
    7780    1042.9181    -6316.479   -6200.1399   -1293.6651    18083.892    14.325126 
    7790    1055.0848   -6317.3358   -6199.6395   -1525.2728    18079.903    14.323152 
    7800    1055.3895   -6316.8827   -6199.1524   -747.17804    18074.831    14.313483 
    7810    1056.6983   -6316.5785   -6198.7022    541.54555    18069.246    14.302398 
    7820    1029.8203   -6313.1415   -6198.2635    2139.0475    18064.141    14.297603 
    7830    1053.8719   -6315.3959   -6197.8349    2527.1642    18060.638    14.298661 
    7840    1092.2785    -6319.272   -6197.4267    1963.3632    18059.075    14.304333 
    7850    1079.1493   -6317.5032   -6197.1225    1327.5971    18059.047    14.319742 
    7860    1070.0958   -6316.2839   -6196.9131    860.53931    18060.069    14.342026 
    7870    1096.8774    -6319.132   -6196.7737    461.63021    18061.778    14.362369 
    7880    1106.1529   -6320.1275   -6196.7345    113.47292    18063.845    14.378401 
    7890    1097.0441   -6319.1948   -6196.8179    122.96341    18066.023    14.389767 
    7900    1086.0792   -6318.1548    -6197.001    307.41078    18068.297    14.398104 
    7910    1066.9941   -6316.2606   -6197.2358    1167.2042    18070.866    14.402655 
    7920    1064.0631   -6316.1757   -6197.4778    1527.3281    18074.314    14.407878 
    7930    1080.2764   -6318.2373   -6197.7309    1466.1434    18078.923    14.417446 
    7940    1074.9297    -6317.913    -6198.003    1344.1616    18084.672    14.435997 
    7950    1099.2055   -6320.9165   -6198.2985    759.61013    18091.435    14.465662 
    7960    1108.9731     -6322.34   -6198.6324    510.91254    18098.813    14.507041 
    7970    1103.5803   -6322.1222   -6199.0162    599.76795    18106.602     14.55306 
    7980     1082.517   -6320.1851   -6199.4287    479.75298    18114.844    14.599376 
    7990    1052.9085   -6317.2675    -6199.814   -104.47651     18123.42    14.647832 
    8000    1036.1441   -6315.6966   -6200.1132   -539.09364    18131.934    14.699405 
    8010     1032.073     -6315.46   -6200.3307    -993.2751    18140.018    14.749926 
    8020    1016.6261   -6313.8668   -6200.4606   -851.72788    18147.369    14.793003 
    8030    1024.7239   -6314.8212   -6200.5117   -370.94727    18154.085    14.817559 
    8040    1048.7748   -6317.5103   -6200.5179   -218.03383    18160.494    14.839405 
    8050     1050.246   -6317.6621   -6200.5056   -182.54284    18166.741    14.886022 
    8060    1082.1093   -6321.2315   -6200.5205   -790.32991    18172.786     14.95499 
    8070    1096.6432   -6322.9198   -6200.5876   -659.52344    18178.288    15.029651 
    8080    1079.3507   -6321.1649   -6200.7617   -217.82646    18183.293    15.098655 
    8090    1056.2843   -6318.8137   -6200.9836   -236.59126    18188.109    15.154907 
    8100    1055.0554   -6318.9176   -6201.2245   -1017.0942     18192.69    15.196092 
    8110    1033.8818   -6316.7925   -6201.4615   -1384.9252    18196.503    15.238418 
    8120    1023.7044   -6315.8631   -6201.6674   -1264.6455     18199.27     15.29304 
    8130    1017.8196    -6315.349   -6201.8097   -1355.2654    18201.035    15.354543 
    8140    1068.1087   -6321.0587   -6201.9096   -2556.5654    18201.646    15.413992 
    8150    1111.0788        -6326   -6202.0575   -3474.6302    18200.257    15.460852 
    8160    1087.7691   -6323.6803    -6202.338   -3197.1629    18196.188    15.481068 
    8170     1055.267   -6320.4307   -6202.7141   -2382.8968     18189.62      15.4762 
    8180    1059.9588   -6321.3702   -6203.1302   -2176.9827    18181.102    15.463281 
    8190    1057.3192     -6321.52   -6203.5745   -1617.1403    18170.884    15.457988 
    8200    1062.1186   -6322.5436   -6204.0627   -1304.2784    18159.339    15.467163 
    8210    1048.3342   -6321.5183    -6204.575   -1043.2022    18146.733    15.492223 
    8220    1057.4917   -6323.0912   -6205.1264   -1020.9985     18133.24    15.520917 
    8230    1044.0518   -6322.1587   -6205.6932   -522.10707    18118.963    15.543322 
    8240     1041.559    -6322.456   -6206.2685   -311.69644    18104.203     15.56178 
    8250    1051.9031   -6324.1835   -6206.8421    19.511646    18089.178    15.577913 
    8260    1059.4526   -6325.6234   -6207.4399    271.87556    18074.114    15.581409 
    8270     1065.745   -6326.9559   -6208.0704    916.96225    18059.256    15.561588 
    8280    1047.6413   -6325.5862   -6208.7202    1455.8857    18045.054    15.523687 
    8290     1041.359   -6325.5244   -6209.3592    1464.7954    18031.918    15.480429 
    8300    1034.6486   -6325.3921   -6209.9754     1260.738    18019.858    15.446631 
    8310    1020.6558   -6324.3894   -6210.5337     1577.287    18008.795    15.423427 
    8320    1039.1951   -6326.9645   -6211.0407    829.20829    17998.824    15.402086 
    8330    1010.6202   -6324.2069   -6211.4707    1731.7363    17989.604    15.382087 
    8340    996.82802   -6322.9928   -6211.7952    2486.8849    17981.669    15.369537 
    8350    1022.1445    -6326.041   -6212.0193    2144.2526    17975.549     15.37021 
    8360    1011.7561   -6325.0218   -6212.1589    2102.1108    17971.102    15.380131 
    8370    1003.2324   -6324.1334   -6212.2214      2100.67     17968.27    15.388238 
    8380    1012.4743   -6325.1308   -6212.1878    1682.5357    17967.025    15.389083 
    8390    1057.6152   -6330.0715    -6212.093    212.51667    17966.981    15.387198 
    8400    1073.3917   -6331.7431   -6212.0046   -341.32894    17967.174    15.393377 
    8410    1027.4368   -6326.5535   -6211.9414    1177.6811    17967.252    15.406529 
    8420    1004.2218   -6323.8571   -6211.8347    2636.7517     17968.24    15.418506 
    8430    1043.7945   -6328.0927   -6211.6558    2087.0086    17971.115     15.42282 
    8440    1054.3347   -6329.0432   -6211.4306    2383.4218    17975.721    15.418695 
    8450    1059.5759   -6329.4187   -6211.2214    2814.9188    17982.201    15.412421 
    8460    1042.9325    -6327.357   -6211.0163    3360.2358    17990.948    15.412543 
    8470     1064.527   -6329.5571   -6210.8075    3196.8624    18002.313    15.423018 
    8480    1081.3848   -6331.2074   -6210.5773    2413.7656    18016.207    15.456327 
    8490    1096.4598    -6332.683   -6210.3713    1445.0798    18032.049    15.514528 
    8500    1054.0796   -6327.7951    -6210.211    1343.5949    18049.188    15.590462 
    8510    1027.3652   -6324.6426   -6210.0385    1415.6913    18067.502     15.68078 
    8520    1034.8272   -6325.1972   -6209.7606    1229.7309    18087.026    15.786799 
    8530    1048.8008   -6326.3311   -6209.3357    991.54712    18107.619    15.910346 
    8540     1034.232   -6324.1139   -6208.7437    1062.3076    18129.137    16.041314 
    8550    1031.3594   -6322.9873   -6207.9376    549.55146     18151.56    16.157387 
    8560    1042.4977    -6323.182   -6206.8898   -307.32426    18174.506    16.235093 
    8570    1037.0146   -6321.3405     -6205.66   -1030.3246    18197.329    16.274834 
[...]
   22890    1061.5332   -6313.2749   -6194.8592    731.00612    18440.594    57.395463 
   22900    1063.2232   -6314.0985   -6195.4944   -283.47259     18443.04    57.388636 
   22910    1078.7398    -6316.572   -6196.2369   -1616.8524     18445.23    57.406236 
   22920    1043.4154   -6313.4494   -6197.0548   -1228.4595    18446.245    57.441385 
   22930    1016.1837   -6311.2118    -6197.855    -1319.134    18446.219    57.481313 
   22940    1025.5417   -6312.9867   -6198.5859   -2426.0713    18445.048    57.508776 
   22950    1050.3227   -6316.4475   -6199.2824   -3246.0341    18441.919    57.532008 
   22960    1044.7207   -6316.5114   -6199.9712   -2698.7744    18436.241    57.556278 
   22970    1040.7234   -6316.7081   -6200.6138   -1547.7097    18428.406    57.565623 
   22980    1031.0007   -6316.2017    -6201.192   -719.81895     18419.28    57.567704 
   22990    1005.7077    -6313.867   -6201.6788   -68.975573    18409.546    57.576953 
   23000    992.20603   -6312.7194   -6202.0373   -97.444512    18399.685    57.589523 
   23010     1009.823   -6314.9154   -6202.2681   -541.85129    18389.687    57.620464 
   23020    1021.1585   -6316.3196   -6202.4079   -5.1896769    18379.316    57.673651 
   23030    1009.4513   -6315.0617   -6202.4559    968.34538    18368.961    57.731027 
   23040    1024.8962   -6316.7477    -6202.419    1182.7766    18359.332    57.788615 
   23050    1033.5338   -6317.6197   -6202.3275    889.03104    18350.608    57.845896 
   23060    1014.5432   -6315.3697   -6202.1959    735.44856    18342.584    57.889085 
   23070    994.04085   -6312.8897   -6202.0029    940.39647    18335.156     57.92747 
   23080     1024.749   -6316.0318   -6201.7195   -166.74703    18328.376    57.968811 
   23090    1077.3113   -6321.5709   -6201.3953   -1653.8322    18321.419    58.024985 
   23100    1056.0495   -6318.9199    -6201.116   -1762.7218    18313.213    58.106344 
   23110    1050.9794   -6318.1269   -6200.8886   -1575.7056    18303.582    58.191075 
   23120    1050.6863   -6317.8814   -6200.6758   -1096.9317    18292.678    58.242122 
   23130    1039.0114   -6316.3674   -6200.4641    -728.1433    18280.852    58.243067 
   23140    1062.0869   -6318.7323   -6200.2549   -770.85918    18268.362     58.19321 
   23150    1082.9838    -6320.887   -6200.0786   -477.97014    18255.232     58.09986 
   23160    1075.1664   -6319.9023   -6199.9659    375.05077    18241.713    58.001004 
   23170    1078.2071   -6320.1975   -6199.9218    784.56832    18228.388    57.925923 
   23180    1075.0302   -6319.8532   -6199.9319    775.91188    18215.598    57.873988 
   23190    1066.0507   -6318.9232   -6200.0036    812.86112    18203.373    57.846884 
   23200    1045.8597   -6316.7531   -6200.0859    995.69687    18191.747    57.869692 
   23210    1069.3082   -6319.4562   -6200.1732     354.0771    18180.785    57.946332 
   23220    1080.1571   -6320.7905   -6200.2974   -11.132522    18170.079    58.033365 
   23230    1081.0973   -6321.0762   -6200.4781   -561.66302    18159.272    58.084005 
   23240    1077.0019   -6320.8563   -6200.7151    -871.3507    18147.962     58.08801 
   23250    1062.8886   -6319.5441   -6200.9773   -257.13698     18135.96    58.077399 
   23260    1074.6282   -6321.1152   -6201.2389    306.46475    18123.661    58.089864 
   23270    1065.1712   -6320.3115     -6201.49    930.49564     18111.53    58.154167 
   23280     1064.381   -6320.4579   -6201.7246    675.36383    18099.968    58.248675 
   23290    1078.4534   -6322.2467   -6201.9436    234.20601    18088.849    58.325004 
   23300    1089.9538   -6323.7656   -6202.1796   -108.93024    18077.815    58.356407 
   23310    1075.0097   -6322.3498   -6202.4309    825.81866    18066.701    58.334095 
   23320    1068.3048   -6321.8336   -6202.6626    2416.4668    18056.191    58.252748 
   23330    1079.0271   -6323.2503   -6202.8833    3327.0064    18047.421    58.139724 
   23340    1075.6386   -6323.1091     -6203.12    3529.0918    18041.122       58.037 
   23350    1068.9279   -6322.6116   -6203.3711    3461.8295    18037.516    57.968888 
   23360    1083.8328    -6324.551   -6203.6478    3248.0777    18036.562    57.954688 
   23370    1063.6497   -6322.6015   -6203.9498    3327.6371    18038.162    58.000261 
   23380    1037.2329     -6319.96   -6204.2551    2941.8432    18042.346    58.073353 
   23390    1012.7483   -6317.4875   -6204.5139     2632.598    18048.901    58.132368 
   23400    1009.5326   -6317.2962   -6204.6813    2452.2719     18057.63    58.138746 
   23410     1050.398   -6321.9566   -6204.7831    1808.8519    18068.373    58.080958 
   23420    1046.3253   -6321.5816   -6204.8625    1826.3354    18080.767    57.992218 
   23430    1037.3026   -6320.6493   -6204.9367    922.28765    18094.711    57.943008 
   23440    1024.0634   -6319.2046   -6204.9688   -233.28202    18109.591    57.957554 
   23450    1023.3899   -6319.0941   -6204.9334   -1182.2901    18124.553    58.020928 
   23460    1061.8927   -6323.3015   -6204.8457   -2300.9351    18138.807    58.109222 
   23470    1064.3559   -6323.5028   -6204.7723   -1815.9844    18151.585    58.196118 
   23480    1012.3651    -6317.643   -6204.7122   -175.37763     18163.21    58.271035 
   23490    1023.7808   -6318.8155   -6204.6113    296.85474    18174.804    58.317748 
   23500    1057.0535   -6322.3581   -6204.4422   -132.50865     18186.79    58.338495 
   23510    1069.3421   -6323.5525   -6204.2658   -556.48813     18198.89    58.353293 
   23520    1061.6646   -6322.5512   -6204.1209   -634.98571    18210.803     58.38019 
   23530    1039.0207   -6319.8953    -6203.991   -556.41745    18222.446    58.420995 
   23540    1024.5048   -6318.1164   -6203.8313   -342.86861    18233.892    58.491682 
   23550    1041.8005   -6319.8309   -6203.6165   -327.08402    18245.274    58.597933 
   23560    1042.1171   -6319.6002   -6203.3504    95.359454    18256.676     58.72479 
   23570    1026.9822   -6317.6078   -6203.0463    342.51354    18268.384    58.851433 
   23580    1037.9382    -6318.448   -6202.6645   -462.51308    18280.562    58.948025 
   23590     1083.694   -6323.0998   -6202.2121   -2615.4569    18292.532    59.001524 
   23600    1053.9457   -6319.3219   -6201.7527   -3190.8254    18302.797    59.037939 
   23610    1014.8346   -6314.4946   -6201.2883   -2704.3816    18310.793    59.073508 
   23620    1018.3482    -6314.322   -6200.7237   -1938.6966    18316.819    59.112349 
   23630    1044.6038   -6316.5723   -6200.0452   -1382.9842    18321.391    59.157585 
   23640     1037.086   -6314.9719   -6199.2834   -870.41702    18324.962     59.19991 
   23650    1073.7732   -6318.2556   -6198.4746   -2028.1907    18327.785    59.234278 
   23660    1113.4073   -6321.8554   -6197.6531    -2944.141    18329.065    59.262301 
   23670     1109.964   -6320.7724   -6196.9542   -2722.3476    18328.071    59.282545 
   23680    1076.0237   -6316.4196   -6196.3876   -2162.3766    18324.874    59.279342 
   23690    1073.3576    -6315.637   -6195.9023   -2242.7585    18319.778    59.233918 
   23700    1092.7917   -6317.3771   -6195.4745   -2379.7573    18312.732    59.172483 
   23710    1087.5059    -6316.451   -6195.1381   -1737.0814    18303.627    59.145133 
   23720     1078.699   -6315.2254   -6194.8949   -486.07851    18292.906    59.152076 
   23730    1076.8211   -6314.8292   -6194.7082    709.17598    18281.489    59.160557 
   23740    1078.8308   -6314.9206   -6194.5754    1238.5344     18270.28    59.148855 
   23750    1057.8856   -6312.4969   -6194.4881     1399.693    18259.747    59.116495 
   23760    1046.8658   -6311.2179   -6194.4384    1485.7079    18250.039    59.074948 
   23770     1038.956    -6310.271   -6194.3739    1308.4145    18241.221    59.021979 
   23780    1070.6625   -6313.7388   -6194.3048    920.74336      18233.2    58.969683 
   23790    1097.9432   -6316.7473   -6194.2701    1077.7282    18225.725    58.942056 
   23800    1101.4264   -6317.1999   -6194.3341    1776.7234     18218.92    58.957166 
   23810    1093.8067   -6316.5576   -6194.5418    2267.4751    18213.311    59.027651 
   23820    1071.0754   -6314.3603   -6194.8803    2548.4433    18209.358    59.129009 
   23830    1091.0418   -6317.0912   -6195.3838     1926.199    18207.264    59.224213 
   23840    1076.6141   -6316.1883   -6196.0904    2572.4674     18206.77    59.304756 
   23850    1048.0303   -6313.8954    -6196.986     3859.172    18208.384    59.375995 
   23860     1045.875   -6314.7127   -6198.0437    3614.2578    18213.032    59.428746 
   23870    1043.7192   -6315.6551   -6199.2266    2655.4523    18220.728     59.48187 
   23880     1036.534   -6316.0873   -6200.4603    1143.7528    18230.804    59.561199 
   23890    1059.1542   -6319.8398   -6201.6895   -196.47127    18242.159    59.652208 
   23900    1038.9754   -6318.7495   -6202.8502   -205.15975    18253.852    59.739839 
   23910    1007.2641   -6316.2038    -6203.842    258.47007    18265.809    59.805875 
   23920    995.31462   -6315.6266   -6204.5978    341.59584    18278.367    59.853311 
   23930    1009.7579    -6317.782    -6205.142   -318.79448     18291.56    59.881263 
   23940     1011.382   -6318.3344   -6205.5132   -613.94964    18304.973    59.887154 
   23950    1018.8342   -6319.4062   -6205.7537   -1270.8502    18318.306     59.88383 
   23960    1007.8427   -6318.3195   -6205.8932   -1616.6561    18331.076    59.886206 
   23970    990.70371   -6316.4396   -6205.9251   -2080.2299    18342.955    59.892016 
   23980    1019.5407   -6319.5787   -6205.8474   -3621.8864    18353.428     59.91582 
   23990    1026.4457   -6320.1995   -6205.6979   -4173.1465    18361.334    59.962316 
   24000    1015.0607   -6318.7399   -6205.5083   -3669.2256    18366.141    60.006884 
   24010    1012.4466   -6318.2061   -6205.2662   -2796.9906     18368.12    60.017023 
   24020    1018.4537   -6318.5631   -6204.9531   -2163.9345     18367.85     60.00514 
   24030    1029.0883   -6319.3902   -6204.5939   -1485.2172    18365.813    60.007524 
   24040    1002.7015   -6316.0431   -6204.1902   -268.24629    18362.558    60.051682 
   24050     1018.322     -6317.32   -6203.7247   -553.84559    18358.869    60.146428 
   24060     1050.872   -6320.4189   -6203.1925   -1515.5016    18354.586    60.265508 
   24070    1071.9329   -6322.2469   -6202.6712   -2157.5794    18348.971    60.353843 
   24080    1064.9976   -6321.0097   -6202.2076   -2299.7137    18341.483    60.371832 
   24090    1070.3207   -6321.2009    -6201.805   -1796.5583    18331.984    60.316258 
   24100    1081.2102   -6322.0548   -6201.4442   -748.48845    18320.827    60.229362 
   24110    1075.6747   -6321.1273   -6201.1342    66.693978    18308.792    60.150604 
   24120    1073.7492   -6320.6667   -6200.8884    99.637175    18296.473    60.088417 
   24130    1051.6657   -6317.9986   -6200.6837    669.64047    18284.019    60.043298 
   24140    1049.0648   -6317.5246   -6200.4998    1482.6405    18271.873    60.010955 
   24150     1059.808   -6318.5467   -6200.3236    1593.2234    18260.627    60.015699 
   24160    1070.3012   -6319.5724   -6200.1787     1178.476    18250.413    60.068903 
   24170    1059.8457   -6318.2953   -6200.0679    1469.5365    18241.025     60.12023 
   24180     1054.827   -6317.6471   -6199.9795    2106.1165    18232.653    60.111774 
   24190    1058.5349   -6317.9806   -6199.8995    2285.8837     18225.78    60.052779 
   24200    1057.0902   -6317.7572   -6199.8372    1911.1139    18220.578    60.011336 
   24210    1063.8262   -6318.4677   -6199.7963    1092.1525    18216.782    60.036985 
   24220    1083.6354   -6320.6844   -6199.8032    723.17473    18213.821    60.138009 
   24230    1068.3278    -6319.037   -6199.8635    1486.8097    18211.499    60.269125 
   24240    1088.4684   -6321.4404   -6200.0201    1426.6219    18210.255    60.376063 
   24250    1061.0364   -6318.6264   -6200.2662    1983.3418    18210.202    60.462806 
   24260    1050.2448   -6317.7501   -6200.5937    1926.8589    18211.682    60.541756 
   24270    1077.0309    -6321.154   -6201.0096    855.93851    18214.666    60.619649 
   24280    1065.4193   -6320.4243   -6201.5751    406.39548    18218.447    60.701812 
   24290    1039.1533   -6318.1954   -6202.2763    536.20171    18222.689    60.770845 
   24300    1052.7101   -6320.5579   -6203.1265    271.47955    18227.397    60.799987 
   24310    1024.6433   -6318.3785    -6204.078    759.80947    18232.474    60.808809 
   24320    1026.7132   -6319.6251   -6205.0937      528.416    18238.176    60.828788 
   24330    1017.7082   -6319.6267   -6206.0999    445.17962    18244.407    60.872158 
   24340    1036.2467   -6322.6639    -6207.069   -66.851493    18251.051    60.913236 
   24350    1061.7666   -6326.4581   -6208.0165    -276.4889    18257.765    60.932721 
   24360    1036.8571   -6324.5901   -6208.9271    405.57452    18264.438    60.958417 
   24370     1012.226   -6322.6442   -6209.7288    279.96077    18271.476    61.014469 
   24380    997.01954   -6321.5828   -6210.3637   -442.04842    18278.799    61.098922 
   24390    1000.0502   -6322.3822   -6210.8251   -1342.8869    18285.871    61.212549 
   24400    1009.5099   -6323.7497   -6211.1374   -2325.3599    18291.972      61.3256 
   24410    1023.5571   -6325.5241   -6211.3447   -2904.5211    18296.317    61.405614 
   24420    1036.2577   -6327.0714   -6211.4753   -3430.1286    18298.404    61.472161 
   24430    1052.5085   -6328.9914   -6211.5825   -4775.8624    18297.686    61.559672 
   24440    1038.3583   -6327.5255    -6211.695   -5067.0091    18293.184    61.665934 
   24450    995.18909   -6322.7869    -6211.772   -3735.0897    18284.665    61.776033 
   24460    970.61887    -6320.014     -6211.74   -3035.6876    18272.963     61.87682 
   24470    979.26276   -6320.7896   -6211.5513   -3147.5027    18258.627    61.941989 
   24480    1019.5834   -6324.9756   -6211.2395    -3467.269    18241.566    61.956111 
   24490    1027.6324   -6325.4862   -6210.8522   -2336.1225    18221.646    61.933926 
   24500    1018.4759     -6324.02   -6210.4075   -674.67054    18199.675    61.900858 
   24510    995.25684    -6320.907   -6209.8846     1013.991    18176.941    61.887996 
   24520    975.65305   -6318.0911   -6209.2555    2232.9656    18154.767    61.884148 
   24530    1016.1234    -6321.861   -6208.5109    1427.5857     18133.98      61.8484 
   24540    1044.3015   -6324.2121   -6207.7187    821.33552    18114.151    61.774891 
   24550    1062.3792   -6325.4807   -6206.9707    222.30025    18094.774    61.678713 
   24560    1063.1478   -6324.9171   -6206.3214   -403.99096    18075.394    61.596109 
   24570    1074.0216   -6325.5943   -6205.7856   -814.86167    18055.549    61.583023 
   24580    1082.3442   -6326.1134   -6205.3763   -1002.7681    18034.892    61.665077 
   24590    1043.2884    -6321.452   -6205.0716    216.73393    18013.383    61.801197 
   24600     1013.133   -6317.8062   -6204.7897    1576.1227    17991.875    61.918465 
   24610    1038.3795   -6320.3047   -6204.4719     2017.074    17971.356    61.965339 
   24620    1080.0917   -6324.6539    -6204.168    1898.1607    17952.197    61.953976 
   24630    1069.4469   -6323.2375   -6203.9391    2558.9363    17934.418    61.919268 
   24640    1045.8294   -6320.4346   -6203.7708    4025.1222    17918.549    61.878943 
   24650    1059.4189   -6321.8059   -6203.6262     5177.562    17905.628    61.855297 
   24660    1073.3031   -6323.2356   -6203.5071    5974.2289    17896.571    61.870158 
   24670    1102.5842   -6326.4685   -6203.4736    5729.5705    17891.959    61.915123 
   24680    1093.4116   -6325.5248   -6203.5531    5902.5031    17891.768    61.966365 
   24690    1073.6642    -6323.506   -6203.7371     5881.625    17896.101    62.011271 
   24700     1071.298   -6323.4897   -6203.9848    5264.5237    17904.962    62.034178 
   24710    1064.0409   -6322.9677   -6204.2723    4327.8662     17917.94    62.023637 
   24720    1062.2918   -6323.0789   -6204.5787    2896.5668    17934.355    62.001095 
   24730     1077.502   -6325.0873   -6204.8903    1259.2625    17953.178     61.99708 
   24740     1082.007   -6325.9374   -6205.2379    194.25536    17973.199    62.029909 
   24750    1059.8733   -6323.8532   -6205.6227    367.30854    17993.671    62.103766 
   24760    1076.6197   -6326.1342   -6206.0357   -95.621898    18014.567    62.196699 
   24770     1090.314   -6328.1102    -6206.484   -899.30511    18035.569    62.267853 
   24780     1078.244   -6327.2756   -6206.9959    -1402.551    18056.085     62.29753 
   24790    1054.9865   -6325.2246   -6207.5393   -1369.3127     18075.72    62.295672 
   24800    1033.8511   -6323.3877     -6208.06   -887.52996    18094.467    62.294154 
   24810    1037.2499     -6324.23   -6208.5232   -1047.9113    18112.603    62.329113 
   24820    1031.5912   -6323.9953   -6208.9197   -1420.5651    18130.036    62.409366 
   24830    1006.3642   -6321.4914     -6209.23    -1405.634    18146.513    62.526293 
   24840    1002.6592   -6321.2877   -6209.4396   -1538.5288    18161.981    62.657419 
   24850    973.18647   -6318.0772   -6209.5168   -1333.3696    18176.367    62.753473 
   24860    1009.6313   -6322.0857   -6209.4598   -2250.3603    18189.689    62.777995 
   24870    1048.9518   -6326.3194   -6209.3072   -2980.0487     18201.32    62.742528 
   24880    1035.1911   -6324.6178   -6209.1406   -2337.2831     18210.76    62.693096 
   24890    1048.1551   -6325.9032     -6208.98   -2190.5887    18218.342    62.675347 
   24900    1046.7007   -6325.5804   -6208.8193   -2113.8579    18224.222    62.698244 
   24910    1044.1777   -6325.1462   -6208.6666   -1889.5416    18228.473    62.758193 
   24920    1056.0277   -6326.3149   -6208.5134   -1925.1532     18231.23    62.857009 
   24930     1053.359   -6325.8788    -6208.375   -1886.9836    18232.482    62.968924 
   24940    1028.9676   -6323.0281   -6208.2452   -1251.0018    18232.288    63.067857 
   24950    1021.3384   -6322.0218     -6208.09   -864.71786    18231.069    63.144878 
   24960    1049.5779   -6324.9858   -6207.9038    -1006.433    18229.128    63.179854 
   24970    1044.7722   -6324.2541   -6207.7082   -827.53812    18226.415    63.176895 
   24980    1038.5738   -6323.3646   -6207.5101   -871.96518    18223.023    63.166312 
   24990    1047.4321   -6324.1568   -6207.3141   -1380.3969    18218.899    63.188752 
   25000    1054.7004    -6324.785   -6207.1315   -1741.5956     18213.69    63.255325 
Loop time of 16602.5 on 16 procs for 20000 steps with 864 atoms

Performance: 0.104 ns/day, 230.590 hours/ns, 1.205 timesteps/s
94.7% CPU use with 16 MPI tasks x 1 OpenMP threads

MPI task timing breakdown:
Section |  min time  |  avg time  |  max time  |%varavg| %total
---------------------------------------------------------------
Pair    | 12563      | 14737      | 16307      | 783.7 | 88.76
Bond    | 0.0015233  | 0.006418   | 0.0169     |   4.7 |  0.00
Neigh   | 0.27048    | 0.30267    | 0.36486    |   5.0 |  0.00
Comm    | 285.88     | 1385.7     | 3077.1     |2078.0 |  8.35
Output  | 1.3106     | 1.3474     | 1.8856     |  12.0 |  0.01
Modify  | 7.3746     | 478.27     | 960.78     |1801.8 |  2.88
Other   |            | 0.1079     |            |       |  0.00

Nlocal:        54.0000 ave          69 max          49 min
Histogram: 4 5 3 1 0 1 0 0 1 1
Nghost:        535.500 ave         576 max         497 min
Histogram: 2 3 1 3 1 0 0 1 1 4
Neighs:         0.00000 ave           0 max           0 min
Histogram: 16 0 0 0 0 0 0 0 0 0
FullNghs:      2558.50 ave        3764 max        2069 min
Histogram: 4 4 2 3 1 0 0 1 0 1

Total # of neighbors = 40936
Ave neighs/atom = 47.379630
Ave special neighs/atom = 0.0000000
Neighbor list builds = 2000
Dangerous builds = 2000
Total wall time: 5:45:17
