LAMMPS (29 Sep 2021 - Update 3)
OMP_NUM_THREADS environment is not set. Defaulting to 1 thread. (src/comm.cpp:98)
  using 1 OpenMP thread(s) per MPI task
Reading data file ...
  orthogonal box = (0.0000000 0.0000000 0.0000000) to (16.534670 17.767358 74.594796)
  1 by 2 by 8 MPI processor grid
  reading atoms ...
  864 atoms
Finding 1-2 1-3 1-4 neighbors ...
  special bond factors lj:    0        0        0       
  special bond factors coul:  0        0        0       
     0 = max # of 1-2 neighbors
     0 = max # of 1-3 neighbors
     0 = max # of 1-4 neighbors
     1 = max # of special neighbors
  special bonds CPU = 0.009 seconds
  read_data CPU = 0.030 seconds
Neighbor list info ...
  update every 1 steps, delay 10 steps, check yes
  max neighbors/atom: 2000, page size: 100000
  master list distance cutoff = 6.22
  ghost atom cutoff = 6.22
  binsize = 3.11, bins = 6 6 24
  1 neighbor lists, perpetual/occasional/extra = 1 0 0
  (1) pair quip, perpetual
      attributes: full, newton on
      pair build: full/bin
      stencil: full/bin/3d
      bin: standard
Setting up Verlet run ...
  Unit style    : metal
  Current step  : 0
  Time step     : 0.001
Per MPI rank memory allocation (min/avg/max) = 8.894 | 8.906 | 8.915 Mbytes
Step Temp PotEng TotEng Press Volume c_msd[4] 
       0            0   -8413.4292   -8413.4292   -12531.916    21914.265            0 
      10    63.367096   -8420.5059   -8413.4372   -13062.757    21914.265 0.00028900792 
      20    162.23389   -8431.5423   -8413.4448   -13580.932    21914.265 0.0035442006 
      30    203.76318   -8436.1707   -8413.4406   -13263.999    21914.265  0.011998633 
      40     225.5427      -8438.6   -8413.4404   -13091.981    21914.265  0.023619499 
      50    238.39464   -8440.0352   -8413.4419   -13192.953    21914.265  0.036411648 
      60    237.91747   -8439.9798   -8413.4397    -13151.82    21914.265  0.049420327 
      70    242.25882   -8440.4649   -8413.4405   -12986.142    21914.265  0.062561747 
      80    243.33226   -8440.5825   -8413.4384   -12841.846    21914.265  0.075987004 
      90     256.1439    -8442.014   -8413.4408   -12985.089    21914.265  0.088683986 
     100    260.92723   -8442.5467   -8413.4399   -13129.532    21914.265   0.10092572 
     110    263.36735   -8442.8185   -8413.4395   -13314.209    21914.265   0.11296329 
     120    267.45703   -8443.2754   -8413.4402   -13403.997    21914.265   0.12509928 
     130    267.20277   -8443.2463   -8413.4395   -13198.457    21914.265   0.13819283 
     140    269.21359   -8443.4705   -8413.4393   -12839.711    21914.265   0.15259322 
     150     276.3754   -8444.2699   -8413.4398   -12564.061    21914.265   0.16775295 
     160    282.09052   -8444.9077   -8413.4401   -12400.914    21914.265   0.18315323 
     170    283.74907   -8445.0928   -8413.4402     -12430.3    21914.265    0.1989762 
     180    279.57367   -8444.6271   -8413.4402   -12727.353    21914.265   0.21536827 
     190    272.01519   -8443.7829   -8413.4391   -12943.608    21914.265   0.23180139 
     200    272.98877   -8443.8921   -8413.4397   -13066.814    21914.265    0.2476891 
     210    278.28656   -8444.4833     -8413.44   -13119.162    21914.265   0.26290373 
     220    281.61115   -8444.8543   -8413.4402    -13052.65    21914.265   0.27743582 
     230    283.45537   -8445.0589    -8413.439   -12948.839    21914.265   0.29133107 
     240    292.81696   -8446.1046   -8413.4404   -13016.029    21914.265    0.3048675 
     250    295.20203   -8446.3705   -8413.4402   -13077.887    21914.265   0.31931215 
     260    290.46684   -8445.8415   -8413.4394   -13040.528    21914.265   0.33532684 
     270    290.61991    -8445.858   -8413.4389   -13235.455    21914.265   0.35239777 
     280    301.25443   -8447.0456   -8413.4402   -13515.282    21914.265   0.36952956 
     290    308.28623   -8447.8304   -8413.4406   -13611.572    21914.265   0.38667041 
     300    309.20907   -8447.9319   -8413.4392   -13455.868    21914.265    0.4041006 
     310     314.5316   -8448.5273   -8413.4408   -13198.597    21914.265   0.42152557 
     320    312.09261   -8448.2546   -8413.4402   -12968.083    21914.265   0.43866959 
     330    305.84421   -8447.5573   -8413.4399   -12657.381    21914.265   0.45536472 
     340    303.20988   -8447.2632   -8413.4397   -12498.026    21914.265   0.47172581 
     350    307.13857   -8447.7018     -8413.44   -12492.368    21914.265   0.48754232 
     360    312.15901   -8448.2619   -8413.4401   -12369.505    21914.265   0.50223919 
     370     318.6847   -8448.9898     -8413.44   -12195.898    21914.265   0.51545083 
     380    326.66636   -8449.8808   -8413.4407   -12030.164    21914.265   0.52751087 
     390    328.67292   -8450.1043   -8413.4403   -11786.931    21914.265   0.53983918 
     400    329.42172   -8450.1875     -8413.44   -11529.418    21914.265   0.55338123 
     410    329.12824   -8450.1558   -8413.4411   -11363.621    21914.265   0.56856317 
     420    321.17839   -8449.2675   -8413.4396   -11329.503    21914.265   0.58578319 
     430    319.73313   -8449.1067     -8413.44   -11645.546    21914.265   0.60460993 
     440    321.87014   -8449.3455   -8413.4404   -12168.872    21914.265   0.62482739 
     450    321.69175   -8449.3257   -8413.4405   -12517.526    21914.265   0.64605131 
     460    321.58625   -8449.3131   -8413.4397   -12738.117    21914.265   0.66602281 
     470    327.73765   -8450.0009   -8413.4413    -13118.13    21914.265   0.68222539 
     480    325.78012   -8449.7811   -8413.4399   -13518.975    21914.265   0.69547134 
     490    325.26696   -8449.7242   -8413.4402   -13912.333    21914.265   0.70709849 
     500    326.02809   -8449.8096   -8413.4407    -14245.82    21914.265    0.7181905 
     510     321.8067   -8449.3384   -8413.4404   -14358.421    21914.265   0.73031831 
     520    314.82643   -8448.5595   -8413.4401   -14393.561    21914.265   0.74493886 
     530    311.55922   -8448.1945   -8413.4396    -14504.26    21914.265   0.76206346 
     540    316.52181   -8448.7487   -8413.4402   -14692.451    21914.265   0.78048733 
     550    323.45997   -8449.5224     -8413.44   -14675.954    21914.265   0.79880458 
     560    332.20295   -8450.4987   -8413.4409    -14432.97    21914.265   0.81596428 
     570    332.37528   -8450.5179   -8413.4409   -14008.452    21914.265   0.83234674 
     580    324.44532    -8449.632   -8413.4397   -13682.622    21914.265   0.84880328 
     590    322.54654   -8449.4211   -8413.4405   -13611.186    21914.265   0.86493346 
     600    320.03229     -8449.14   -8413.4399   -13618.158    21914.265   0.88136827 
     610     322.0694   -8449.3667   -8413.4393   -13770.866    21914.265   0.89972436 
     620    332.97088   -8450.5844    -8413.441   -14040.679    21914.265   0.91979176 
     630    336.52886   -8450.9806   -8413.4403   -14106.634    21914.265    0.9400978 
     640    340.63169   -8451.4378   -8413.4399   -14084.373    21914.265   0.95883362 
     650     349.6267   -8452.4431   -8413.4417   -14126.089    21914.265   0.97518253 
     660     345.3101   -8451.9607   -8413.4408    -13925.09    21914.265   0.98949595 
     670    335.30236   -8450.8431   -8413.4396   -13541.064    21914.265    1.0025057 
     680    335.35657   -8450.8495     -8413.44   -13120.509    21914.265    1.0157598 
     690    342.86707   -8451.6878   -8413.4405   -12807.122    21914.265    1.0306556 
     700    350.61517   -8452.5527    -8413.441   -12613.893    21914.265    1.0481195 
     710    351.61871   -8452.6647   -8413.4411    -12558.63    21914.265     1.067876 
     720    346.37378   -8452.0785     -8413.44   -12478.274    21914.265    1.0873947 
     730    347.79156   -8452.2373   -8413.4406   -12593.955    21914.265    1.1041491 
     740    351.02442    -8452.599   -8413.4417   -12781.856    21914.265    1.1188548 
     750    344.89782   -8451.9145   -8413.4406   -12888.282    21914.265     1.133643 
     760      340.342   -8451.4064   -8413.4407   -13050.736    21914.265    1.1491825 
     770    340.04955   -8451.3737   -8413.4407   -13326.749    21914.265    1.1643304 
     780      345.357   -8451.9656   -8413.4405   -13558.373    21914.265    1.1777023 
     790    357.12317   -8453.2788   -8413.4411   -13831.043    21914.265    1.1886997 
     800    366.64045   -8454.3407   -8413.4414   -14129.874    21914.265    1.1976392 
     810    368.68447   -8454.5688   -8413.4415   -14063.484    21914.265    1.2056605 
     820    366.60174   -8454.3361   -8413.4411   -13908.726    21914.265    1.2141717 
     830    365.85586   -8454.2531   -8413.4413   -13853.131    21914.265    1.2243585 
     840     368.4524   -8454.5423   -8413.4409   -13972.673    21914.265    1.2365636 
     850    371.87492   -8454.9262    -8413.443    -14131.16    21914.265    1.2503596 
     860     358.1746   -8453.3954   -8413.4405     -13818.7    21914.265    1.2649975 
     870    354.45705   -8452.9806   -8413.4404   -13465.958    21914.265     1.278191 
     880    366.65296   -8454.3425   -8413.4418   -13399.092    21914.265    1.2880847 
     890    376.93995   -8455.4909   -8413.4426    -13274.53    21914.265    1.2959326 
     900    375.96913   -8455.3817   -8413.4418   -13062.805    21914.265    1.3041818 
     910    374.01489   -8455.1632   -8413.4413   -12824.206    21914.265    1.3130528 
     920    378.94842   -8455.7136   -8413.4414   -12747.174    21914.265    1.3222121 
     930    388.54983   -8456.7859   -8413.4426   -12880.601    21914.265    1.3329508 
     940    389.80019   -8456.9258    -8413.443   -12981.003    21914.265    1.3457299 
     950    382.52604   -8456.1127   -8413.4413   -12918.004    21914.265    1.3587946 
     960    381.75271   -8456.0275   -8413.4424   -13120.356    21914.265    1.3710856 
     970    380.20365    -8455.854   -8413.4417   -13297.868    21914.265    1.3835601 
     980    384.06597   -8456.2848   -8413.4416    -13360.21    21914.265    1.3967998 
     990    391.39252    -8457.104   -8413.4436    -13319.56    21914.265    1.4114384 
    1000    385.55287   -8456.4508   -8413.4418   -13032.957    21914.265    1.4285977 
    1010    381.98963   -8456.0536   -8413.4421   -12900.345    21914.265    1.4480597 
    1020    382.08452   -8456.0644   -8413.4423   -12891.786    21914.265    1.4678099 
    1030    380.66666   -8455.9065   -8413.4425   -12820.478    21914.265    1.4859085 
    1040    378.02017   -8455.6107    -8413.442   -12814.774    21914.265    1.5012686 
    1050    381.70997   -8456.0224   -8413.4421   -12925.622    21914.265    1.5119118 
    1060    391.42566   -8457.1073   -8413.4432    -13146.33    21914.265    1.5173209 
    1070    396.24192   -8457.6441   -8413.4428   -13102.084    21914.265    1.5196151 
    1080    397.63032   -8457.7993    -8413.443   -12889.784    21914.265    1.5211703 
    1090    396.12759   -8457.6308   -8413.4422   -12537.537    21914.265    1.5231683 
    1100    400.33119   -8458.1002   -8413.4426   -12299.668    21914.265    1.5256834 
    1110    407.17314   -8458.8635   -8413.4428   -12099.612    21914.265    1.5296348 
    1120    413.19804   -8459.5369    -8413.444   -11926.861    21914.265    1.5369315 
    1130    409.94165   -8459.1721   -8413.4425   -11927.354    21914.265    1.5487344 
    1140    411.69689   -8459.3679   -8413.4425   -12274.932    21914.265    1.5644715 
    1150    417.92932   -8460.0654   -8413.4448   -12599.199    21914.265    1.5822789 
    1160    409.45399   -8459.1175   -8413.4423   -12608.558    21914.265    1.6004412 
    1170    405.75202   -8458.7057   -8413.4435   -12496.116    21914.265    1.6169469 
    1180    399.97271   -8458.0606    -8413.443   -12466.412    21914.265    1.6317671 
    1190    393.04741   -8457.2883   -8413.4433   -12618.331    21914.265    1.6460138 
    1200    381.93867   -8456.0489   -8413.4431   -12576.103    21914.265    1.6602667 
    1210    376.72969   -8455.4667   -8413.4419   -12745.258    21914.265    1.6726433 
    1220     387.4652   -8456.6661   -8413.4437   -13270.317    21914.265    1.6819979 
    1230    392.11995   -8457.1848   -8413.4433   -13698.725    21914.265    1.6894908 
    1240    392.35374   -8457.2109   -8413.4432   -14054.078    21914.265    1.6958816 
    1250    387.63167   -8456.6848   -8413.4439   -14383.659    21914.265    1.7022745 
    1260    377.01437   -8455.4984   -8413.4419   -14780.957    21914.265    1.7098627 
    1270    380.16106   -8455.8505   -8413.4429    -15291.91    21914.265    1.7186286 
    1280    386.65141    -8456.575   -8413.4435   -15684.863    21914.265    1.7280931 
    1290    386.45138   -8456.5524   -8413.4431   -15669.118    21914.265    1.7377267 
    1300    384.49318   -8456.3333   -8413.4425   -15192.167    21914.265    1.7465203 
    1310    389.16883   -8456.8559   -8413.4435   -14748.802    21914.265    1.7543822 
    1320    395.91985   -8457.6092   -8413.4437   -14540.669    21914.265    1.7626209 
    1330    402.24128   -8458.3144   -8413.4438   -14482.176    21914.265    1.7719127 
    1340    406.72312   -8458.8138   -8413.4433   -14593.779    21914.265    1.7822942 
    1350    413.88937   -8459.6138   -8413.4438   -14633.206    21914.265    1.7929881 
    1360    418.26368   -8460.1021   -8413.4441   -14272.723    21914.265    1.8043383 
    1370    412.53709   -8459.4628   -8413.4437   -13640.472    21914.265    1.8173742 
    1380    404.03017    -8458.513   -8413.4428   -13053.663    21914.265    1.8314414 
    1390    402.11865   -8458.3013   -8413.4444   -12796.252    21914.265    1.8446224 
    1400    396.75786   -8457.7017   -8413.4428   -12890.081    21914.265    1.8555613 
    1410     401.1626   -8458.1945   -8413.4442   -13251.623    21914.265    1.8625402 
    1420    405.53922    -8458.683   -8413.4445   -13540.901    21914.265    1.8651673 
    1430    404.12534   -8458.5245   -8413.4437   -13662.885    21914.265    1.8648977 
    1440    405.72045   -8458.7027    -8413.444   -13771.634    21914.265    1.8643414 
    1450    406.67484   -8458.8092    -8413.444   -13873.149    21914.265    1.8661066 
    1460    406.94702   -8458.8395   -8413.4439   -13898.845    21914.265    1.8707341 
    1470    405.99802   -8458.7335   -8413.4438    -13583.81    21914.265    1.8783175 
    1480    405.25435   -8458.6503   -8413.4436   -13097.342    21914.265    1.8881067 
    1490    408.19865    -8458.979   -8413.4439   -12662.726    21914.265    1.8977467 
    1500    414.56579   -8459.6887   -8413.4433   -12296.863    21914.265    1.9065246 
    1510    429.03716   -8461.3044   -8413.4447   -11735.577    21914.265    1.9156573 
    1520    435.43303   -8462.0188   -8413.4456   -11140.275    21914.265    1.9269758 
    1530    420.46896   -8460.3486   -8413.4446     -10759.3    21914.265    1.9420002 
    1540    404.55727   -8458.5707   -8413.4417   -10562.297    21914.265    1.9594173 
    1550     414.5371   -8459.6878   -8413.4456   -10873.945    21914.265    1.9756145 
    1560    415.64167   -8459.8093   -8413.4438    -11180.84    21914.265    1.9896674 
    1570    417.51903   -8460.0192   -8413.4444   -11574.862    21914.265      2.00287 
    1580    420.71133   -8460.3754   -8413.4444   -12084.028    21914.265    2.0173903 
    1590    422.23753   -8460.5459   -8413.4446   -12650.323    21914.265    2.0354221 
    1600    420.26548   -8460.3254   -8413.4441   -13157.964    21914.265    2.0567995 
    1610    418.97614   -8460.1816   -8413.4442   -13379.664    21914.265    2.0784503 
    1620    422.99101    -8460.629   -8413.4437   -13476.483    21914.265    2.0978277 
    1630    431.41255   -8461.5707    -8413.446   -13473.665    21914.265     2.115193 
    1640    426.28653   -8460.9963   -8413.4434   -13430.412    21914.265    2.1338075 
    1650    431.13487   -8461.5387    -8413.445   -13658.596    21914.265       2.1559 
    1660    436.17822   -8462.1019   -8413.4456   -13638.641    21914.265    2.1797337 
    1670    428.12023   -8461.2022   -8413.4447   -13252.346    21914.265    2.2035441 
    1680    422.66155   -8460.5919   -8413.4434   -13022.696    21914.265    2.2262152 
    1690    430.34848   -8461.4521    -8413.446   -12966.155    21914.265    2.2464937 
    1700    426.21611   -8460.9896   -8413.4446   -12849.343    21914.265    2.2649593 
    1710    421.63281   -8460.4781   -8413.4443    -12902.06    21914.265    2.2822078 
    1720    425.52952   -8460.9136   -8413.4451   -13254.993    21914.265    2.2992296 
    1730    433.21398   -8461.7705   -8413.4448   -13760.925    21914.265    2.3170264 
    1740    441.86781   -8462.7372   -8413.4461   -14050.542    21914.265    2.3352522 
    1750    438.27813    -8462.336   -8413.4454   -13921.401    21914.265    2.3528289 
    1760    429.17186   -8461.3192   -8413.4444   -13408.002    21914.265    2.3694072 
    1770    428.81898   -8461.2807   -8413.4453    -12917.73    21914.265    2.3858611 
    1780    433.34916   -8461.7857    -8413.445   -12638.931    21914.265    2.4026666 
    1790     441.0669   -8462.6474   -8413.4457   -12705.172    21914.265     2.419074 
    1800    447.24535   -8463.3359    -8413.445   -12842.309    21914.265    2.4345236 
    1810    451.04914   -8463.7611   -8413.4459   -13058.485    21914.265    2.4502124 
    1820    445.08252   -8463.0941   -8413.4445   -13035.825    21914.265    2.4671851 
    1830    441.70858   -8462.7187   -8413.4454   -12922.342    21914.265    2.4853863 
    1840    432.65555   -8461.7082   -8413.4449   -13058.866    21914.265    2.5046773 
    1850    428.24526   -8461.2146   -8413.4432   -13494.155    21914.265    2.5239509 
    1860    442.70809   -8462.8312   -8413.4464     -14052.9    21914.265    2.5417036 
    1870    445.34398   -8463.1238   -8413.4451   -14177.248    21914.265    2.5577578 
    1880    449.56383   -8463.5931   -8413.4436   -14088.107    21914.265    2.5732932 
    1890    469.70151   -8465.8424   -8413.4465   -13965.821    21914.265    2.5900107 
    1900    475.61979   -8466.5029   -8413.4468   -13338.709    21914.265    2.6092547 
    1910    460.77113   -8464.8444   -8413.4447   -12266.897    21914.265    2.6300063 
    1920    453.29076   -8464.0097   -8413.4444   -11600.031    21914.265    2.6488623 
    1930    455.01355   -8464.2038   -8413.4464   -11532.276    21914.265     2.664581 
    1940    446.57627   -8463.2611   -8413.4448   -11610.068    21914.265    2.6787843 
    1950    442.24787   -8462.7779   -8413.4445    -12067.88    21914.265     2.691974 
    1960    445.34565   -8463.1243   -8413.4453   -12574.104    21914.265    2.7033659 
    1970     445.3849   -8463.1293   -8413.4459   -12683.518    21914.265    2.7130116 
    1980    438.45896   -8462.3558    -8413.445   -12521.804    21914.265    2.7223802 
    1990    435.82997    -8462.062   -8413.4445   -12590.151    21914.265    2.7312795 
    2000    445.20858   -8463.1089   -8413.4452   -13039.215    21914.265    2.7384799 
Loop time of 1292.85 on 16 procs for 2000 steps with 864 atoms

Performance: 0.134 ns/day, 179.562 hours/ns, 1.547 timesteps/s
97.0% CPU use with 16 MPI tasks x 1 OpenMP threads

MPI task timing breakdown:
Section |  min time  |  avg time  |  max time  |%varavg| %total
---------------------------------------------------------------
Pair    | 438.28     | 701.67     | 1249.4     | 908.7 | 54.27
Bond    | 0.00017595 | 0.00043033 | 0.00090671 |   0.0 |  0.00
Neigh   | 0.017744   | 0.029208   | 0.053216   |   6.3 |  0.00
Comm    | 43.262     | 527.79     | 755.05     | 974.3 | 40.82
Output  | 0.14248    | 40.973     | 97.961     | 549.3 |  3.17
Modify  | 0.0087538  | 0.010735   | 0.012764   |   1.0 |  0.00
Other   |            | 22.38      |            |       |  1.73

Nlocal:        54.0000 ave          84 max          36 min
Histogram: 3 3 4 0 0 2 1 0 1 2
Nghost:        477.750 ave         592 max         348 min
Histogram: 2 0 2 1 3 3 1 0 0 4
Neighs:         0.00000 ave           0 max           0 min
Histogram: 16 0 0 0 0 0 0 0 0 0
FullNghs:      2234.12 ave        4892 max        1038 min
Histogram: 5 5 0 0 2 0 2 0 0 2

Total # of neighbors = 35746
Ave neighs/atom = 41.372685
Ave special neighs/atom = 0.0000000
Neighbor list builds = 199
Dangerous builds = 198
Setting up Verlet run ...
  Unit style    : metal
  Current step  : 2000
  Time step     : 0.001
Per MPI rank memory allocation (min/avg/max) = 8.894 | 8.907 | 8.916 Mbytes
Step Temp PotEng TotEng Press Volume c_msd[4] 
    2000          675   -8463.1089   -8387.8117   -11789.815    21914.265    2.7384799 
    2010    629.67241   -8458.1748   -8387.9339   -11240.668    21903.752    2.7383751 
    2020    571.12719   -8451.9064   -8388.1963   -10020.686    21873.299    2.7372136 
    2030    571.22086   -8452.1698   -8388.4492   -9287.6058    21825.031    2.7327181 
    2040    572.38335   -8452.4396   -8388.5894   -8023.4843    21760.749    2.7256769 
    2050    576.13971   -8452.8358   -8388.5666   -6561.8131    21683.146     2.718462 
    2060     589.9081   -8454.1715   -8388.3664   -5012.7212    21595.547    2.7138342 
    2070    581.37539   -8452.8568   -8388.0035   -2982.6139    21501.733    2.7126631 
    2080    588.83038   -8453.2141   -8387.5292   -1194.6592    21406.206    2.7129485 
    2090    604.83655   -8454.4609   -8386.9905   -117.23124    21312.984    2.7137048 
    2100    613.08006   -8454.8535   -8386.4635    174.73285    21224.631    2.7142852 
    2110    628.26355   -8456.0726   -8385.9888   -63.596565    21142.129    2.7135579 
    2120    632.13145   -8456.0698   -8385.5546   -192.45654     21065.46    2.7131939 
    2130    638.49786   -8456.3783   -8385.1529   -589.86011    20994.415    2.7168544 
    2140    643.51558   -8456.5471    -8384.762   -1386.9974    20928.255    2.7270235 
    2150    644.30957   -8456.2438   -8384.3701   -1704.0579    20865.735    2.7421606 
    2160    651.95738   -8456.6733   -8383.9465   -1417.4073    20806.229     2.757962 
    2170    661.51166   -8457.2668   -8383.4741   -677.13262    20749.976    2.7721963 
    2180     665.5837   -8457.2065   -8382.9596    191.09222    20697.781    2.7852978 
    2190    683.10788   -8458.6385   -8382.4368    518.84328    20650.469    2.7968725 
    2200    693.15898   -8459.2692   -8381.9463    851.24524    20608.082    2.8088444 
    2210    683.02927   -8457.7145   -8381.5216    1489.4095     20570.58    2.8242283 
    2220    685.07991   -8457.5848   -8381.1631    1578.7047     20538.23    2.8432906 
    2230    693.33413   -8458.2011   -8380.8586    1144.2003    20510.632    2.8640785 
    2240    693.86347   -8457.9981   -8380.5966    787.09764    20486.735    2.8826048 
    2250    695.34335   -8457.9235   -8380.3569    963.49718    20465.712    2.8960771 
    2260    695.51813   -8457.7197   -8380.1336    1518.7661    20447.526    2.9060487 
    2270    697.97121   -8457.7996   -8379.9399    1927.5951    20432.698    2.9177341 
    2280     713.4663   -8459.4009   -8379.8126     1639.737    20421.518    2.9338974 
    2290    706.77174   -8458.6259   -8379.7844    1265.3321    20413.372    2.9533722 
    2300    689.16626   -8456.7173   -8379.8398    1613.4817    20407.649    2.9745496 
    2310    688.09617   -8456.6938   -8379.9356    1949.8333    20404.648     2.999276 
    2320    705.05531   -8458.7113   -8380.0613    2062.9031    20404.704    3.0291007 
    2330    713.18844   -8459.8072   -8380.2499     2383.591    20407.925    3.0637385 
    2340    713.64317   -8460.1421   -8380.5341    2320.0981    20414.605    3.0980389 
    2350    729.72956   -8462.3488   -8380.9463    1445.1618    20424.453    3.1286744 
    2360     716.2897    -8461.394   -8381.4908    922.39075    20436.199     3.158104 
    2370    691.62292   -8459.2652   -8382.1136    708.78745     20448.99    3.1883743 
    2380    706.64875   -8461.5976   -8382.7699     113.0043     20462.38     3.222202 
    2390    730.38874   -8464.9617   -8383.4858   -554.56119    20475.488    3.2628778 
    2400    728.59465   -8465.5627   -8384.2869   -337.92418    20487.458    3.3104341 
    2410    707.24823   -8464.0249   -8385.1303    346.70291    20498.605    3.3612977 
    2420     701.2966   -8464.1812   -8385.9505     686.7543    20509.892    3.4124092 
    2430    713.78301   -8466.3696    -8386.746    559.28004    20521.811     3.465289 
    2440    715.77541   -8467.3735   -8387.5277    269.02724    20534.188    3.5206021 
    2450     715.4105   -8468.0977   -8388.2926    95.309965    20546.596    3.5771528 
    2460    713.52302   -8468.6296    -8389.035     139.2863     20558.79    3.6339832 
    2470    711.22097   -8469.0962   -8389.7585   -137.84174    20570.743    3.6892475 
    2480     702.5232   -8468.8313   -8390.4637   -510.93811    20582.073    3.7426815 
    2490    711.60315    -8470.538   -8391.1576   -930.01834    20592.216    3.7954411 
    2500    736.49315   -8474.0566   -8391.8996   -955.88909     20600.59    3.8494308 
    2510    712.53228   -8472.1835   -8392.6994   -200.61603    20607.283    3.9055012 
    2520    683.21989   -8469.6916   -8393.4774    500.51461    20613.419    3.9626647 
    2530    698.09944   -8472.0832   -8394.2092    741.33085    20620.038    4.0198405 
    2540    701.01771    -8473.119   -8394.9194    885.25614    20627.542    4.0770445 
    2550    689.66477   -8472.5286   -8395.5955    856.22122    20636.101    4.1350324 
    2560    684.75242   -8472.5969   -8396.2118    536.00119    20645.594    4.1957198 
    2570    673.84859    -8471.921   -8396.7522    183.77569    20655.524    4.2601574 
    2580    688.14814   -8474.0225   -8397.2586   -292.36383    20665.291    4.3251155 
    2590    693.55181   -8475.1372   -8397.7705    -397.1274    20674.205    4.3885117 
    2600    675.75474   -8473.6606   -8398.2792   -3.5471387     20682.17    4.4522353 
    2610    668.46225     -8473.32   -8398.7521   -76.690864    20689.698    4.5165556 
    2620    662.68408   -8473.0734     -8399.15   -613.12707    20696.696    4.5805759 
    2630    668.24046   -8474.0254   -8399.4821   -1493.6347    20702.359    4.6424565 
    2640    671.50904   -8474.6929    -8399.785   -2102.3006    20705.472    4.6986047 
    2650    666.68346   -8474.4511   -8400.0816   -1618.2744    20705.333    4.7481125 
    2660    670.05974   -8475.1209   -8400.3747   -891.52052    20702.759    4.7942578 
    2670     679.9711   -8476.5168    -8400.665   -1327.0107    20698.756    4.8387194 
    2680    688.60526   -8477.7879   -8400.9729   -2053.8644    20692.823    4.8782272 
    2690    668.40939   -8475.8549   -8401.2929   -1837.1896    20684.105     4.912579 
    2700    654.82471   -8474.6227    -8401.576   -1180.2984    20673.002    4.9440956 
    2710    686.08056   -8478.3656   -8401.8323   -778.12757    20660.527    4.9717294 
    2720    696.98238   -8479.8644    -8402.115     390.9557    20647.506    4.9940333 
    2730    686.97525   -8479.0796   -8402.4464    1682.7778    20635.678    5.0141217 
    2740    685.98638   -8479.3477   -8402.8249    2089.9581     20626.85    5.0368468 
    2750    679.88708   -8479.0876   -8403.2452    2214.5941    20621.585    5.0626649 
    2760    669.03823   -8478.3044   -8403.6722    2509.2454    20620.011    5.0888108 
    2770    684.52742   -8480.4594   -8404.0993    2175.2913    20622.297    5.1144692 
    2780    684.15982   -8480.8553   -8404.5362    1600.0661    20627.858    5.1441258 
    2790    678.20655   -8480.6384   -8404.9834    902.85511    20635.689    5.1824497 
    2800     679.1466   -8481.1813   -8405.4214   -117.85376    20644.554    5.2320947 
    2810    658.82568   -8479.3078   -8405.8149   -512.05992    20652.979     5.291092 
    2820    648.92874   -8478.5194   -8406.1305   -772.54929    20660.282    5.3530099 
    2830    666.51561   -8480.7235   -8406.3727   -1031.5732    20666.106    5.4126844 
    2840    682.97386   -8482.7804   -8406.5936    -1403.047    20670.087    5.4662355 
    2850    680.38822   -8482.7334   -8406.8351   -1951.1899     20671.71    5.5128167 
    2860    664.27696    -8481.191     -8407.09   -1807.5553    20670.356    5.5530182 
    2870    661.74766   -8481.1462   -8407.3272   -1664.4793     20666.23    5.5856581 
    2880    681.23532   -8483.5375   -8407.5447   -2180.9773    20659.598    5.6100396 
    2890    708.83076    -8486.871   -8407.7999   -2563.1004    20649.874     5.628016 
    2900    696.74184   -8485.8501   -8408.1275   -1880.2259    20636.695    5.6429931 
    2910    675.06139   -8483.7891    -8408.485   -821.03765    20621.158    5.6576546 
    2920    683.98596   -8485.1486   -8408.8489   -462.63457    20604.831    5.6739223 
    2930    681.07365   -8485.1943   -8409.2195    128.10084    20588.447    5.6928845 
    2940    679.50448   -8485.3932   -8409.5934    892.44335    20572.919    5.7152269 
    2950     679.0071   -8485.7129   -8409.9686    1392.9998    20559.321    5.7411293 
    2960    678.11096   -8485.9872   -8410.3429    1766.4181    20548.361    5.7682108 
    2970    693.69933    -8488.111   -8410.7278    1684.7205    20540.464    5.7917885 
    2980    701.05798   -8489.3546   -8411.1505    1517.0394    20535.429    5.8095887 
    2990    677.80018   -8487.2021   -8411.5925    1804.3844    20533.005    5.8225235 
    3000    673.42095   -8487.1378   -8412.0167    1552.9583    20533.371    5.8355799 
    3010    686.47568        -8489   -8412.4226     572.1978    20535.992    5.8541325 
    3020    685.28978   -8489.2666   -8412.8215   -162.53368    20539.459    5.8794483 
    3030    679.58686   -8489.0068   -8413.1979   -496.33618    20542.617    5.9094439 
    3040    683.18393   -8489.7601   -8413.5499   -418.63508    20544.972      5.93991 
    3050    685.15389   -8490.3161   -8413.8861     205.6272    20546.709    5.9671489 
    3060    684.23181   -8490.5425   -8414.2154    767.61116    20548.713    5.9905974 
    3070    685.58153   -8491.0014   -8414.5238    747.33935    20551.792    6.0110416 
    3080    703.86714   -8493.3485   -8414.8311    157.52632    20555.863     6.029251 
    3090     693.5171   -8492.5091   -8415.1462   -460.63043    20560.055    6.0458363 
    3100    676.38574   -8490.9016   -8415.4498   -877.58092    20563.437    6.0596236 
    3110    680.35962   -8491.6149   -8415.7197    -1195.878     20565.37    6.0708699 
    3120    683.63532   -8492.2217   -8415.9612   -1289.3548     20565.43    6.0797802 
    3130    677.71986   -8491.7883   -8416.1876   -898.11068    20563.558    6.0881406 
    3140    676.57435   -8491.8676   -8416.3947   -470.34952     20560.36    6.0982822 
    3150    690.38833   -8493.6136   -8416.5997   -402.42857     20556.47    6.1139408 
    3160    680.04457   -8492.6654   -8416.8054   -267.61965    20552.079    6.1372778 
    3170    690.05126   -8493.9875   -8417.0113   -310.51959    20547.382     6.162571 
    3180    717.87776    -8497.333   -8417.2527   -524.52431    20542.308    6.1840203 
    3190    702.44773    -8495.912   -8417.5529    91.095863      20536.7    6.2035195 
    3200    692.74689   -8495.1661   -8417.8891    519.26652    20531.354    6.2232136 
    3210    700.09305   -8496.3492   -8418.2528    220.98464    20526.857    6.2447558 
    3220    687.95092   -8495.3718   -8418.6298    48.657892    20522.843    6.2719263 
    3230    688.22631   -8495.7769   -8419.0042   -14.665159    20519.016    6.3051657 
    3240    698.58037   -8497.3085   -8419.3808   -359.23908    20515.234    6.3406609 
    3250    701.45826    -8498.029   -8419.7803   -694.42168    20510.995    6.3724817 
    3260    698.76431   -8498.1433   -8420.1951   -577.43226    20505.855    6.3971579 
    3270    716.67106   -8500.5749   -8420.6292   -775.94377    20499.899    6.4202484 
    3280    737.18567   -8503.3605   -8421.1263   -762.12856    20492.944    6.4479022 
    3290    740.93666   -8504.3608   -8421.7082   -446.76255    20485.029    6.4805443 
    3300    733.81692   -8504.2172   -8422.3588    17.654751    20476.655    6.5142963 
    3310    708.28396   -8502.0286   -8423.0184    1069.6124    20468.618    6.5442511 
    3320    679.90965   -8499.4597   -8423.6148    1832.2448    20462.393    6.5687525 
    3330    681.23561   -8500.1122   -8424.1193    1979.9423    20459.084    6.5913513 
    3340    684.25093   -8500.8821   -8424.5529    1975.8616    20458.877    6.6191023 
    3350    666.01758    -8499.193   -8424.8978    1953.9558    20461.736    6.6564789 
    3360    683.57935   -8501.4368   -8425.1824    1120.6103    20467.427    6.7015669 
    3370    690.12997   -8502.4156   -8425.4306   -77.825985     20474.66    6.7496697 
    3380    692.14045   -8502.8907   -8425.6814   -1468.8812    20481.597    6.7943109 
    3390    691.32883    -8503.067   -8425.9482   -2528.8811     20486.17    6.8300029 
    3400    696.11874   -8503.9011   -8426.2481   -2732.9243    20486.845    6.8534463 
    3410    708.47135    -8505.627    -8426.596   -2102.9553    20483.402    6.8655236 
    3420    723.00397   -8507.6719   -8427.0197   -1095.3946    20476.852    6.8727594 
    3430    708.41973    -8506.536   -8427.5107   -249.16184    20468.771    6.8818949 
    3440    721.01794     -8508.49   -8428.0594   -473.66067    20460.344    6.8934165 
    3450    748.38869   -8512.1955   -8428.7116     -1250.87    20451.309    6.9048627 
    3460    740.52711   -8512.0987   -8429.4917   -1647.2249    20440.609    6.9161236 
    3470     705.8946    -8509.044   -8430.3004   -1867.1463    20427.645    6.9264683 
    3480    711.03505   -8510.3866   -8431.0696   -2108.7643    20412.092    6.9327685 
    3490    721.82256    -8512.331   -8431.8106   -1731.0098    20393.754     6.932814 
    3500    725.38451    -8513.447   -8432.5293   -986.39997    20373.251    6.9257157 
    3510    738.71104   -8515.6518   -8433.2475   -210.87458    20351.714    6.9120559 
    3520     735.0397   -8515.9699   -8433.9751     802.8747    20330.393     6.896179 
    3530    717.54432   -8514.7313   -8434.6882    1481.1323    20310.739    6.8843204 
    3540    716.93749   -8515.3499   -8435.3745    1364.1808    20293.679    6.8811987 
    3550    731.17281   -8517.6374   -8436.0739    823.67992    20279.001    6.8876514 
    3560    708.67169    -8515.836   -8436.7826     1058.754    20266.024    6.9018711 
    3570    685.85192   -8513.9452   -8437.4373    1172.4079    20254.928    6.9223031 
    3580    697.01924   -8515.7964   -8438.0428     825.9288    20245.767    6.9478516 
    3590    708.15381   -8517.6267    -8438.631    713.54744    20238.091    6.9764861 
    3600    726.14466   -8520.2576   -8439.2551    374.95772    20231.626    7.0069977 
    3610    722.53314   -8520.5377   -8439.9381    49.721541    20225.861    7.0404892 
    3620    720.48812   -8521.0333   -8440.6617   -494.84717    20220.257    7.0786053 
    3630    732.47195   -8523.1486   -8441.4402   -1463.8298    20213.962    7.1229502 
    3640    707.09312   -8521.1212   -8442.2439   -1535.6151    20205.737    7.1698325 
    3650    697.31436   -8520.8007   -8443.0142   -1438.6229    20195.385    7.2130304 
    3660    697.88338   -8521.6072   -8443.7573   -1338.4283    20183.108    7.2521879 
    3670    686.11315   -8520.9985   -8444.4616   -1204.0168    20169.103    7.2886916 
    3680    679.72196   -8520.9366   -8445.1126   -1479.2573    20153.558    7.3224589 
    3690    677.81957   -8521.3229   -8445.7111    -2102.122    20136.102    7.3526409 
    3700     692.2754     -8523.51   -8446.2857   -2569.0257    20115.897    7.3786835 
    3710    697.45378   -8524.6658   -8446.8638   -2236.3103    20092.416    7.4038258 
    3720    684.45611   -8523.7795   -8447.4274   -1374.5468    20066.228    7.4317728 
    3730    688.44012    -8524.762   -8447.9655   -925.07675    20038.564    7.4619048 
    3740    705.27687    -8527.191   -8448.5164   -429.02428     20010.24    7.4927495 
    3750    691.04605   -8526.1637   -8449.0765    932.76135    19982.143    7.5242784 
    3760    687.36806   -8526.2819    -8449.605    1722.4317    19956.059    7.5554473 
    3770    709.90247   -8529.3256   -8450.1349    1392.7487     19933.04    7.5836974 
    3780    709.71382    -8529.879   -8450.7093     1429.393    19912.734    7.6097248 
    3790    693.20143   -8528.6348   -8451.3071    2104.9441    19895.171    7.6356949 
    3800    702.56336   -8530.2882   -8451.9162    1769.9539    19881.008     7.661931 
    3810     698.1926   -8530.4293   -8452.5449    1442.0405    19869.826    7.6872477 
    3820    699.37103   -8531.1839    -8453.168    1148.6882    19861.055    7.7125463 
    3830    727.62912   -8534.9929   -8453.8247    283.22344    19854.122    7.7410293 
    3840    726.51229   -8535.5797   -8454.5362    173.90112    19847.901    7.7752171 
    3850    719.88663   -8535.5972   -8455.2928    926.26498    19842.207    7.8164578 
    3860    694.06878   -8533.4702   -8456.0457    1769.0533    19838.033    7.8634488 
    3870    680.54336   -8532.6543   -8456.7386    1846.6461    19836.436    7.9132444 
    3880    690.00889   -8534.3439   -8457.3723    1128.7033    19837.452    7.9646281 
    3890    684.85206   -8534.3463     -8457.95    132.78738    19840.058    8.0177218 
    3900     704.8043   -8537.1216   -8458.4996   -1316.8163    19842.738    8.0704463 
    3910    734.87479   -8541.0682   -8459.0918   -2414.1694    19843.488    8.1167853 
    3920    744.48451   -8542.8358   -8459.7875   -2236.8307    19840.886    8.1527093 
    3930    737.89376   -8542.8994   -8460.5863   -966.24563    19835.268    8.1826767 
    3940    726.91843   -8542.5193   -8461.4304    77.713522    19828.362     8.213503 
    3950    730.57926   -8543.7935   -8462.2963    390.22938    19821.661    8.2460772 
    3960    709.18853    -8542.257   -8463.1459    665.95809    19815.696    8.2783641 
    3970    705.20523   -8542.5852   -8463.9185    654.98519    19810.814    8.3094823 
    3980    727.89892   -8545.8787   -8464.6804    519.68525    19806.999    8.3389365 
    3990    697.27854   -8543.2073   -8465.4248    763.64779    19804.108      8.36803 
    4000    697.74409   -8543.9646   -8466.1301    177.16613    19802.271    8.3992676 
    4010    713.68898   -8546.4326   -8466.8196    -779.9028    19800.692    8.4356888 
    4020    721.66936   -8548.0387   -8467.5354   -1587.0456    19798.051    8.4792352 
    4030    718.76941   -8548.4731   -8468.2932    -1767.672    19793.274    8.5294827 
    4040    694.37241   -8546.5105   -8469.0523   -1480.8656    19786.147    8.5832838 
    4050    692.96885   -8547.0721   -8469.7704   -1631.2826    19776.991    8.6318539 
    4060    700.74383   -8548.6328   -8470.4637   -1598.8656    19765.728    8.6690341 
    4070    698.01174        -8549   -8471.1358   -1226.3425    19752.492    8.6986592 
    4080    698.24733   -8549.6867   -8471.7962   -1025.5553    19737.791    8.7270402 
    4090    688.84842   -8549.2889   -8472.4468   -643.99776    19722.003    8.7567878 
    4100    684.30755    -8549.418   -8473.0824   -395.47523    19705.663    8.7884882 
    4110    690.82457   -8550.7785    -8473.716   -500.78035    19689.118    8.8220104 
    4120    688.43609   -8551.1458   -8474.3497   -139.44215    19672.339    8.8592956 
    4130    680.98437   -8550.9297   -8474.9649    800.81043    19655.877    8.9025841 
    4140      670.059   -8550.2879   -8475.5418    1448.0069    19640.941    8.9541056 
    4150    682.88552   -8552.2619    -8476.085    966.78745    19628.283    9.0143604 
    4160    702.27361   -8554.9823   -8476.6426    72.466997    19617.285    9.0804143 
    4170    695.55597    -8554.811   -8477.2206   -701.91583    19606.724    9.1445508 
    4180    695.82339   -8555.4234   -8477.8033   -1421.8101    19595.485    9.1968361 
    4190    694.07615   -8555.7979   -8478.3727   -1301.5568    19582.693    9.2343388 
    4200    681.68504   -8554.9521   -8478.9091    -955.0855    19568.482    9.2576201 
    4210    678.01307   -8555.0515   -8479.4181   -734.28089    19553.368    9.2682023 
    4220    670.32136   -8554.6627   -8479.8873    -345.0893    19537.742     9.269114 
    4230    667.53085   -8554.7772   -8480.3131    275.23885    19522.194    9.2632721 
    4240    672.55567   -8555.7282   -8480.7036    474.63136    19507.504    9.2538697 
    4250     687.0716   -8557.7425   -8481.0986    325.98584    19493.927    9.2450169 
    4260    687.63021   -8558.2145   -8481.5083    473.17266    19481.294     9.242985 
    4270    699.97846    -8560.027   -8481.9433    843.35483    19469.779    9.2515757 
    4280    707.59181   -8561.3651   -8482.4321    931.79344    19459.774    9.2690325 
    4290    689.65025   -8559.8909   -8482.9593     816.4152    19451.366    9.2891499 
    4300     678.9934   -8559.2311   -8483.4884    664.13809    19444.369    9.3062506 
    4310    678.81235   -8559.7181   -8483.9955    313.72659    19438.481    9.3190465 
    4320    683.42119    -8560.732   -8484.4953    433.89433    19433.268    9.3310492 
    4330    672.87008   -8560.0311   -8484.9715     1005.843    19428.881    9.3500259 
    4340    689.57576   -8562.3642    -8485.441    983.87087    19425.942    9.3832063 
    4350    694.08293   -8563.3587   -8485.9327    1086.6898     19424.49    9.4323933 
    4360    677.75918   -8562.0382   -8486.4332    793.32644    19424.547    9.4932668 
    4370    676.14852   -8562.3277   -8486.9023   -986.75791    19425.523    9.5593708 
    4380    692.10998   -8564.5499    -8487.344   -2892.2451    19425.089     9.627672 
    4390    697.95881   -8565.6657   -8487.8073   -3350.9398    19420.854    9.6959423 
    4400     684.7105   -8564.6736   -8488.2931   -3056.5676    19412.235    9.7573917 
    4410    685.83664   -8565.2953   -8488.7892   -2887.5728    19399.649    9.8088045 
    4420    674.59143   -8564.5205   -8489.2688   -2280.5055    19383.527    9.8524518 
    4430    676.09684   -8565.1335   -8489.7139   -1455.6123    19364.789    9.8890964 
    4440    691.06042   -8567.2299   -8490.1411   -699.93079    19344.661    9.9203052 
    4450    689.65691   -8567.4969   -8490.5647   -195.02989    19324.207    9.9494302 
    4460    695.39069   -8568.5732   -8491.0013    7.2377593    19304.121    9.9781594 
    4470    697.71648   -8569.2851   -8491.4538    183.92674    19284.687    10.006168 
    4480    706.20677   -8570.7105   -8491.9321    1256.1323    19266.252    10.032254 
    4490    704.64976   -8571.0404   -8492.4356    2798.1458    19250.197    10.057369 
    4500    707.86137    -8571.929    -8492.966    3462.1563     19238.34    10.085678 
    4510    721.74391     -8574.07   -8493.5584    3621.3017    19231.496    10.122654 
    4520    699.76656   -8572.2582   -8494.1982    3532.4487    19229.751    10.171292 
    4530    671.38539   -8569.7077   -8494.8136    2904.7382    19232.804    10.230274 
    4540    669.20983   -8569.9979   -8495.3465    1340.4818    19239.594    10.295419 
    4550    686.61038   -8572.4264    -8495.834   -36.731006    19248.036    10.363931 
    4560    660.84355   -8569.9919   -8496.2738   -141.98912    19256.368    10.436605 
    4570    662.96405   -8570.5933   -8496.6386   -261.69116     19264.26    10.513795 
    4580    697.41429   -8574.7588   -8496.9612   -588.28665    19271.534    10.596919 
    4590    690.97862   -8574.3606   -8497.2809   -84.550782     19277.92    10.685791 
    4600    679.41548   -8573.3986   -8497.6088    750.51697    19284.036    10.774731 
    4610    678.44137   -8573.6127   -8497.9316    1104.7825    19290.932     10.85738 
    4620    681.22843    -8574.241    -8498.249    806.41259    19299.066    10.934097 
    4630    683.65438   -8574.8416   -8498.5789    25.333701    19308.006    11.010014 
    4640    675.26464   -8574.2506   -8498.9238   -772.17994    19316.726    11.092143 
    4650    671.18139   -8574.1308   -8499.2595   -1695.3417     19324.14    11.184196 
    4660    690.91816    -8576.658   -8499.5851   -2639.7694    19329.029    11.283892 
    4670    700.86758   -8578.1258    -8499.943   -2991.4046     19330.21    11.385837 
    4680    688.71502   -8577.1716   -8500.3445   -2399.6696    19327.381    11.483165 
    4690    680.23022   -8576.6433   -8500.7626   -1744.4834    19321.381    11.573099 
    4700    683.32307   -8577.4035   -8501.1778   -1410.3311    19313.153    11.658634 
    4710    693.09951    -8578.911   -8501.5947   -948.36805    19303.282    11.742658 
    4720    696.44383   -8579.7239   -8502.0345   -228.82166    19292.445    11.826982 
    4730    673.99776   -8577.6631   -8502.4776    851.21863    19281.694    11.912531 
    4740     645.2836   -8574.8337   -8502.8513    1688.0735    19272.439    11.997082 
    4750    651.97987   -8575.8684   -8503.1391    1749.1923    19265.693    12.076361 
    4760    669.67613   -8578.0712   -8503.3678     1613.331    19261.525    12.148048 
    4770     691.7383   -8580.7464   -8503.5819     1590.676      19259.7    12.211446 
    4780     697.4859   -8581.6343   -8503.8287    1884.6416    19260.141    12.268256 
    4790    673.65637   -8579.2421   -8504.0947    2569.7496    19263.186    12.321827 
    4800    662.33256   -8578.2371   -8504.3529     2843.663    19269.572      12.3746 
    4810    663.99371   -8578.6546   -8504.5851     2093.616    19279.522    12.431601 
    4820    682.33609   -8580.9189   -8504.8032    252.94257    19291.875    12.500911 
    4830    693.57247   -8582.3956   -8505.0265   -849.77792    19304.279    12.588633 
    4840    696.73766   -8583.0051    -8505.283    -919.6984    19315.265    12.688637 
    4850    701.92028   -8583.8981   -8505.5978   -1124.5328    19324.642     12.79151 
    4860    687.43161   -8582.6451    -8505.961    -1683.781    19332.156    12.894911 
    4870    693.79396   -8583.7539   -8506.3601   -2447.0291    19337.105    12.997097 
    4880    702.06364   -8585.1253   -8506.8091   -2735.7008    19338.607    13.098172 
    4890    691.32061   -8584.4153   -8507.2974   -2306.1444    19336.409    13.201774 
    4900    696.08165   -8585.4501   -8507.8011   -1737.2676    19331.133    13.312996 
    4910    693.41991   -8585.6514   -8508.2994   -932.73544    19323.689    13.433546 
    4920    698.42205   -8586.6968   -8508.7867   -534.33608      19315.2    13.561904 
    4930    705.34324   -8587.9677   -8509.2856   -1097.2042    19306.141    13.692055 
    4940    694.62214   -8587.2657   -8509.7795   -1560.1133    19295.921    13.816547 
    4950    695.75758   -8587.8553   -8510.2425   -2241.5219    19283.892    13.930512 
    4960    685.66242   -8587.1378   -8510.6511   -2404.0234    19269.294    14.032051 
    4970    673.26778   -8586.0789   -8510.9749   -1900.7911    19252.028    14.123758 
    4980    681.05533   -8587.1916   -8511.2189   -1021.7369    19232.873    14.202957 
    4990      681.199   -8587.3958    -8511.407    563.62554    19213.152    14.262061 
    5000    693.24562   -8588.9018   -8511.5692    1764.6634    19194.881    14.299967 
Loop time of 1971.53 on 16 procs for 3000 steps with 864 atoms

Performance: 0.131 ns/day, 182.549 hours/ns, 1.522 timesteps/s
96.1% CPU use with 16 MPI tasks x 1 OpenMP threads

MPI task timing breakdown:
Section |  min time  |  avg time  |  max time  |%varavg| %total
---------------------------------------------------------------
Pair    | 785.67     | 1233.7     | 1969.3     |1047.2 | 62.57
Bond    | 0.00023818 | 0.00078496 | 0.0017002  |   0.0 |  0.00
Neigh   | 0.027256   | 0.046504   | 0.083344   |   8.7 |  0.00
Comm    | 0.45597    | 487.13     | 1042.4     |1339.8 | 24.71
Output  | 0.19825    | 0.20189    | 0.25488    |   3.0 |  0.01
Modify  | 0.35162    | 250.47     | 748.43     |1501.1 | 12.70
Other   |            | 0.01456    |            |       |  0.00

Nlocal:        54.0000 ave          83 max          32 min
Histogram: 1 3 4 2 0 0 2 1 1 2
Nghost:        514.250 ave         669 max         346 min
Histogram: 2 1 1 2 2 2 0 2 2 2
Neighs:         0.00000 ave           0 max           0 min
Histogram: 16 0 0 0 0 0 0 0 0 0
FullNghs:      2614.62 ave        5364 max         919 min
Histogram: 4 3 3 0 0 0 2 2 0 2

Total # of neighbors = 41834
Ave neighs/atom = 48.418981
Ave special neighs/atom = 0.0000000
Neighbor list builds = 300
Dangerous builds = 300
Setting up Verlet run ...
  Unit style    : metal
  Current step  : 5000
  Time step     : 0.001
Per MPI rank memory allocation (min/avg/max) = 8.899 | 8.909 | 8.922 Mbytes
Step Temp PotEng TotEng Press Volume c_msd[4] 
    5000    693.24562   -8588.9018   -8511.5692    1764.6634    19194.881    14.299967 
    5010    713.12908   -8591.1594   -8511.6087    1357.5928     19196.02    14.322999 
    5020    720.50821   -8592.1296   -8511.7558    1372.5014    19199.087    14.337966 
    5030    708.92814   -8591.0993   -8512.0173    2090.8453    19204.132      14.3488 
    5040    710.13124   -8591.5951   -8512.3789    2721.5463    19212.046    14.357007 
    5050    709.18591   -8591.9338    -8512.823    2717.7593    19223.634    14.364196 
    5060    693.95593   -8590.7409   -8513.3291    2498.5396    19238.962    14.374736 
    5070    685.99699    -8590.383    -8513.859    1951.5612    19257.725    14.392337 
    5080    698.19055   -8592.2784   -8514.3942    413.56376    19279.069      14.4204 
    5090    703.32385   -8593.3969   -8514.9401   -1754.0702    19300.905    14.459796 
    5100    689.08659   -8592.3548   -8515.4862   -3451.9469    19320.381    14.506799 
    5110    683.60367   -8592.2576   -8516.0006   -4366.8972    19335.183    14.555306 
    5120    692.00543    -8593.681   -8516.4867   -5021.7053    19343.927    14.599481 
    5130    675.67435   -8592.3049   -8516.9324   -4805.6392    19345.782    14.636555 
    5140    674.15849   -8592.5238   -8517.3204   -4720.8423     19340.91     14.66635 
    5150    685.93337   -8594.1868   -8517.6699   -5057.2839    19329.423     14.68839 
    5160    689.34222   -8594.9084   -8518.0112    -4949.475     19310.98    14.698938 
    5170    692.73116   -8595.6319   -8518.3567    -4117.091    19285.807    14.698742 
    5180    690.41138   -8595.7094    -8518.693   -2804.4555     19255.06    14.692929 
    5190    689.50054   -8595.9242   -8519.0093   -1158.2918    19220.588    14.682679 
    5200    678.37754   -8594.9594   -8519.2853    422.97963    19184.653    14.672405 
    5210    690.60624   -8596.5558   -8519.5177      1254.35    19149.372    14.672999 
    5220    709.53946   -8598.9003   -8519.7501    1500.7982    19115.945    14.691125 
    5230    689.76532   -8596.9481   -8520.0037     1940.981     19084.81    14.725536 
    5240    671.55048   -8595.1745    -8520.262    2348.9824    19056.548    14.771073 
    5250    678.86383   -8596.2405   -8520.5122    1832.6607    19031.578    14.819706 
    5260    700.06489   -8598.8814   -8520.7881    1360.7857    19009.308    14.866227 
    5270    688.26813   -8597.8654   -8521.0881    2294.7215    18989.278    14.912273 
    5280    681.20902   -8597.3712   -8521.3814    3415.8668    18972.565     14.96454 
    5290    690.88134   -8598.7373   -8521.6685    3677.4542    18960.495    15.030574 
    5300    705.30642   -8600.6483   -8521.9703    3502.6098    18953.417    15.110662 
    5310    710.75756   -8601.6095   -8522.3234    2678.4543    18950.984    15.197203 
    5320    713.80684   -8602.3851   -8522.7589     1841.762    18952.143    15.282073 
    5330    715.42376   -8603.0846    -8523.278    1049.2786    18955.756    15.360778 
    5340    709.94902     -8603.06   -8523.8641    -6.912489    18960.687    15.429227 
    5350    686.20059   -8601.0038   -8524.4571   -478.62728    18965.665    15.482524 
    5360    671.46864   -8599.9007   -8524.9974   -1104.8782     18969.93    15.521982 
    5370    676.95985   -8600.9802   -8525.4643   -1682.6465    18972.692    15.554931 
    5380    684.80376   -8602.2699    -8525.879   -1191.2734    18973.337    15.587088 
    5390    678.92941   -8601.9799   -8526.2443   -604.43741    18972.405    15.619021 
    5400    687.67288   -8603.2904   -8526.5795   -625.03923     18970.62    15.647097 
    5410     682.0227   -8602.9774   -8526.8968   -719.69138    18968.047    15.669846 
    5420    675.56569   -8602.5514    -8527.191   -1118.6306    18964.522    15.687569 
    5430    696.92241    -8605.222   -8527.4792   -1914.7747    18959.485     15.70218 
    5440    706.30732   -8606.5912   -8527.8015   -2599.3527    18951.975    15.718641 
    5450    692.68091   -8605.4347   -8528.1651   -2703.4249    18941.146     15.73703 
    5460    687.68865   -8605.2571   -8528.5444   -2655.4956    18926.822    15.752434 
    5470    690.44814   -8605.9572   -8528.9366   -2860.4262     18909.09    15.760677 
    5480    678.86609   -8605.0675    -8529.339   -2720.5351    18887.815    15.758061 
    5490    670.61847   -8604.5328   -8529.7243   -2190.2067    18863.218     15.74344 
    5500    676.48114   -8605.5483   -8530.0858    -1208.392    18836.058    15.721944 
    5510    680.20683    -8606.294   -8530.4159    638.32334    18807.747    15.703823 
    5520    683.84629   -8607.0027   -8530.7186    2972.5817    18780.671    15.702862 
    5530    674.48803   -8606.2189   -8530.9787     4837.325    18757.778    15.729618 
    5540    709.07311   -8610.3468   -8531.2486    4666.4864     18741.23    15.782447 
    5550     717.0331   -8611.5675   -8531.5814    4222.3917    18730.985    15.852747 
    5560      697.464   -8609.7731   -8531.9699    4185.7404    18726.414    15.932075 
    5570    690.57461   -8609.4178   -8532.3831    4450.1199    18727.356    16.016628 
    5580    683.99671   -8609.1008   -8532.7999    4476.2524    18734.034    16.107208 
    5590    716.01853   -8613.1277   -8533.2548    3612.4112    18746.308    16.207005 
    5600    717.44351   -8613.8115   -8533.7796    2965.2954    18763.141    16.315002 
    5610    686.56909   -8610.9207   -8534.3329    2861.8878    18783.697      16.4223 
    5620    690.03678   -8611.8359   -8534.8613    2066.9817    18807.637    16.521391 
    5630    696.11189   -8613.0093    -8535.357    1271.1568    18833.997    16.607952 
    5640    695.77886   -8613.4358   -8535.8206    399.19286    18861.668    16.682783 
    5650    716.96385    -8616.241   -8536.2626   -1024.5842     18889.43    16.749853 
    5660    728.87359   -8618.0317   -8536.7247   -2155.7436    18915.486    16.813114 
    5670    698.67517    -8615.146   -8537.2077   -1939.8666    18938.472    16.875099 
    5680    683.59202   -8613.9141   -8537.6584   -1719.5284    18958.553    16.936085 
    5690    706.37037    -8616.872   -8538.0753   -2643.0394    18975.922    16.992165 
    5700    713.44308   -8618.0833   -8538.4976    -3377.725    18989.554    17.039266 
    5710    702.86354   -8617.3517   -8538.9462   -3508.5427    18998.538    17.074947 
    5720    684.36761   -8615.7347   -8539.3925    -3185.714    19002.768    17.098498 
    5730     686.7328   -8616.4209   -8539.8148   -2766.7299    19002.714    17.116666 
    5740    701.31927   -8618.4667   -8540.2335    -2948.402     18998.91    17.138013 
    5750    699.22072   -8618.6706   -8540.6714   -3127.2343    18991.247     17.16319 
    5760    696.41235   -8618.8139   -8541.1281   -2883.2782      18979.6     17.18714 
    5770    693.40599     -8618.94   -8541.5895   -2750.4102    18964.274     17.20368 
    5780    707.28713   -8620.9596   -8542.0607   -2660.9454     18945.54    17.208983 
    5790    729.39051   -8623.9487   -8542.5841   -1988.5227    18923.686     17.20292 
    5800    737.10468   -8625.4153   -8543.1902   -624.76852    18899.635    17.188134 
    5810     722.4368   -8624.4368   -8543.8479    999.86408    18875.183    17.163665 
    5820    711.92933    -8623.934   -8544.5172    1800.8531    18852.351    17.131868 
    5830    706.19904   -8623.9483   -8545.1708     2489.335    18832.271     17.10193 
    5840    709.74924   -8624.9774   -8545.8038    3565.9952    18815.817    17.080584 
    5850    708.04059      -8625.4    -8546.417    4607.8641    18804.278    17.076451 
    5860    705.82614   -8625.7523   -8547.0163    5400.7537     18798.92     17.09616 
    5870    715.42585   -8627.4384   -8547.6315     5711.589    18800.632    17.140244 
    5880    689.86604   -8625.2116    -8548.256    6269.4248    18809.832    17.207024 
    5890     688.6367   -8625.6788   -8548.8604    5939.5952    18827.008    17.296974 
    5900     718.4326   -8629.6146   -8549.4723     4459.592    18851.593     17.40848 
    5910    710.31217   -8629.3394    -8550.103    2856.3142    18881.696    17.534135 
    5920    694.72298    -8628.197   -8550.6996      722.768    18915.085    17.662534 
    5930    708.68047   -8630.2995   -8551.2451   -1417.0653    18948.929    17.784015 
    5940    698.22255   -8629.6631   -8551.7753   -2056.1457    18980.553    17.899975 
    5950    688.12286   -8629.0588   -8552.2976   -2154.6102    19008.969    18.016149 
    5960    699.75599   -8630.8794   -8552.8206   -2108.6851    19034.037    18.131888 
    5970    697.05593   -8631.1158   -8553.3582   -1108.3532    19055.983    18.241837 
    5980    697.23946   -8631.6926   -8553.9145   -324.33404    19076.023     18.34172 
    5990    697.95317   -8632.3345   -8554.4767   -79.289662    19095.193    18.434181 
    6000    687.60389   -8631.7338   -8555.0305    488.93873    19113.961    18.527746 
    6010    684.58705   -8631.9297    -8555.563    505.15566    19132.956    18.629112 
    6020    686.27242   -8632.6173   -8556.0626    130.39377    19152.247    18.740281 
    6030    708.95123   -8635.6503   -8556.5657    -703.7699    19171.281    18.859598 
    6040    717.35178   -8637.1337   -8557.1121   -1139.1392    19189.063    18.987396 
    6050    719.38002   -8637.9671   -8557.7192   -1750.0437     19204.94    19.124065 
    6060    715.54751   -8638.1913   -8558.3709   -2732.1294    19218.075    19.260553 
    6070     715.4736   -8638.8621     -8559.05   -3011.2126    19227.323     19.38229 
    6080    718.44299   -8639.9145   -8559.7711   -2839.9981    19232.332    19.485443 
    6090    678.54611   -8636.1805   -8560.4877   -1994.4571    19233.483    19.586432 
    6100    664.63077   -8635.2616   -8561.1211   -1416.3618    19231.867    19.701884 
    6110     697.4839   -8639.5095   -8561.7041   -1421.1371    19228.268    19.833286 
    6120    698.42249   -8640.1858   -8562.2757    -685.5616    19222.917    19.976231 
    6130    673.52511   -8637.9357    -8562.803    793.47201    19216.855    20.128934 
    6140    667.95169   -8637.7795   -8563.2685    2294.9423    19212.036    20.292998 
    6150    670.17297   -8638.4597   -8563.7008    3266.6253    19210.395    20.474119 
    6160    668.05454   -8638.6549   -8564.1325    3990.3045    19213.211    20.678566 
    6170     664.5956   -8638.6762   -8564.5396    3761.6633    19221.259    20.907568 
    6180    679.91825   -8640.7541   -8564.9082    2769.5357    19234.136    21.159141 
    6190    687.53315   -8641.9429   -8565.2475    1978.4031    19250.459    21.426585 
    6200    681.61746   -8641.5869   -8565.5515    1602.6188    19269.088    21.691944 
    6210    686.12713   -8642.3751   -8565.8366    857.14138    19289.299    21.938538 
    6220    686.46181   -8642.6972   -8566.1213    168.94139    19310.088    22.163539 
    6230    693.33443   -8643.7792   -8566.4367   -456.32253    19330.479    22.374451 
    6240    686.39444   -8643.3671   -8566.7987   -674.52333    19349.681     22.58157 
    6250    674.14629   -8642.3916   -8567.1896   -878.95529    19367.382    22.785917 
    6260     675.4552   -8642.9185   -8567.5705   -1077.0974    19383.341    22.979201 
    6270    661.72357   -8641.7387   -8567.9225     -1017.41    19397.331    23.151853 
    6280    644.54073   -8640.1184   -8568.2189   -789.17065    19409.518     23.30395 
    6290    674.99397   -8643.7657   -8568.4691   -1155.4705    19420.152    23.441202 
    6300    675.73565   -8644.0734   -8568.6941   -839.40447    19428.971    23.564988 
    6310    678.52504   -8644.6156   -8568.9252   -502.30436    19436.368      23.6791 
    6320    694.36554   -8646.6421   -8569.1845     -598.284    19442.766    23.794855 
    6330    675.92783   -8644.8741   -8569.4733   -22.125349    19448.249    23.922137 
    6340    658.29123     -8643.19   -8569.7566    486.07103     19453.54    24.059576 
    6350    650.42689   -8642.5617   -8570.0056    306.63022    19459.275    24.200625 
    6360    643.98703    -8642.032   -8570.1942   -120.75038    19465.274    24.333944 
    6370    668.68382   -8644.9296   -8570.3369   -333.46596     19470.97    24.448835 
    6380    663.62121   -8644.4861   -8570.4581     609.8068    19476.202     24.54221 
    6390     641.0353    -8642.058   -8570.5495      2158.75    19482.251    24.623475 
    6400    666.44915   -8644.9342   -8570.5908    2107.4219    19490.972    24.712284 
    6410    703.68004    -8649.106   -8570.6094    726.48027    19502.294    24.817661 
    6420    703.75482   -8649.1811   -8570.6762   -163.81771    19514.477    24.936853 
    6430    690.16395   -8647.8058    -8570.817   -324.21993    19526.289    25.061421 
    6440     688.8078   -8647.8488   -8571.0113   -461.21636    19537.414    25.181755 
    6450    696.71368   -8648.9782   -8571.2588   -938.56336    19547.644    25.294177 
    6460    696.81999   -8649.3083   -8571.5769   -1827.2859    19556.318    25.398215 
    6470    677.38124   -8647.5192   -8571.9563   -2327.9601    19562.325     25.49484 
    6480    664.45203   -8646.4699   -8572.3493   -2478.5331    19564.997    25.585062 
    6490     679.2899   -8648.5222   -8572.7464   -2674.1163    19564.105    25.669302 
    6500    671.30058   -8648.0414   -8573.1568   -2239.0961    19559.548    25.746925 
    6510    660.53275   -8647.2533   -8573.5699   -1118.3311    19552.021    25.811282 
    6520    664.98483   -8648.1522   -8573.9722   -322.35115    19543.001    25.858206 
    6530     673.7138   -8649.5303   -8574.3765   -113.02231    19533.578    25.892932 
    6540    675.87362   -8650.1799   -8574.7852    196.47745    19524.157    25.923051 
    6550    691.52172   -8652.3593    -8575.219    324.25005     19515.11    25.953839 
    6560    681.61915   -8651.7223   -8575.6867     459.8291    19506.654    25.986235 
    6570    651.80956   -8648.8477   -8576.1374    596.85786    19498.967    26.013322 
    6580     659.3765   -8650.0906   -8576.5362    157.54813    19492.135    26.024716 
    6590    668.32085   -8651.4472    -8576.895   -90.334628    19485.638    26.014767 
    6600    658.60439   -8650.6811   -8577.2128   -79.426748    19479.125    25.984725 
    6610    664.36211   -8651.6012   -8577.4906   -353.50492    19472.529    25.941222 
    6620      681.537    -8653.771   -8577.7445   -252.37382    19465.565    25.887294 
    6630    692.55879   -8655.2546   -8577.9986    247.25546    19458.371    25.821207 
    6640    678.53186   -8653.9305   -8578.2392    942.36309    19451.629    25.750407 
    6650    668.76607   -8653.0431   -8578.4412    1211.8628    19446.229    25.689132 
    6660     681.8244   -8654.6647   -8578.6062    985.09122    19442.516      25.6472 
    6670    686.39508   -8655.3357   -8578.7673    1260.4215    19440.279     25.63187 
    6680    684.35416    -8655.283   -8578.9422    1594.8664    19439.823    25.650246 
    6690    692.55128   -8656.3903   -8579.1352    1220.1019    19441.531    25.700789 
    6700    691.89058    -8656.527   -8579.3456     215.3922    19444.896    25.770551 
    6710    685.62014   -8656.0442   -8579.5622   -1092.5653    19448.504    25.845664 
    6720    693.26029   -8657.1123   -8579.7781   -2372.2043    19450.561    25.918191 
    6730    692.06135   -8657.1979   -8579.9974   -3309.2101    19449.315    25.982788 
    6740    670.77063   -8655.0263   -8580.2009   -3277.5519    19443.547    26.032228 
    6750    658.97222   -8653.8691   -8580.3597   -2942.5953    19433.251    26.063006 
    6760    661.49482   -8654.2598    -8580.469   -2485.6237    19418.921    26.079797 
    6770    666.16388   -8654.8517   -8580.5401   -1725.1432    19401.231    26.089083 
    6780    673.59234   -8655.7217   -8580.5815   -286.75015    19381.335    26.095208 
    6790     687.9386   -8657.3432   -8580.6026    1221.9998    19361.183    26.109665 
    6800     707.3946   -8659.5564   -8580.6454    2818.4862    19342.899    26.139855 
    6810    702.92881    -8659.161   -8580.7482    4215.0614    19328.592    26.178316 
    6820    668.61582   -8655.4823   -8580.8972    5171.1611    19320.163    26.216813 
    6830    663.70132   -8655.0832   -8581.0463    4550.1882    19318.761    26.260701 
    6840    692.02144   -8658.3934   -8581.1974    2884.2091    19323.542    26.324001 
    6850     680.2019   -8657.2435    -8581.366    1939.0271    19332.432    26.413245 
    6860    664.00715    -8655.603    -8581.532    897.21706    19343.977     26.52454 
    6870    682.51213   -8657.8046   -8581.6693   -537.63447    19356.674     26.64787 
    6880    700.07353   -8659.8923   -8581.7981   -1827.4215    19368.595    26.769123 
    6890    694.72657   -8659.4579   -8581.9602   -2033.8953    19378.088     26.87815 
    6900    683.50975   -8658.3948   -8582.1482   -1845.9427    19384.733    26.975916 
    6910    687.59364    -8659.056   -8582.3539   -1756.1013     19388.75    27.065495 
    6920    686.59296   -8659.1804   -8582.5899   -1803.8859    19390.296    27.150463 
    6930    688.33141   -8659.6477   -8582.8633    -2154.711    19389.269    27.234557 
    6940    705.57019   -8661.9005   -8583.1931    -2351.504    19385.253    27.323028 
    6950    711.44929   -8662.9732     -8583.61   -1558.8583    19378.117    27.415159 
    6960    688.58252   -8660.8956   -8584.0832    152.12216    19368.982    27.507107 
    6970    674.36012    -8659.776   -8584.5501    1365.4774    19360.057    27.595408 
    6980     671.2589   -8659.8646   -8584.9846    1747.1487    19352.998    27.676601 
    6990    685.14794   -8661.8238   -8585.3946    1794.1768    19348.405    27.748971 
    7000    700.73767   -8663.9924   -8585.8241    2258.5154    19346.389    27.816114 
    7010    671.93886   -8661.2082   -8586.2524    3667.5046    19347.677    27.890762 
    7020    674.25315   -8661.8628   -8586.6488    3540.1372    19353.852    27.983588 
    7030     687.0686   -8663.6512   -8587.0076    2077.8524    19364.747     28.09787 
    7040    699.72933    -8665.401   -8587.3451    243.49636    19378.453    28.225267 
    7050    705.99012   -8666.4367   -8587.6824   -1332.7183    19392.483    28.350499 
    7060    669.22644   -8662.6461   -8587.9928   -2051.7066    19404.708    28.466812 
    7070    657.72347   -8661.6065   -8588.2365    -2771.604    19413.991    28.574419 
    7080    668.43049   -8662.9761   -8588.4116   -2727.0125    19419.468    28.673505 
    7090    668.85398   -8663.1515   -8588.5398   -2095.6244    19421.163    28.760767 
    7100    680.48896   -8664.5588   -8588.6492   -1441.3896    19419.921    28.832361 
    7110    681.90698   -8664.8183   -8588.7506   -816.57331    19416.686    28.892075 
    7120    694.33214   -8666.3098    -8588.856   -857.68486    19412.239    28.945978 
    7130    711.93284   -8668.4194   -8589.0022   -1367.8774     19406.56    28.995044 
    7140    691.76589   -8666.3721   -8589.2046   -1294.7056    19399.092    29.031039 
    7150    673.02179   -8664.4954   -8589.4188   -814.94597    19389.926     29.05245 
    7160    697.21827   -8667.4104   -8589.6346   -813.94942    19379.589    29.071724 
    7170    705.67992   -8668.6094   -8589.8897   -592.70368    19368.177    29.095634 
    7180    679.87396   -8666.0184   -8590.1774   -159.66121    19356.001    29.118503 
    7190    681.32602   -8666.4629     -8590.46    233.40078    19343.656    29.132095 
    7200    706.36695   -8669.5538   -8590.7575    494.04786    19331.639    29.133068 
    7210    700.80283   -8669.2728   -8591.0972    1189.6412    19320.412    29.132281 
    7220    687.34109   -8668.1458   -8591.4719    1493.6311    19310.792    29.148251 
    7230    686.52199   -8668.4384   -8591.8559    1807.5807     19303.29      29.1911 
    7240    692.18831   -8669.4697    -8592.255    2191.4099    19298.322    29.266532 
    7250    679.84711   -8668.4997   -8592.6618    3200.6451    19296.496    29.375779 
    7260    673.03813   -8668.1251   -8593.0467    4285.5872    19299.139    29.510949 
    7270    693.70956   -8670.7988   -8593.4145    4206.6118    19307.575    29.659168 
    7280    716.23632   -8673.6987   -8593.8015    3586.5142    19321.786    29.812194 
    7290    733.19939   -8676.0583   -8594.2688    3269.4451     19341.01    29.973593 
    7300    718.10685   -8674.9302   -8594.8243    3241.1761    19364.835    30.149364 
    7310      698.766   -8673.3576   -8595.4092    2262.7454    19393.073    30.339057 
    7320    687.84633   -8672.6795   -8595.9492    141.72594     19424.33    30.535783 
    7330    676.60305   -8671.8729   -8596.3968   -2061.3195    19455.753    30.730482 
    7340    685.07755   -8673.1936   -8596.7721    -4009.562    19484.235    30.916353 
    7350    665.92266   -8671.3769   -8597.0923   -4695.9597    19507.148    31.092419 
    7360    655.61883   -8670.4859   -8597.3506   -4595.7208    19523.449    31.262009 
    7370    678.66907   -8673.2714   -8597.5649   -4184.0694    19533.231    31.424624 
    7380    670.57471   -8672.5598   -8597.7562   -2854.1573    19537.182     31.57329 
    7390    672.28963   -8672.9208   -8597.9259   -1532.1002    19537.082    31.703861 
    7400    683.39108   -8674.3159   -8598.0826   -894.42101    19534.725    31.815409 
    7410     672.7597   -8673.2769   -8598.2295    119.01586    19531.207    31.910534 
    7420    676.31941   -8673.7944   -8598.3499    1196.6057    19527.892    31.996185 
    7430    681.88035   -8674.5092   -8598.4444    1772.4303     19526.23    32.078718 
    7440    693.88558   -8675.9535   -8598.5496    1976.7103    19527.046    32.161963 
    7450    695.18402   -8676.2426   -8598.6938    2578.5435    19530.702     32.24676 
    7460    665.73235   -8673.1312   -8598.8678    3606.0314    19538.052    32.337984 
    7470    666.83747   -8673.4386   -8599.0519    3453.3659    19550.298    32.442613 
    7480    675.29666   -8674.5683   -8599.2379    2552.9617    19567.259    32.565268 
    7490    675.89008   -8674.8243   -8599.4278    1364.5749    19587.687    32.711176 
    7500    683.94157   -8675.9139   -8599.6192   -450.40701    19609.786    32.880369 
    7510    659.04832   -8673.3066   -8599.7888   -1864.8609     19631.14    33.064174 
    7520    664.82638   -8674.0789   -8599.9166   -3686.4542    19649.593    33.248824 
    7530    691.44566    -8677.164   -8600.0322    -5025.204    19662.666     33.41916 
    7540    679.04004   -8675.9391   -8600.1911   -5159.3418    19668.568     33.56357 
    7550    679.69985   -8676.2301   -8600.4086   -4811.0765    19667.084    33.673451 
    7560    672.73764   -8675.7195   -8600.6746   -3712.6063    19658.832    33.749318 
    7570    647.99829   -8673.2279   -8600.9427    -2077.233    19645.436    33.806424 
    7580    665.19555   -8675.3737   -8601.1701   -1218.8764    19629.143    33.857072 
    7590    705.00124   -8680.0388   -8601.3948   -955.68763    19611.233    33.907707 
    7600    704.14751   -8680.2339   -8601.6852    192.74352    19592.303    33.964501 
    7610    672.38737   -8677.0328    -8602.027    1872.4972    19573.952    34.031938 
    7620    656.38865   -8675.5958   -8602.3747    3436.0373    19558.487    34.115162 
    7630    669.35041   -8677.3932   -8602.7262     4329.325    19548.007    34.226414 
    7640    674.40655   -8678.3383   -8603.1072    5039.0967    19543.778    34.375353 
    7650    660.79549   -8677.2278   -8603.5151     5357.551    19546.673    34.559187 
    7660    671.17088    -8678.829   -8603.9589    4369.9575    19556.946    34.769731 
    7670     683.1777   -8680.6565    -8604.447    2480.8845    19573.142    34.992886 
    7680    666.10052   -8679.2625    -8604.958    1153.3334    19592.714    35.212701 
    7690    653.75155   -8678.3698   -8605.4428   -324.57175    19613.589    35.421352 
    7700    662.86672   -8679.8347   -8605.8909   -1834.5121    19633.677    35.610477 
    7710    646.52526   -8678.4243   -8606.3034   -2806.5323    19650.905    35.772972 
    7720    639.11665   -8677.9474    -8606.653   -3637.3316    19663.863    35.909937 
    7730    657.35453   -8680.2912   -8606.9623   -4248.2407     19671.42    36.021673 
    7740    638.64933   -8678.4839   -8607.2416   -3601.5087     19672.96    36.100276 
    7750    639.44948   -8678.8011   -8607.4695   -3304.9983    19669.263     36.13729 
    7760    663.00817   -8681.6165    -8607.657   -3149.3522    19660.861    36.124132 
    7770    648.02581   -8680.0966   -8607.8084   -1614.4505    19648.286    36.061758 
    7780    652.39361   -8680.6803   -8607.9048    -44.22024    19633.606    35.969283 
    7790    672.05225   -8682.9094    -8607.941    1080.2572    19619.044    35.874799 
    7800    674.96144   -8683.2438   -8607.9508    2313.4205    19606.268    35.805278 
    7810      670.183   -8682.7111   -8607.9512    3646.1475    19596.998    35.777736 
    7820    674.14937   -8683.1617   -8607.9593    4609.7817    19592.981    35.799393 
    7830    668.34852   -8682.5374   -8607.9821    5053.5059    19595.497    35.870893 
    7840    675.05315    -8683.335   -8608.0318    4314.4592    19604.986    35.988783 
    7850    670.87549    -8682.926   -8608.0888    3215.2575    19620.445    36.139885 
    7860    654.83193   -8681.1669   -8608.1194    1921.3153    19640.257    36.304471 
    7870    638.73595   -8679.3187   -8608.0667    52.967199    19662.477      36.4674 
    7880    650.72563     -8680.48   -8607.8905   -2142.0955    19684.427    36.619948 
    7890    676.32633   -8683.0395   -8607.5943   -3377.4587    19703.134    36.757569 
    7900    674.84782   -8682.5052   -8607.2249   -3489.7796    19716.873    36.873238 
    7910    667.30341   -8681.2472   -8606.8085   -3062.5154    19725.488    36.960648 
    7920    664.95721   -8680.5081   -8606.3312   -2779.9523    19729.564    37.017467 
    7930     672.5041   -8680.8145   -8605.7957   -2753.7898    19729.553    37.040218 
    7940    668.12444   -8679.7547   -8605.2244   -2338.0687    19725.637     37.03268 
    7950    667.80964   -8679.1321    -8604.637   -1703.8984    19718.444    37.004654 
    7960    692.87519   -8681.3314   -8604.0401   -1460.4906    19708.851    36.963284 
    7970    718.76596    -8683.663   -8603.4836   -1346.5841    19697.265     36.91661 
    7980    721.34933   -8683.5042   -8603.0366   -756.87373     19683.99    36.876802 
    7990    711.65848   -8682.1064   -8602.7199   -310.87252      19669.8    36.849036 
    8000     695.4974   -8680.0783   -8602.4946   -103.58365    19655.357    36.833367 
    8010    726.99298    -8683.446   -8602.3489   -782.39051    19640.831    36.829084 
    8020    722.98946   -8682.9616   -8602.3111   -640.64549    19625.494    36.823762 
    8030    680.97081   -8678.3272   -8602.3639    292.65808     19609.54    36.808085 
    8040    692.88806   -8679.7464   -8602.4537    583.92942    19594.111    36.787652 
    8050     698.0419   -8680.4413   -8602.5737    872.67995    19579.699    36.767172 
    8060    702.37404    -8681.104   -8602.7531     1687.665    19566.768    36.741185 
    8070    687.29254   -8679.6476    -8602.979    2876.0994    19556.451     36.71153 
    8080    690.35695   -8680.2608   -8603.2504    3313.4587    19550.225    36.688694 
    8090    693.18127   -8680.8996   -8603.5742    3428.8296    19548.733    36.687245 
    8100    694.61496   -8681.4428   -8603.9575    2977.1269     19552.02    36.721434 
    8110    700.14431   -8682.5085   -8604.4063    1954.2747    19559.419    36.794477 
    8120     680.2667   -8680.7763   -8604.8915    1145.7692    19569.577    36.897806 
    8130    676.53324   -8680.8406   -8605.3723    193.77045    19581.267    37.017718 
    8140    698.66061   -8683.7933   -8605.8566   -1347.3215     19593.02    37.141219 
    8150    687.72908   -8683.0754   -8606.3581   -2103.5554    19602.852    37.260256 
    8160    680.83373   -8682.8025   -8606.8545   -2440.4333    19609.674    37.373874 
    8170    689.77189   -8684.2839   -8607.3388   -2721.1511    19612.959    37.483349 
    8180    684.44048   -8684.1634   -8607.8131   -1955.8147     19612.47    37.586334 
    8190    663.33919   -8682.2344   -8608.2379   -789.04568    19609.265     37.68523 
    8200    681.67905   -8684.6605   -8608.6182   -352.68888    19604.862    37.784824 
    8210    690.58052   -8686.0185   -8608.9832     308.1232    19600.027    37.886335 
    8220    678.61371   -8685.0413   -8609.3409    1100.8134    19595.675    38.001245 
    8230    668.47322   -8684.2449   -8609.6757    1262.8142    19592.827    38.140202 
    8240    665.13595   -8684.1527   -8609.9558    1471.0593    19591.822    38.298176 
    8250    683.56275   -8686.4472   -8610.1947    1783.3563    19592.935     38.46356 
    8260    668.30371   -8684.9376   -8610.3874    2147.7556    19596.597    38.625463 
    8270    686.11693   -8687.0939   -8610.5565    1499.0369    19603.142    38.772632 
    8280    698.16426    -8688.622   -8610.7408    609.96299     19611.73    38.893889 
    8290     671.6064   -8685.8729   -8610.9542    477.32444    19621.231    38.990888 
    8300    664.63475   -8685.2969   -8611.1559   -57.739283    19631.269    39.077503 
    8310     660.7576   -8685.0258   -8611.3173   -573.50005    19641.127    39.163793 
    8320    656.88136   -8684.7103   -8611.4342   -466.76017    19650.181    39.254515 
    8330    666.33082   -8685.8473   -8611.5171    -829.8095    19658.392     39.34713 
    8340    657.40159    -8684.906   -8611.5719    -950.6632    19665.394    39.429033 
    8350    655.00028    -8684.659   -8611.5927   -1256.0219     19670.97    39.493404 
    8360    668.60676   -8686.1632   -8611.5791   -2106.5939    19674.616    39.532531 
    8370    667.76307   -8686.0375   -8611.5475   -2367.0597    19675.287    39.536456 
    8380    663.29587   -8685.4952   -8611.5036   -2104.4136      19672.6    39.506468 
    8390    666.50902   -8685.7836   -8611.4335   -1907.5771    19666.896    39.457125 
    8400    686.85728   -8687.9726   -8611.3526   -1991.5389    19658.466    39.402135 
    8410    685.01758   -8687.7059   -8611.2912   -2058.0626    19647.227     39.34193 
    8420    662.22801   -8685.1164   -8611.2439   -1669.7094    19633.171    39.270612 
    8430    672.35775   -8686.1855    -8611.183   -1292.6726    19616.815    39.187895 
    8440    664.66041   -8685.2326   -8611.0887   -676.77696    19598.755    39.097148 
    8450    659.79777   -8684.5559   -8610.9545    320.33326    19579.908    39.001662 
    8460    669.80239   -8685.4797   -8610.7622    960.68414    19561.581    38.911704 
    8470    677.93813   -8686.1499   -8610.5249    1315.0752    19544.711    38.840948 
    8480    681.08673   -8686.2353   -8610.2591    1261.1908    19529.762    38.798255 
    8490    688.10213   -8686.7223   -8609.9635    1291.1971    19516.722    38.778187 
    8500    722.49212   -8690.2527   -8609.6576    1069.9405    19505.533    38.765375 
    8510    719.65614   -8689.6645   -8609.3857    1769.6619    19496.056    38.749576 
    8520    703.21702   -8687.6225   -8609.1776    2229.3881    19489.077    38.731992 
    8530    716.88327   -8688.9924    -8609.023    2210.9299    19485.204    38.711838 
    8540    715.96754   -8688.8018   -8608.9346    3001.6081    19484.584    38.696263 
    8550    714.94147   -8688.6968    -8608.944    3380.6417    19488.146    38.707819 
    8560    713.77437    -8688.692   -8609.0694    3016.3055    19496.388     38.76405 
    8570    702.02752   -8687.6235   -8609.3112    2261.8502    19508.832    38.860892 
[...]
   22890    685.84368   -8824.5701   -8748.0632   -3283.2285    18526.189    80.218864 
   22900    693.27051   -8824.7878   -8747.4524   -2601.2769    18514.602    80.128876 
   22910    687.06194   -8823.4977   -8746.8549   -1501.1809     18499.89    79.989667 
   22920    672.67198   -8821.3213   -8746.2837   -505.55649    18483.431    79.789781 
   22930    681.91467   -8821.7867   -8745.7181    106.43329    18466.457    79.536315 
   22940    701.33346   -8823.3962   -8745.1614    1332.2371    18449.882    79.239308 
   22950     720.5924   -8825.0713   -8744.6881    2590.9792    18435.174    78.907822 
   22960    715.49659   -8824.1705   -8744.3558    3927.7357    18423.923    78.564496 
   22970    695.88238   -8821.7797    -8744.153    4814.0934    18417.713    78.259567 
   22980    702.77541   -8822.4466   -8744.0509    4597.4831    18417.509    78.032249 
   22990    713.36622   -8823.6227   -8744.0457     3989.418    18423.049    77.867865 
   23000    688.73674   -8820.9419   -8744.1123    3566.1309    18433.572    77.735993 
   23010    699.50864   -8822.2464   -8744.2152    2425.3751    18448.366    77.623999 
   23020     696.5369   -8822.0274   -8744.3276    1309.6995    18466.057    77.532009 
   23030    672.18261   -8819.4155   -8744.4325    300.45011    18485.223    77.464331 
   23040    689.61065   -8821.4508   -8744.5237   -1582.9281    18504.417    77.417738 
   23050    686.44648   -8821.1804   -8744.6062   -3253.3334    18521.375    77.372168 
   23060    683.95387   -8820.9808   -8744.6847   -4080.7838     18534.09    77.310071 
   23070    714.02111   -8824.4403   -8744.7901   -4715.9684    18541.448    77.228719 
   23080     708.4472   -8824.0009   -8744.9725   -4437.8372      18542.8    77.131772 
   23090     691.3576   -8822.3604   -8745.2384   -3520.1744    18538.559    77.026198 
   23100     701.0883   -8823.7682   -8745.5608   -2824.6971    18529.896    76.916095 
   23110    700.95862   -8824.1377   -8745.9447   -1292.6207    18517.884    76.804349 
   23120    684.47031   -8822.7085   -8746.3548    1039.8654    18504.503    76.701567 
   23130    686.69929   -8823.3762   -8746.7738    2237.5097    18492.513    76.625183 
   23140    683.50725     -8823.45   -8747.2038    2383.9158    18483.416    76.591204 
   23150     691.7682   -8824.8232   -8747.6554    2499.6728    18477.469    76.615496 
   23160    698.72645   -8826.0819   -8748.1379    2225.1018    18474.717    76.703547 
   23170    702.21788   -8826.9994   -8748.6659    1611.2909    18474.756    76.841236 
   23180     692.4919   -8826.4745    -8749.226    1720.5559    18476.941    77.009549 
   23190    687.26618   -8826.4572   -8749.7916    1914.8973    18481.316    77.198808 
   23200     674.7817   -8825.6057   -8750.3328    1293.8119    18487.972    77.401289 
   23210    673.10977   -8825.9099   -8750.8235    309.44338    18496.132    77.617769 
   23220    698.98911   -8829.2786   -8751.3053   -278.52714    18504.622    77.856128 
   23230    682.41631   -8827.9097   -8751.7851   -166.59314    18512.734    78.112296 
   23240    672.23449   -8827.2281   -8752.2393   -387.38515    18520.488    78.384429 
   23250    664.78792   -8826.7985   -8752.6404   -423.09082    18527.707    78.665528 
   23260    646.39579   -8825.0628   -8752.9563   -685.23123    18534.286     78.92947 
   23270    661.50289   -8826.9916      -8753.2   -1505.6119    18539.851     79.14935 
   23280    654.84031   -8826.4419   -8753.3935   -1309.6411    18543.562    79.320152 
   23290    642.09187   -8825.1611   -8753.5348   -519.52093    18545.637    79.463125 
   23300    657.89652   -8827.0121   -8753.6228   -342.43154    18546.967     79.59842 
   23310    664.25393   -8827.7721   -8753.6736   -396.41161    18547.849    79.725852 
   23320    654.39684   -8826.6992   -8753.7003   -433.31327    18548.228    79.834861 
   23330    639.13725   -8824.9761   -8753.6794   -153.08156    18548.083     79.92129 
   23340     649.5681   -8826.0527   -8753.5924    550.34005    18547.814    79.995473 
   23350     671.6241   -8828.3743   -8753.4536    972.89829    18548.211    80.076923 
   23360    660.81861   -8826.9988   -8753.2835    1401.6759    18549.865    80.178222 
   23370    675.44216   -8828.4396    -8753.093    1522.3066    18553.262    80.297102 
   23380    694.43353   -8830.3587   -8752.8936     1164.269    18558.505    80.434275 
   23390    671.72685   -8827.6439   -8752.7118    995.53676    18565.236     80.57852 
   23400    674.03476   -8827.7268   -8752.5373     229.2188    18573.108    80.709489 
   23410    680.64053   -8828.2725   -8752.3461   -307.77563    18581.255    80.820158 
   23420    679.22983   -8827.9203   -8752.1512   -760.46039    18588.946    80.916657 
   23430    670.11045   -8826.7046   -8751.9527   -1011.7976    18595.626    81.012478 
   23440    642.58811   -8823.4031   -8751.7214    -711.6754    18601.054    81.112328 
   23450    668.17045   -8825.9608   -8751.4254    -1794.512    18605.358    81.206022 
   23460    688.46439   -8827.8708   -8751.0716   -2693.9799    18607.374    81.269559 
   23470    655.76572   -8823.8672   -8750.7155   -2283.5152    18606.069    81.287367 
   23480    659.44052   -8823.8995   -8750.3379   -2042.8683    18601.806    81.274585 
   23490    671.54902   -8824.8256   -8749.9133   -1842.3028    18594.964    81.253416 
   23500    655.06119   -8822.5335   -8749.4604   -965.37072     18585.92    81.228976 
   23510     682.1381   -8825.0627   -8748.9692   -415.78361    18575.673     81.19509 
   23520     699.5226    -8826.481   -8748.4482    229.52884    18565.002    81.154027 
   23530    702.39004   -8826.3295   -8747.9768    1217.5714     18554.74    81.108832 
   23540    699.96896   -8825.6599   -8747.5773    2186.6098    18546.114    81.057713 
   23550    684.18024   -8823.5733    -8747.252    2261.3204    18540.213     81.00134 
   23560    698.03694    -8824.851   -8746.9839    1090.0522    18537.087    80.945471 
   23570    717.14776   -8826.7811   -8746.7822    86.850061     18535.41    80.896539 
   23580    679.52393   -8822.4606   -8746.6587     363.2511    18534.001    80.866717 
   23590    665.46093   -8820.7997   -8746.5665    773.50594     18533.09    80.869756 
   23600    687.92272   -8823.2111   -8746.4722    447.70233    18533.082    80.911158 
   23610    687.02367   -8823.0353   -8746.3968    119.81624    18533.638    80.988347 
   23620    676.08591   -8821.7675   -8746.3491   -31.287766    18534.369    81.087325 
   23630     680.0725   -8822.1676   -8746.3045   -613.40776    18535.009    81.192409 
   23640    695.70134   -8823.8827   -8746.2762   -1011.6824    18534.879    81.292948 
   23650    683.62377   -8822.5391   -8746.2798   -874.50825    18533.517    81.385269 
   23660     684.1512   -8822.6331    -8746.315   -934.58811    18531.037    81.465451 
   23670    694.12201   -8823.8106   -8746.3803   -1296.2337    18527.356    81.531953 
   23680    695.75388   -8824.1058   -8746.4934   -1532.6321    18522.054    81.586131 
   23690    699.83054   -8824.7342   -8746.6671   -1405.2438    18514.865    81.625837 
   23700    697.65338   -8824.7256   -8746.9013   -689.77775    18505.974    81.645116 
   23710    691.83627   -8824.3726   -8747.1972    304.15768    18496.269      81.6477 
   23720    679.85001   -8823.3847   -8747.5464      496.385    18486.884    81.645567 
   23730    676.99574    -8823.465   -8747.9451    585.56865    18478.181    81.649255 
   23740    680.43944   -8824.3002   -8748.3962     502.9544    18470.217    81.663646 
   23750    691.03284   -8826.0222   -8748.9364     294.6275    18462.909     81.68049 
   23760    677.19131   -8825.1244   -8749.5827    207.11034    18456.028    81.688878 
   23770    653.24587   -8823.1649   -8750.2943   -283.69255    18449.355    81.680044 
   23780    651.29115   -8823.6712   -8751.0187   -570.08855    18442.389    81.642714 
   23790    678.22312   -8827.4226   -8751.7657    -791.1498    18434.697    81.572613 
   23800    683.72927   -8828.8086   -8752.5376    -16.51666     18426.14    81.468019 
   23810    677.47542   -8828.8577   -8753.2843    1009.1332      18417.6     81.33642 
   23820    673.27917   -8829.0482   -8753.9429    2030.5341    18410.342     81.19169 
   23830    668.94153   -8829.0929   -8754.4715    2979.3707    18405.648    81.048618 
   23840    671.45775   -8829.7847   -8754.8825    3215.0764    18404.611    80.911764 
   23850    658.40629   -8828.6396   -8755.1934    3357.8604    18407.643    80.778688 
   23860    649.92466   -8827.9103   -8755.4102    2970.9307     18414.84    80.654679 
   23870    647.59296    -8827.776   -8755.5361    2385.0988    18425.792    80.547561 
   23880    653.70145   -8828.5071   -8755.5857    1116.1992    18439.659    80.467988 
   23890    663.09667   -8829.5502   -8755.5807    380.35444    18454.997    80.423079 
   23900    673.26433   -8830.6498   -8755.5462   -36.246254    18470.859    80.415564 
   23910    684.17516   -8831.8306   -8755.5099   -1108.5271    18486.587    80.445277 
   23920    660.12329    -8829.108   -8755.4703   -2206.1033    18500.903    80.505858 
   23930    650.53625   -8827.9597   -8755.3914   -3250.5012    18512.392    80.588187 
   23940    675.74751   -8830.6553   -8755.2746   -4051.0197    18519.727    80.681936 
   23950     650.6392   -8827.7197   -8755.1399   -3486.9285    18522.052    80.775532 
   23960    646.05717   -8827.0543   -8754.9857    -3045.298    18519.863    80.863466 
   23970    667.01407   -8829.1892   -8754.7827   -2647.7497    18513.792    80.947943 
   23980    674.08187   -8829.7373   -8754.5425   -1563.4197    18504.467    81.039577 
   23990    686.87211   -8830.9128   -8754.2912   -801.22305    18493.153    81.148327 
   24000    663.69611   -8828.0641   -8754.0278    126.66843    18480.944    81.259713 
   24010    656.99765   -8827.0363   -8753.7473     837.3386    18468.973    81.349218 
   24020    682.04048   -8829.5201   -8753.4375    980.91403    18458.075    81.411747 
   24030     693.2856   -8830.4736   -8753.1366    1232.0295    18448.513    81.452788 
   24040    688.29647   -8829.6667   -8752.8862    1327.1077    18440.542    81.477829 
   24050    689.25732   -8829.5761   -8752.6884    1260.2976    18434.257    81.494198 
   24060    683.25368   -8828.7442   -8752.5263    1937.7489    18429.709    81.515699 
   24070    666.08232   -8826.7008   -8752.3983    3238.4727    18427.683    81.554889 
   24080     642.3673   -8823.9311    -8752.274     4385.135    18429.735    81.621542 
   24090    671.34519   -8827.0052   -8752.1156     3746.567    18437.105     81.70979 
   24100    696.61255   -8829.6144   -8751.9062    2343.4038    18449.057    81.789934 
   24110    685.31397   -8828.1346   -8751.6868    1751.9199    18464.013    81.834609 
   24120    687.02804   -8828.0995   -8751.4605    1006.3767    18481.085    81.855969 
   24130    683.36959   -8827.4447   -8751.2138   -165.33641    18499.262    81.892086 
   24140    673.02883   -8826.0297   -8750.9524   -1671.7528    18517.033    81.955423 
   24150    684.92675   -8827.0854   -8750.6808   -3525.8041    18532.455     82.01942 
   24160     674.0386   -8825.6025   -8750.4124   -4737.9344    18543.299    82.047064 
   24170    660.47371   -8823.8268   -8750.1499   -4837.9938    18548.146    82.024083 
   24180    682.94241   -8826.0542    -8749.871   -4428.9045    18546.822     81.95943 
   24190    684.07113   -8825.8922    -8749.583   -3243.4678    18539.955    81.862683 
   24200    688.07661   -8826.0646   -8749.3086    -2027.212    18529.047    81.741272 
   24210    705.31694   -8827.7459   -8749.0667   -1360.8556    18515.611     81.60755 
   24220    686.24775   -8825.4231   -8748.8711   -3.8882096    18500.714    81.473055 
   24230     684.3591   -8825.0471   -8748.7059     1424.714    18485.979    81.350555 
   24240    696.80891   -8826.2786   -8748.5485    2679.0724    18473.189    81.252724 
   24250    714.94602   -8828.1909   -8748.4376     3483.484    18463.842    81.196774 
   24260     714.9227    -8828.162   -8748.4113     4325.479    18458.987    81.199341 
   24270    693.74559   -8825.8615   -8748.4731    4564.1941    18459.583     81.26982 
   24280    693.64199   -8825.9744   -8748.5976    3202.1349    18465.755    81.403825 
   24290    698.60998   -8826.6838   -8748.7528    1629.2553    18475.903     81.57423 
   24300    702.17572   -8827.2858   -8748.9571    412.85428    18488.047    81.742732 
   24310    711.19495   -8828.5989    -8749.264   -588.25256    18500.639    81.881716 
   24320    688.73774   -8826.5238    -8749.694   -1450.2566     18512.36    81.973519 
   24330     657.5501   -8823.5488   -8750.1981   -1922.1404    18522.182    82.006748 
   24340    661.27522   -8824.4934   -8750.7272   -3027.4837    18529.363    81.995003 
   24350    670.57492   -8826.0867   -8751.2831   -3436.6295    18532.713    81.962438 
   24360    669.40067   -8826.5398   -8751.8672   -3119.2802    18531.724     81.92448 
   24370      668.309   -8827.0094   -8752.4586   -2072.7846    18526.857    81.871404 
   24380    662.49257   -8826.9253   -8753.0232    -494.0166    18519.486    81.784824 
   24390    661.03712    -8827.277   -8753.5374    835.10306     18511.56    81.675449 
   24400    661.55766   -8827.7879   -8753.9901    1388.1824    18504.682    81.573054 
   24410    655.13066   -8827.4619   -8754.3811    1690.2508    18499.627    81.489553 
   24420    644.19954   -8826.5629   -8754.7015    1571.6711    18496.715    81.416127 
   24430    647.36397   -8827.1591   -8754.9447    1041.4035     18495.79     81.33907 
   24440    663.81772    -8829.171   -8755.1212    359.87371    18496.181    81.247927 
   24450    662.65771   -8829.1576   -8755.2372   -82.455739    18497.062     81.14401 
   24460    678.36378   -8830.9884   -8755.3159    -801.0302    18497.804    81.038388 
   24470    692.99021   -8832.6964   -8755.3923   -1661.7264    18497.528    80.942082 
   24480    693.99977   -8832.9232   -8755.5065   -2137.2489    18495.186    80.855899 
   24490    687.20021   -8832.3163    -8755.658   -1960.3745    18490.226    80.776815 
   24500    674.52227   -8831.0695   -8755.8255   -1491.9997    18482.857    80.694995 
   24510    675.93427   -8831.3929   -8755.9915   -812.10159    18473.708    80.590053 
   24520    684.17434   -8832.4826    -8756.162    253.91507    18463.679    80.455167 
   24530    677.93206   -8831.9591   -8756.3348    1145.0137    18454.035    80.309215 
   24540    681.25622    -8832.509   -8756.5138    1140.1111    18445.814    80.173313 
   24550    671.03177   -8831.5483   -8756.6937    795.87365     18439.09    80.052514 
   24560     672.7601   -8831.9193   -8756.8719    287.52565    18433.391     79.94505 
   24570    679.89026   -8832.8914   -8757.0486    11.296782    18428.123    79.854187 
   24580    680.26997     -8833.12   -8757.2349     238.8118    18422.954     79.78625 
   24590    667.79052   -8831.9205   -8757.4274    1240.3591     18418.21    79.743749 
   24600    648.44075   -8829.9358   -8757.6013    1986.7345    18415.007    79.720283 
   24610    644.57159   -8829.6319   -8757.7289    1752.4602     18414.22    79.709364 
   24620    659.49437   -8831.3737   -8757.8061    807.26736    18415.585    79.712828 
   24630    667.35303   -8832.2928   -8757.8485   -47.200747    18417.948    79.728861 
   24640    662.46121   -8831.7623   -8757.8637   -737.79952    18420.256    79.752407 
   24650    664.51177   -8831.9816   -8757.8543   -1486.5226    18421.624    79.780683 
   24660    666.23128   -8832.1426   -8757.8235   -1708.8143    18421.194    79.804239 
   24670    666.11642   -8832.0847   -8757.7784   -1494.6549    18418.669    79.808104 
   24680    663.19085   -8831.6884   -8757.7084   -1474.0902    18414.221     79.78411 
   24690    669.86365   -8832.3139   -8757.5896   -1444.1723    18407.935    79.732868 
   24700    680.36566   -8833.3054   -8757.4096   -1141.3062    18399.853    79.668194 
   24710    679.96005   -8833.0221   -8757.1716     11.95638    18390.471    79.602896 
   24720    661.55025   -8830.6601   -8756.8631     1155.138    18381.122    79.535887 
   24730    673.65692   -8831.6039   -8756.4564    1797.8375    18373.197     79.46228 
   24740    702.35333   -8834.3007   -8755.9521    2005.0825    18367.491    79.392673 
   24750    687.48806   -8832.1034    -8755.413    2732.7386     18364.39    79.346651 
   24760    670.36137   -8829.6532   -8754.8734    3423.0746    18364.741    79.330471 
   24770     660.0957   -8827.9422   -8754.3076    3646.6468     18369.35    79.347689 
   24780    668.46383   -8828.2744   -8753.7062    3293.9741    18378.492    79.406505 
   24790    703.42057   -8831.5532   -8753.0855    1968.1189    18391.688    79.508731 
   24800     716.8578   -8832.4759   -8752.5093    605.77347    18407.385    79.641471 
   24810    693.95396   -8829.4533   -8752.0417    206.14558    18423.974    79.781212 
   24820    690.41974   -8828.6792   -8751.6618   -892.64088    18440.726     79.90737 
   24830    680.05352   -8827.1821   -8751.3211   -2251.3703    18456.348    80.014969 
   24840    667.91873   -8825.5103    -8751.003   -3422.0089    18469.152    80.106987 
   24850    696.68074   -8828.4159   -8750.7001   -4344.6916    18477.645    80.180528 
   24860    715.09805   -8830.2269   -8750.4566   -3901.2332    18480.786    80.229589 
   24870    690.81214   -8827.3639   -8750.3027   -2220.5611     18479.12    80.266101 
   24880    710.58714   -8829.4862   -8750.2192   -800.68396    18474.602    80.312405 
   24890    721.37414   -8830.6788   -8750.2084   -508.04491    18468.926    80.374766 
   24900    706.08747   -8829.0582    -8750.293   -746.82506    18462.565    80.433411 
   24910    707.90681   -8829.4294   -8750.4614   -1305.4885    18455.185    80.462811 
   24920    707.34085   -8829.6147   -8750.7098   -1158.6468    18446.234    80.448942 
   24930    702.98061   -8829.4511   -8751.0325   -383.25972    18435.892     80.39885 
   24940    706.18419   -8830.2035   -8751.4276    563.71572     18425.05    80.341107 
   24950    698.30967   -8829.7832   -8751.8857    1740.2139     18414.95    80.309435 
   24960    691.74595   -8829.5532   -8752.3879    2795.5201    18407.044    80.314595 
   24970    690.09314   -8829.8944   -8752.9135    2791.3697    18402.519    80.346534 
   24980    702.11816   -8831.7911   -8753.4687    2502.8668     18401.46    80.382727 
   24990    696.97917   -8831.7999   -8754.0508    3183.0749    18403.675    80.412541 
   25000    690.78768   -8831.6892   -8754.6308    3683.3867    18409.908    80.449891 
Loop time of 12973.9 on 16 procs for 20000 steps with 864 atoms

Performance: 0.133 ns/day, 180.193 hours/ns, 1.542 timesteps/s
95.5% CPU use with 16 MPI tasks x 1 OpenMP threads

MPI task timing breakdown:
Section |  min time  |  avg time  |  max time  |%varavg| %total
---------------------------------------------------------------
Pair    | 3081.3     | 7073.8     | 12813      |4128.5 | 54.52
Bond    | 0.0022449  | 0.0045732  | 0.0084925  |   2.6 |  0.00
Neigh   | 0.16208    | 0.34339    | 0.64809    |  30.4 |  0.00
Comm    | 91.792     | 4315.9     | 8701.1     |4518.5 | 33.27
Output  | 1.8626     | 1.8858     | 2.2238     |   6.4 |  0.01
Modify  | 8.0206     | 1581.9     | 6123.9     |4898.3 | 12.19
Other   |            | 0.08831    |            |       |  0.00

Nlocal:        54.0000 ave          86 max          26 min
Histogram: 1 4 3 1 1 0 0 2 0 4
Nghost:        532.875 ave         734 max         351 min
Histogram: 4 1 1 2 0 2 0 2 2 2
Neighs:         0.00000 ave           0 max           0 min
Histogram: 16 0 0 0 0 0 0 0 0 0
FullNghs:      2826.00 ave        5999 max         754 min
Histogram: 5 3 1 1 0 0 2 0 2 2

Total # of neighbors = 45216
Ave neighs/atom = 52.333333
Ave special neighs/atom = 0.0000000
Neighbor list builds = 2000
Dangerous builds = 2000
Total wall time: 4:30:45
