LAMMPS (29 Sep 2021 - Update 3)
OMP_NUM_THREADS environment is not set. Defaulting to 1 thread. (src/comm.cpp:98)
  using 1 OpenMP thread(s) per MPI task
units	metal
atom_style	full

read_data	mixed.data
Reading data file ...
  orthogonal box = (0.0000000 0.0000000 0.0000000) to (16.534670 17.767358 74.594796)
  1 by 2 by 8 MPI processor grid
  reading atoms ...
  864 atoms
Finding 1-2 1-3 1-4 neighbors ...
  special bond factors lj:    0        0        0       
  special bond factors coul:  0        0        0       
     0 = max # of 1-2 neighbors
     0 = max # of 1-3 neighbors
     0 = max # of 1-4 neighbors
     1 = max # of special neighbors
  special bonds CPU = 0.001 seconds
  read_data CPU = 0.008 seconds

pair_style	quip
pair_coeff	* * /ocean/projects/cts180021p/wuziqi/clease/mint-PD/PhaseDiagram-Clease/Liquid/GAP_potential/gap_LiKCl.xml "Potential xml_label=GAP_2021_9_27_0_1_17_37_618" 17 19 3

neighbor	0.3 bin
neigh_modify	delay 10

timestep	0.001
compute	msd all msd
thermo_style	custom step temp pe etotal press vol c_msd[4]
thermo	10
dump	1 all custom 10 xyz-mix.dump type id x y z
dump	2 all custom 10 force-mix.dump type id fx fy fz

fix     1 all nve
run     2000
Neighbor list info ...
  update every 1 steps, delay 10 steps, check yes
  max neighbors/atom: 2000, page size: 100000
  master list distance cutoff = 6.22
  ghost atom cutoff = 6.22
  binsize = 3.11, bins = 6 6 24
  1 neighbor lists, perpetual/occasional/extra = 1 0 0
  (1) pair quip, perpetual
      attributes: full, newton on
      pair build: full/bin
      stencil: full/bin/3d
      bin: standard
Per MPI rank memory allocation (min/avg/max) = 8.894 | 8.906 | 8.915 Mbytes
Step Temp PotEng TotEng Press Volume c_msd[4] 
       0            0   -8413.4292   -8413.4292   -12531.916    21914.265            0 
      10    63.367096   -8420.5059   -8413.4372   -13062.757    21914.265 0.00028900792 
      20    162.23389   -8431.5423   -8413.4448   -13580.932    21914.265 0.0035442006 
      30    203.76318   -8436.1707   -8413.4406   -13263.999    21914.265  0.011998633 
      40     225.5427      -8438.6   -8413.4404   -13091.981    21914.265  0.023619499 
      50    238.39464   -8440.0352   -8413.4419   -13192.953    21914.265  0.036411648 
      60    237.91747   -8439.9798   -8413.4397    -13151.82    21914.265  0.049420327 
      70    242.25882   -8440.4649   -8413.4405   -12986.142    21914.265  0.062561747 
      80    243.33226   -8440.5825   -8413.4384   -12841.846    21914.265  0.075987004 
      90     256.1439    -8442.014   -8413.4408   -12985.089    21914.265  0.088683986 
     100    260.92723   -8442.5467   -8413.4399   -13129.532    21914.265   0.10092572 
     110    263.36735   -8442.8185   -8413.4395   -13314.209    21914.265   0.11296329 
     120    267.45703   -8443.2754   -8413.4402   -13403.997    21914.265   0.12509928 
     130    267.20277   -8443.2463   -8413.4395   -13198.457    21914.265   0.13819283 
     140    269.21359   -8443.4705   -8413.4393   -12839.711    21914.265   0.15259322 
     150     276.3754   -8444.2699   -8413.4398   -12564.061    21914.265   0.16775295 
     160    282.09052   -8444.9077   -8413.4401   -12400.914    21914.265   0.18315323 
     170    283.74907   -8445.0928   -8413.4402     -12430.3    21914.265    0.1989762 
     180    279.57367   -8444.6271   -8413.4402   -12727.353    21914.265   0.21536827 
     190    272.01519   -8443.7829   -8413.4391   -12943.608    21914.265   0.23180139 
     200    272.98877   -8443.8921   -8413.4397   -13066.814    21914.265    0.2476891 
     210    278.28656   -8444.4833     -8413.44   -13119.162    21914.265   0.26290373 
     220    281.61115   -8444.8543   -8413.4402    -13052.65    21914.265   0.27743582 
     230    283.45537   -8445.0589    -8413.439   -12948.839    21914.265   0.29133107 
     240    292.81696   -8446.1046   -8413.4404   -13016.029    21914.265    0.3048675 
     250    295.20203   -8446.3705   -8413.4402   -13077.887    21914.265   0.31931215 
     260    290.46684   -8445.8415   -8413.4394   -13040.528    21914.265   0.33532684 
     270    290.61991    -8445.858   -8413.4389   -13235.455    21914.265   0.35239777 
     280    301.25443   -8447.0456   -8413.4402   -13515.282    21914.265   0.36952956 
     290    308.28623   -8447.8304   -8413.4406   -13611.572    21914.265   0.38667041 
     300    309.20907   -8447.9319   -8413.4392   -13455.868    21914.265    0.4041006 
     310     314.5316   -8448.5273   -8413.4408   -13198.597    21914.265   0.42152557 
     320    312.09261   -8448.2546   -8413.4402   -12968.083    21914.265   0.43866959 
     330    305.84421   -8447.5573   -8413.4399   -12657.381    21914.265   0.45536472 
     340    303.20988   -8447.2632   -8413.4397   -12498.026    21914.265   0.47172581 
     350    307.13857   -8447.7018     -8413.44   -12492.368    21914.265   0.48754232 
     360    312.15901   -8448.2619   -8413.4401   -12369.505    21914.265   0.50223919 
     370     318.6847   -8448.9898     -8413.44   -12195.898    21914.265   0.51545083 
     380    326.66636   -8449.8808   -8413.4407   -12030.164    21914.265   0.52751087 
     390    328.67292   -8450.1043   -8413.4403   -11786.931    21914.265   0.53983918 
     400    329.42172   -8450.1875     -8413.44   -11529.418    21914.265   0.55338123 
     410    329.12824   -8450.1558   -8413.4411   -11363.621    21914.265   0.56856317 
     420    321.17839   -8449.2675   -8413.4396   -11329.503    21914.265   0.58578319 
     430    319.73313   -8449.1067     -8413.44   -11645.546    21914.265   0.60460993 
     440    321.87014   -8449.3455   -8413.4404   -12168.872    21914.265   0.62482739 
     450    321.69175   -8449.3257   -8413.4405   -12517.526    21914.265   0.64605131 
     460    321.58625   -8449.3131   -8413.4397   -12738.117    21914.265   0.66602281 
     470    327.73765   -8450.0009   -8413.4413    -13118.13    21914.265   0.68222539 
     480    325.78012   -8449.7811   -8413.4399   -13518.975    21914.265   0.69547134 
     490    325.26696   -8449.7242   -8413.4402   -13912.333    21914.265   0.70709849 
     500    326.02809   -8449.8096   -8413.4407    -14245.82    21914.265    0.7181905 
     510     321.8067   -8449.3384   -8413.4404   -14358.421    21914.265   0.73031831 
     520    314.82643   -8448.5595   -8413.4401   -14393.561    21914.265   0.74493886 
     530    311.55922   -8448.1945   -8413.4396    -14504.26    21914.265   0.76206346 
     540    316.52181   -8448.7487   -8413.4402   -14692.451    21914.265   0.78048733 
     550    323.45997   -8449.5224     -8413.44   -14675.954    21914.265   0.79880458 
     560    332.20295   -8450.4987   -8413.4409    -14432.97    21914.265   0.81596428 
     570    332.37528   -8450.5179   -8413.4409   -14008.452    21914.265   0.83234674 
     580    324.44532    -8449.632   -8413.4397   -13682.622    21914.265   0.84880328 
     590    322.54654   -8449.4211   -8413.4405   -13611.186    21914.265   0.86493346 
     600    320.03229     -8449.14   -8413.4399   -13618.158    21914.265   0.88136827 
     610     322.0694   -8449.3667   -8413.4393   -13770.866    21914.265   0.89972436 
     620    332.97088   -8450.5844    -8413.441   -14040.679    21914.265   0.91979176 
     630    336.52886   -8450.9806   -8413.4403   -14106.634    21914.265    0.9400978 
     640    340.63169   -8451.4378   -8413.4399   -14084.373    21914.265   0.95883362 
     650     349.6267   -8452.4431   -8413.4417   -14126.089    21914.265   0.97518253 
     660     345.3101   -8451.9607   -8413.4408    -13925.09    21914.265   0.98949595 
     670    335.30236   -8450.8431   -8413.4396   -13541.064    21914.265    1.0025057 
     680    335.35657   -8450.8495     -8413.44   -13120.509    21914.265    1.0157598 
     690    342.86707   -8451.6878   -8413.4405   -12807.122    21914.265    1.0306556 
     700    350.61517   -8452.5527    -8413.441   -12613.893    21914.265    1.0481195 
     710    351.61871   -8452.6647   -8413.4411    -12558.63    21914.265     1.067876 
     720    346.37378   -8452.0785     -8413.44   -12478.274    21914.265    1.0873947 
     730    347.79156   -8452.2373   -8413.4406   -12593.955    21914.265    1.1041491 
     740    351.02442    -8452.599   -8413.4417   -12781.856    21914.265    1.1188548 
     750    344.89782   -8451.9145   -8413.4406   -12888.282    21914.265     1.133643 
     760      340.342   -8451.4064   -8413.4407   -13050.736    21914.265    1.1491825 
     770    340.04955   -8451.3737   -8413.4407   -13326.749    21914.265    1.1643304 
     780      345.357   -8451.9656   -8413.4405   -13558.373    21914.265    1.1777023 
     790    357.12317   -8453.2788   -8413.4411   -13831.043    21914.265    1.1886997 
     800    366.64045   -8454.3407   -8413.4414   -14129.874    21914.265    1.1976392 
     810    368.68447   -8454.5688   -8413.4415   -14063.484    21914.265    1.2056605 
     820    366.60174   -8454.3361   -8413.4411   -13908.726    21914.265    1.2141717 
     830    365.85586   -8454.2531   -8413.4413   -13853.131    21914.265    1.2243585 
     840     368.4524   -8454.5423   -8413.4409   -13972.673    21914.265    1.2365636 
     850    371.87492   -8454.9262    -8413.443    -14131.16    21914.265    1.2503596 
     860     358.1746   -8453.3954   -8413.4405     -13818.7    21914.265    1.2649975 
     870    354.45705   -8452.9806   -8413.4404   -13465.958    21914.265     1.278191 
     880    366.65296   -8454.3425   -8413.4418   -13399.092    21914.265    1.2880847 
     890    376.93995   -8455.4909   -8413.4426    -13274.53    21914.265    1.2959326 
     900    375.96913   -8455.3817   -8413.4418   -13062.805    21914.265    1.3041818 
     910    374.01489   -8455.1632   -8413.4413   -12824.206    21914.265    1.3130528 
     920    378.94842   -8455.7136   -8413.4414   -12747.174    21914.265    1.3222121 
     930    388.54983   -8456.7859   -8413.4426   -12880.601    21914.265    1.3329508 
     940    389.80019   -8456.9258    -8413.443   -12981.003    21914.265    1.3457299 
     950    382.52604   -8456.1127   -8413.4413   -12918.004    21914.265    1.3587946 
     960    381.75271   -8456.0275   -8413.4424   -13120.356    21914.265    1.3710856 
     970    380.20365    -8455.854   -8413.4417   -13297.868    21914.265    1.3835601 
     980    384.06597   -8456.2848   -8413.4416    -13360.21    21914.265    1.3967998 
     990    391.39252    -8457.104   -8413.4436    -13319.56    21914.265    1.4114384 
    1000    385.55287   -8456.4508   -8413.4418   -13032.957    21914.265    1.4285977 
    1010    381.98963   -8456.0536   -8413.4421   -12900.345    21914.265    1.4480597 
    1020    382.08452   -8456.0644   -8413.4423   -12891.786    21914.265    1.4678099 
    1030    380.66666   -8455.9065   -8413.4425   -12820.478    21914.265    1.4859085 
    1040    378.02017   -8455.6107    -8413.442   -12814.774    21914.265    1.5012686 
    1050    381.70997   -8456.0224   -8413.4421   -12925.622    21914.265    1.5119118 
    1060    391.42566   -8457.1073   -8413.4432    -13146.33    21914.265    1.5173209 
    1070    396.24192   -8457.6441   -8413.4428   -13102.084    21914.265    1.5196151 
    1080    397.63032   -8457.7993    -8413.443   -12889.784    21914.265    1.5211703 
    1090    396.12759   -8457.6308   -8413.4422   -12537.537    21914.265    1.5231683 
    1100    400.33119   -8458.1002   -8413.4426   -12299.668    21914.265    1.5256834 
    1110    407.17314   -8458.8635   -8413.4428   -12099.612    21914.265    1.5296348 
    1120    413.19804   -8459.5369    -8413.444   -11926.861    21914.265    1.5369315 
    1130    409.94165   -8459.1721   -8413.4425   -11927.354    21914.265    1.5487344 
    1140    411.69689   -8459.3679   -8413.4425   -12274.932    21914.265    1.5644715 
    1150    417.92932   -8460.0654   -8413.4448   -12599.199    21914.265    1.5822789 
    1160    409.45399   -8459.1175   -8413.4423   -12608.558    21914.265    1.6004412 
    1170    405.75202   -8458.7057   -8413.4435   -12496.116    21914.265    1.6169469 
    1180    399.97271   -8458.0606    -8413.443   -12466.412    21914.265    1.6317671 
    1190    393.04741   -8457.2883   -8413.4433   -12618.331    21914.265    1.6460138 
    1200    381.93867   -8456.0489   -8413.4431   -12576.103    21914.265    1.6602667 
    1210    376.72969   -8455.4667   -8413.4419   -12745.258    21914.265    1.6726433 
    1220     387.4652   -8456.6661   -8413.4437   -13270.317    21914.265    1.6819979 
    1230    392.11995   -8457.1848   -8413.4433   -13698.725    21914.265    1.6894908 
    1240    392.35374   -8457.2109   -8413.4432   -14054.078    21914.265    1.6958816 
    1250    387.63167   -8456.6848   -8413.4439   -14383.659    21914.265    1.7022745 
    1260    377.01437   -8455.4984   -8413.4419   -14780.957    21914.265    1.7098627 
    1270    380.16106   -8455.8505   -8413.4429    -15291.91    21914.265    1.7186286 
    1280    386.65141    -8456.575   -8413.4435   -15684.863    21914.265    1.7280931 
    1290    386.45138   -8456.5524   -8413.4431   -15669.118    21914.265    1.7377267 
    1300    384.49318   -8456.3333   -8413.4425   -15192.167    21914.265    1.7465203 
    1310    389.16883   -8456.8559   -8413.4435   -14748.802    21914.265    1.7543822 
    1320    395.91985   -8457.6092   -8413.4437   -14540.669    21914.265    1.7626209 
    1330    402.24128   -8458.3144   -8413.4438   -14482.176    21914.265    1.7719127 
    1340    406.72312   -8458.8138   -8413.4433   -14593.779    21914.265    1.7822942 
    1350    413.88937   -8459.6138   -8413.4438   -14633.206    21914.265    1.7929881 
    1360    418.26368   -8460.1021   -8413.4441   -14272.723    21914.265    1.8043383 
    1370    412.53709   -8459.4628   -8413.4437   -13640.472    21914.265    1.8173742 
    1380    404.03017    -8458.513   -8413.4428   -13053.663    21914.265    1.8314414 
    1390    402.11865   -8458.3013   -8413.4444   -12796.252    21914.265    1.8446224 
    1400    396.75786   -8457.7017   -8413.4428   -12890.081    21914.265    1.8555613 
    1410     401.1626   -8458.1945   -8413.4442   -13251.623    21914.265    1.8625402 
    1420    405.53922    -8458.683   -8413.4445   -13540.901    21914.265    1.8651673 
    1430    404.12534   -8458.5245   -8413.4437   -13662.885    21914.265    1.8648977 
    1440    405.72045   -8458.7027    -8413.444   -13771.634    21914.265    1.8643414 
    1450    406.67484   -8458.8092    -8413.444   -13873.149    21914.265    1.8661066 
    1460    406.94702   -8458.8395   -8413.4439   -13898.845    21914.265    1.8707341 
    1470    405.99802   -8458.7335   -8413.4438    -13583.81    21914.265    1.8783175 
    1480    405.25435   -8458.6503   -8413.4436   -13097.342    21914.265    1.8881067 
    1490    408.19865    -8458.979   -8413.4439   -12662.726    21914.265    1.8977467 
    1500    414.56579   -8459.6887   -8413.4433   -12296.863    21914.265    1.9065246 
    1510    429.03716   -8461.3044   -8413.4447   -11735.577    21914.265    1.9156573 
    1520    435.43303   -8462.0188   -8413.4456   -11140.275    21914.265    1.9269758 
    1530    420.46896   -8460.3486   -8413.4446     -10759.3    21914.265    1.9420002 
    1540    404.55727   -8458.5707   -8413.4417   -10562.297    21914.265    1.9594173 
    1550     414.5371   -8459.6878   -8413.4456   -10873.945    21914.265    1.9756145 
    1560    415.64167   -8459.8093   -8413.4438    -11180.84    21914.265    1.9896674 
    1570    417.51903   -8460.0192   -8413.4444   -11574.862    21914.265      2.00287 
    1580    420.71133   -8460.3754   -8413.4444   -12084.028    21914.265    2.0173903 
    1590    422.23753   -8460.5459   -8413.4446   -12650.323    21914.265    2.0354221 
    1600    420.26548   -8460.3254   -8413.4441   -13157.964    21914.265    2.0567995 
    1610    418.97614   -8460.1816   -8413.4442   -13379.664    21914.265    2.0784503 
    1620    422.99101    -8460.629   -8413.4437   -13476.483    21914.265    2.0978277 
    1630    431.41255   -8461.5707    -8413.446   -13473.665    21914.265     2.115193 
    1640    426.28653   -8460.9963   -8413.4434   -13430.412    21914.265    2.1338075 
    1650    431.13487   -8461.5387    -8413.445   -13658.596    21914.265       2.1559 
    1660    436.17822   -8462.1019   -8413.4456   -13638.641    21914.265    2.1797337 
    1670    428.12023   -8461.2022   -8413.4447   -13252.346    21914.265    2.2035441 
    1680    422.66155   -8460.5919   -8413.4434   -13022.696    21914.265    2.2262152 
    1690    430.34848   -8461.4521    -8413.446   -12966.155    21914.265    2.2464937 
    1700    426.21611   -8460.9896   -8413.4446   -12849.343    21914.265    2.2649593 
    1710    421.63281   -8460.4781   -8413.4443    -12902.06    21914.265    2.2822078 
    1720    425.52952   -8460.9136   -8413.4451   -13254.993    21914.265    2.2992296 
    1730    433.21398   -8461.7705   -8413.4448   -13760.925    21914.265    2.3170264 
    1740    441.86781   -8462.7372   -8413.4461   -14050.542    21914.265    2.3352522 
    1750    438.27813    -8462.336   -8413.4454   -13921.401    21914.265    2.3528289 
    1760    429.17186   -8461.3192   -8413.4444   -13408.002    21914.265    2.3694072 
    1770    428.81898   -8461.2807   -8413.4453    -12917.73    21914.265    2.3858611 
    1780    433.34916   -8461.7857    -8413.445   -12638.931    21914.265    2.4026666 
    1790     441.0669   -8462.6474   -8413.4457   -12705.172    21914.265     2.419074 
    1800    447.24535   -8463.3359    -8413.445   -12842.309    21914.265    2.4345236 
    1810    451.04914   -8463.7611   -8413.4459   -13058.485    21914.265    2.4502124 
    1820    445.08252   -8463.0941   -8413.4445   -13035.825    21914.265    2.4671851 
    1830    441.70858   -8462.7187   -8413.4454   -12922.342    21914.265    2.4853863 
    1840    432.65555   -8461.7082   -8413.4449   -13058.866    21914.265    2.5046773 
    1850    428.24526   -8461.2146   -8413.4432   -13494.155    21914.265    2.5239509 
    1860    442.70809   -8462.8312   -8413.4464     -14052.9    21914.265    2.5417036 
    1870    445.34398   -8463.1238   -8413.4451   -14177.248    21914.265    2.5577578 
    1880    449.56383   -8463.5931   -8413.4436   -14088.107    21914.265    2.5732932 
    1890    469.70151   -8465.8424   -8413.4465   -13965.821    21914.265    2.5900107 
    1900    475.61979   -8466.5029   -8413.4468   -13338.709    21914.265    2.6092547 
    1910    460.77113   -8464.8444   -8413.4447   -12266.897    21914.265    2.6300063 
    1920    453.29076   -8464.0097   -8413.4444   -11600.031    21914.265    2.6488623 
    1930    455.01355   -8464.2038   -8413.4464   -11532.276    21914.265     2.664581 
    1940    446.57627   -8463.2611   -8413.4448   -11610.068    21914.265    2.6787843 
    1950    442.24787   -8462.7779   -8413.4445    -12067.88    21914.265     2.691974 
    1960    445.34565   -8463.1243   -8413.4453   -12574.104    21914.265    2.7033659 
    1970     445.3849   -8463.1293   -8413.4459   -12683.518    21914.265    2.7130116 
    1980    438.45896   -8462.3558    -8413.445   -12521.804    21914.265    2.7223802 
    1990    435.82997    -8462.062   -8413.4445   -12590.151    21914.265    2.7312795 
    2000    445.20858   -8463.1089   -8413.4452   -13039.215    21914.265    2.7384799 
Loop time of 1213.13 on 16 procs for 2000 steps with 864 atoms

Performance: 0.142 ns/day, 168.490 hours/ns, 1.649 timesteps/s
97.3% CPU use with 16 MPI tasks x 1 OpenMP threads

MPI task timing breakdown:
Section |  min time  |  avg time  |  max time  |%varavg| %total
---------------------------------------------------------------
Pair    | 451.56     | 713.88     | 1189.6     | 831.2 | 58.85
Bond    | 0.00027823 | 0.00061917 | 0.0011351  |   0.0 |  0.00
Neigh   | 0.017872   | 0.030121   | 0.055028   |   6.4 |  0.00
Comm    | 23.299     | 440.46     | 660.23     | 979.4 | 36.31
Output  | 0.16429    | 40.811     | 91.331     | 540.8 |  3.36
Modify  | 0.0091262  | 0.010498   | 0.012296   |   0.9 |  0.00
Other   |            | 17.94      |            |       |  1.48

Nlocal:        54.0000 ave          84 max          36 min
Histogram: 3 3 4 0 0 2 1 0 1 2
Nghost:        477.750 ave         592 max         348 min
Histogram: 2 0 2 1 3 3 1 0 0 4
Neighs:         0.00000 ave           0 max           0 min
Histogram: 16 0 0 0 0 0 0 0 0 0
FullNghs:      2234.12 ave        4892 max        1038 min
Histogram: 5 5 0 0 2 0 2 0 0 2

Total # of neighbors = 35746
Ave neighs/atom = 41.372685
Ave special neighs/atom = 0.0000000
Neighbor list builds = 199
Dangerous builds = 198
unfix   1

velocity    all create 862.5 1312343 dist gaussian
fix     2 all npt temp 862.5 862.5 $(100.0*dt) aniso 0.0 1.01325 $(1000.0*dt)
fix     2 all npt temp 862.5 862.5 0.10000000000000000555 aniso 0.0 1.01325 $(1000.0*dt)
fix     2 all npt temp 862.5 862.5 0.10000000000000000555 aniso 0.0 1.01325 1
run     3000
Per MPI rank memory allocation (min/avg/max) = 8.894 | 8.907 | 8.916 Mbytes
Step Temp PotEng TotEng Press Volume c_msd[4] 
    2000        862.5   -8463.1089   -8366.8958   -10770.358    21914.265    2.7384799 
    2010    782.45424   -8454.2488   -8366.9648   -9797.0411    21906.799    2.7401514 
    2020    678.96771   -8442.7771   -8367.0372   -8185.4428    21885.718    2.7427908 
    2030    669.26747   -8441.5939   -8366.9361   -7774.1016    21853.104    2.7419472 
    2040    666.09445   -8440.8736   -8366.5698   -6970.7667    21809.876    2.7379121 
    2050    667.65276   -8440.4496   -8365.9719   -6004.6692    21757.284    2.7331742 
    2060    684.26703   -8441.5776   -8365.2466   -5173.0404    21696.912    2.7305785 
    2070    677.67971   -8440.1238   -8364.5276   -3655.4899     21630.44    2.7315838 
    2080    680.86323   -8439.8005   -8363.8492   -2077.0961     21560.36    2.7349675 
    2090     695.0459   -8440.6831   -8363.1497   -1190.2603    21489.254    2.7395537 
    2100     701.6497   -8440.6737   -8362.4036   -961.16749    21418.822    2.7432224 
    2110    719.24247   -8441.8443   -8361.6117   -1188.0023    21349.818    2.7439577 
    2120    731.68336   -8442.3864    -8360.766   -1413.9708    21282.407    2.7442783 
    2130    735.03612   -8441.8804    -8359.886   -1710.2336    21216.642    2.7490663 
    2140    740.49604   -8441.5687   -8358.9652   -2252.0292    21152.447    2.7607634 
    2150    743.89775   -8440.9913   -8358.0084   -2483.5827    21089.491    2.7778219 
    2160    750.36579   -8440.7144     -8357.01   -2062.2055    21027.793    2.7954667 
    2170    760.13184    -8440.741   -8355.9472   -1165.6729    20968.066    2.8102159 
    2180    775.47382   -8441.3177   -8354.8124   -26.435861    20911.492    2.8218631 
    2190    804.97473   -8443.4255   -8353.6293    636.29512    20859.299    2.8324543 
    2200     825.1687   -8444.5144   -8352.4656    1020.9293    20812.043    2.8452833 
    2210    813.92205   -8442.1656   -8351.3713       1775.7    20769.866    2.8625964 
    2220    800.80788   -8439.6719   -8350.3406    2289.1127     20733.17    2.8826954 
    2230    812.41496   -8439.9534   -8349.3273     1873.762    20702.011     2.902254 
    2240    822.00662   -8439.9974   -8348.3013    1297.1124    20675.468      2.91824 
    2250    831.72635     -8440.04   -8347.2597    966.02722    20652.445    2.9321405 
    2260     832.1031   -8439.0266   -8346.2042    1406.5805    20632.305    2.9491842 
    2270    843.88978   -8439.2985   -8345.1613    1795.9359    20615.216    2.9708267 
    2280    864.61767   -8440.6066   -8344.1572    1442.0779     20601.31    2.9951743 
    2290    877.63504    -8441.139   -8343.2375    930.09215     20589.95    3.0199132 
    2300    861.15193   -8438.4796   -8342.4168    1515.5567    20580.486    3.0447782 
    2310     856.8016   -8437.2435    -8341.666    2256.1152    20573.377    3.0695648 
    2320    882.07699   -8439.3383   -8340.9413    2348.1875    20569.274    3.0950904 
    2330    903.09029   -8441.0044   -8340.2633    2441.9376     20568.21     3.124599 
    2340    889.50398   -8438.9068   -8339.6813    2815.7426    20570.186    3.1602513 
    2350    895.18284   -8439.0624   -8339.2034    2154.1903    20575.362    3.2000544 
    2360    921.98605   -8441.6645   -8338.8156    817.26558    20582.885    3.2437118 
    2370    913.52768    -8440.451   -8338.5456    4.6900165    20591.161     3.293173 
    2380    893.22049   -8438.0315   -8338.3915    -171.8636    20599.217    3.3474632 
    2390    912.94797    -8440.166   -8338.3252   -772.32487    20606.714    3.4025362 
    2400    926.71613   -8441.7567   -8338.3801   -928.31978    20613.069    3.4554085 
    2410    906.58498   -8439.7239   -8338.5929    -405.0968    20618.155    3.5085923 
    2420    890.81177   -8438.3003   -8338.9289    179.83369    20622.597    3.5652222 
    2430    900.37032   -8439.7857    -8339.348    -32.25617    20627.031    3.6272851 
    2440    919.37388   -8442.4345    -8339.877   -148.37212    20631.304    3.6951766 
    2450    921.92464   -8443.4019   -8340.5598    438.47431    20635.341    3.7644552 
    2460    924.14695   -8444.4828   -8341.3928    1142.5602    20639.817    3.8334705 
    2470    929.93831   -8446.0902   -8342.3542    1217.5452    20645.468    3.9034051 
    2480    928.99742   -8447.0755   -8343.4445    1188.2114    20652.404    3.9751641 
    2490    911.01191   -8446.2295   -8344.6047     1243.266    20660.584    4.0481293 
    2500    901.55086   -8446.3295   -8345.7601     968.2041    20669.973    4.1199115 
    2510    899.79729   -8447.2586   -8346.8849    593.79465    20680.183    4.1893031 
    2520    870.98097   -8445.1177   -8347.9585     1285.679    20690.875    4.2587894 
    2530    877.19947   -8446.8185   -8348.9656    2290.0049    20702.768    4.3296657 
    2540    902.46241   -8450.6339   -8349.9629    2621.3849     20716.94    4.4014748 
    2550    909.57085   -8452.4647   -8351.0007    2064.6308    20733.668    4.4761367 
    2560    896.42192   -8452.0533   -8352.0561    1333.0693    20752.232    4.5547478 
    2570    869.88892   -8450.0776   -8353.0402    744.12236    20771.669    4.6342814 
    2580    867.98252   -8450.7507    -8353.926     222.0086    20791.188    4.7105381 
    2590    878.12009   -8452.7143   -8354.7586   -306.58547    20810.103    4.7821877 
    2600    864.29756   -8451.9732   -8355.5595   -680.34858    20827.836    4.8503817 
    2610    861.51729   -8452.4238   -8356.3202   -1403.4179    20843.904    4.9157784 
    2620    880.27656   -8455.2668   -8357.0707   -2620.0933    20857.449    4.9795463 
    2630    865.17766   -8454.3469    -8357.835   -3092.7523    20867.219    5.0461591 
    2640    862.77196   -8454.8373   -8358.5937    -2946.899    20872.761    5.1158137 
    2650    891.77262   -8458.8426    -8359.364   -2242.0848    20874.472    5.1802909 
    2660    879.11159   -8458.2124   -8360.1462   -927.69914    20873.406    5.2355133 
    2670    869.49963    -8457.915   -8360.9211   -24.116234    20871.229    5.2869271 
    2680    870.56335   -8458.7923   -8361.6796   -218.15555    20868.993    5.3439755 
    2690    859.49641   -8458.2629   -8362.3848   -318.49668    20866.625    5.4106148 
    2700    882.77294   -8461.5399   -8363.0652    -950.4041    20863.901    5.4807978 
    2710    887.49558   -8462.7497   -8363.7482   -1031.5346    20860.214    5.5465622 
    2720    884.32157   -8463.0981   -8364.4507   -601.76812    20855.482    5.6044942 
    2730    863.39023   -8461.4654   -8365.1529    37.730464    20850.255    5.6546425 
    2740    841.72364   -8459.7039   -8365.8084    660.34129    20845.335    5.7005375 
    2750    847.52656   -8460.9591   -8366.4162    1069.3821     20841.44    5.7457247 
    2760    851.62022   -8461.9746    -8366.975    1429.7405    20839.049    5.7928024 
    2770    861.84415   -8463.6355   -8367.4955    1468.5643    20838.485    5.8412845 
    2780     861.0998   -8464.0456   -8367.9886    1541.3148    20839.769     5.889688 
    2790      855.509   -8463.8911   -8368.4578    1582.1992    20842.895    5.9376887 
    2800    869.69746   -8465.9297   -8368.9136    1360.1271    20847.813    5.9890313 
    2810    894.01111   -8469.1396   -8369.4114    532.29529    20854.136    6.0511553 
    2820    878.40011   -8467.9471   -8369.9602   -253.10782    20860.852    6.1263247 
    2830     876.2846   -8468.2788    -8370.528   -505.89219    20867.033    6.2059257 
    2840    891.84981   -8470.6064   -8371.1192   -628.32931    20872.321    6.2797359 
    2850    874.74733   -8469.3108   -8371.7314   -309.49461    20876.677    6.3442573 
    2860     863.1992   -8468.6353   -8372.3441   -260.28274    20880.444    6.3997603 
    2870    860.54057   -8468.9407   -8372.9461   -714.60795    20883.682    6.4484478 
    2880    861.52338     -8469.64   -8373.5358   -1468.1001    20885.872    6.4932995 
    2890    844.23201   -8468.2687   -8374.0933   -2042.2275     20886.16    6.5330412 
    2900    832.61436   -8467.4637   -8374.5843   -2479.2121    20883.914    6.5648345 
    2910    844.13707   -8469.1748   -8375.0101   -3180.2922    20878.618    6.5912422 
    2920    846.54047   -8469.8271   -8375.3942   -2870.6607    20869.694    6.6153743 
    2930    844.89561   -8469.9879   -8375.7385   -1738.4158     20857.64    6.6379637 
    2940    852.55311   -8471.1486    -8376.045   -621.27953    20843.895    6.6624266 
    2950     842.1743   -8470.2584   -8376.3126    523.87728    20829.921    6.6931675 
    2960    830.89947   -8469.2208   -8376.5327    1565.4784    20817.125    6.7303829 
    2970    827.84178   -8469.0335   -8376.6865    2060.3612    20806.692    6.7758039 
    2980     849.1582   -8471.5025   -8376.7776    1680.6509    20799.108    6.8254578 
    2990    881.31437   -8475.1548   -8376.8429    612.67696    20793.799    6.8720563 
    3000    885.46066   -8475.7133   -8376.9388    125.03055    20789.511    6.9171127 
    3010     880.9146   -8475.3634    -8377.096     213.0853    20785.586    6.9672832 
    3020    865.81611   -8473.8821    -8377.299    583.05195    20782.094    7.0250711 
    3030    859.11423   -8473.3566   -8377.5211     810.8581     20779.44    7.0898822 
    3040    879.40218   -8475.8591   -8377.7605    717.80707    20777.848    7.1597469 
    3050    874.14032    -8475.539   -8378.0273    445.65721    20777.184    7.2304721 
    3060    845.35647   -8472.5844   -8378.2836    522.06883    20777.169    7.2968479 
    3070    868.93502     -8475.45    -8378.519   -16.954249    20777.725    7.3560376 
    3080     877.5245   -8476.6519   -8378.7627    5.1757901    20778.342    7.4098395 
    3090    872.60339   -8476.3966   -8379.0564    638.49276    20779.009     7.462768 
    3100    867.63329    -8476.166   -8379.3802    1303.6729    20780.456    7.5172517 
    3110    878.41877     -8477.73    -8379.741    1335.2757    20783.391    7.5686187 
    3120    879.64865   -8478.2771   -8380.1509    884.03023     20787.84    7.6102712 
    3130    874.34417   -8478.1414    -8380.607   -52.513678    20793.189     7.644922 
    3140      882.579   -8479.5549   -8381.1019    -1415.995    20798.246    7.6847519 
    3150    882.34986   -8480.0813   -8381.6538   -1982.6784    20801.449    7.7355991 
    3160    845.88228    -8476.583   -8382.2236   -623.79377    20802.326    7.7950255 
    3170     845.1337   -8477.0272   -8382.7513    358.14915    20802.368    7.8602166 
    3180    881.29439   -8481.5775   -8383.2678    111.41549    20802.708    7.9300493 
    3190    885.80222   -8482.6363   -8383.8238    60.235123    20803.221    8.0003974 
    3200    885.15651   -8483.1704   -8384.4299   -146.37583     20803.79    8.0691833 
    3210    872.80976   -8482.4248   -8385.0615   -650.67511    20804.125    8.1416013 
    3220    866.49721   -8482.3176   -8385.6586   -851.92416    20803.689    8.2194358 
    3230    887.89802   -8485.2763   -8386.2299   -1113.3452    20802.186    8.2988098 
    3240    861.22624   -8482.8426   -8386.7715   -849.88991    20799.434    8.3771306 
    3250    856.57502   -8482.8178   -8387.2656   -1722.7588    20795.557    8.4522047 
    3260    888.37125   -8486.8468   -8387.7476   -2763.3589    20789.632    8.5226624 
    3270    887.33176   -8487.2383   -8388.2551     -2414.99    20780.627    8.5903901 
    3280    864.65459    -8485.206   -8388.7525   -1555.1992    20768.971    8.6556804 
    3290    877.39967    -8487.104   -8389.2288   -1415.9386    20755.662    8.7176271 
    3300    885.69914   -8488.4971    -8389.696   -1083.7563    20741.065    8.7754342 
    3310    877.24646   -8488.0085   -8390.1503   -707.98364    20725.607    8.8306268 
    3320    884.74023    -8489.289   -8390.5949   -323.75459    20709.765    8.8826354 
    3330    892.70293   -8490.6294    -8391.047    338.20919    20694.048    8.9333446 
    3340    873.28773   -8488.9243   -8391.5078     907.5028    20679.222    8.9882851 
    3350    850.90723   -8486.8378   -8391.9178     1221.431    20665.964    9.0487409 
    3360     891.4026   -8491.7411   -8392.3038    851.02212    20654.551     9.107976 
    3370    868.70478   -8489.5869   -8392.6816    1047.1745    20644.625    9.1581176 
    3380    863.68001   -8489.3762   -8393.0314    350.28692    20636.165    9.1954911 
    3390    897.77785   -8493.5329   -8393.3844   -864.96091    20628.345    9.2223692 
    3400    864.64397   -8490.2029   -8393.7506   -1090.3359    20619.825    9.2462409 
    3410    859.94099   -8490.0271   -8394.0993   -1027.8537    20610.274    9.2730087 
    3420    884.50779   -8493.1117   -8394.4435   -706.53819    20599.763    9.3057571 
    3430    865.90073   -8491.3747   -8394.7821    697.08042    20588.816     9.343593 
    3440    865.73985   -8491.6713   -8395.0967    1318.9872    20578.937    9.3829139 
    3450     895.5375   -8495.3101   -8395.4115    779.06957    20570.831    9.4220897 
    3460    897.13699   -8495.8576   -8395.7807    229.53031    20563.877    9.4636504 
    3470    870.25111   -8493.2695   -8396.1917    355.24406    20557.484    9.5132636 
    3480    878.83817   -8494.6525   -8396.6168   -13.526662    20551.632    9.5719167 
    3490    888.41189    -8496.172   -8397.0683   -76.201724    20545.966    9.6360533 
    3500    850.52119   -8492.3989   -8397.5219    443.68667    20540.446    9.7032186 
    3510     842.7047   -8491.9346   -8397.9296    721.40947    20535.611    9.7735566 
    3520    873.33881   -8495.7185   -8398.2962     522.7484    20531.722    9.8499888 
    3530    880.61935   -8496.8821   -8398.6477     745.5101    20528.621    9.9374996 
    3540    870.69124   -8496.1177   -8398.9908    746.90714    20526.494    10.035629 
    3550    873.63845   -8496.7562   -8399.3005    44.126719    20525.259    10.133768 
    3560      901.702   -8500.2032    -8399.617    -1041.071    20524.063    10.224226 
    3570    902.45855   -8500.6622   -8399.9916    -1296.483    20521.747    10.302655 
    3580     897.7724   -8500.5832   -8400.4353   -1016.6217    20517.999    10.371605 
    3590    909.96558    -8502.454    -8400.946   -1074.4349    20513.083    10.442155 
    3600    906.77256   -8502.6628   -8401.5109   -1182.9936    20507.021    10.524864 
    3610    904.42967   -8502.9993   -8402.1088   -1815.2161    20499.627    10.621741 
    3620    898.85806   -8502.9822   -8402.7132   -1909.5679    20490.308    10.723893 
    3630    893.87289   -8503.0124   -8403.2995   -1354.9584    20479.044    10.817044 
    3640    895.62493   -8503.7747   -8403.8664   -1527.7805    20466.395    10.891244 
    3650    918.70652   -8506.9236   -8404.4405   -2387.2718      20452.2    10.943156 
    3660    941.62356   -8510.1202   -8405.0806   -2901.8602    20435.597    10.979509 
    3670    938.94785   -8510.5526   -8405.8115   -2447.6798    20416.102    11.014575 
    3680    916.50575    -8508.807   -8406.5694   -1666.4684    20394.273    11.061534 
    3690    912.94536   -8509.1476   -8407.3072   -1062.2499    20371.066    11.123473 
    3700    902.25417   -8508.6458    -8407.998   -105.31624    20347.317    11.196636 
    3710    899.07485   -8508.9443   -8408.6511    819.06984    20324.149    11.275699 
    3720    891.84892   -8508.7664   -8409.2793    1317.5366    20302.598    11.354305 
    3730     881.1093   -8508.1719   -8409.8828    1590.1853    20283.211    11.430695 
    3740    893.66454   -8510.1687    -8410.479    1781.4933    20266.256     11.50896 
    3750    902.57248   -8511.7839   -8411.1005    1981.9385    20251.902    11.595332 
    3760    878.13542   -8509.6726   -8411.7153      2828.71    20240.423    11.695367 
    3770    880.38563   -8510.5173   -8412.3089    3470.7202    20232.602    11.812261 
    3780    888.04263   -8511.9722   -8412.9097    3718.2736    20229.057    11.947343 
    3790    892.25302   -8513.0655   -8413.5334    3787.0163    20229.997    12.099621 
    3800    909.41212   -8515.6331   -8414.1868    2905.1524    20235.259    12.261647 
    3810    913.07243    -8516.736   -8414.8814    1915.7537    20243.749    12.422745 
    3820    889.28777   -8514.8102   -8415.6088    1584.3369    20254.301    12.574069 
    3830    880.36278   -8514.5403   -8416.3345    550.07984    20266.285     12.71221 
    3840    886.72856   -8515.9555   -8417.0396   -332.23488    20278.564    12.841408 
    3850    884.89074   -8516.4371   -8417.7262    -543.6486    20290.139    12.966722 
    3860    882.36181   -8516.8229   -8418.3941   -882.77587    20300.667    13.091568 
    3870    892.83397   -8518.6653   -8419.0684   -1435.8444    20309.755     13.21737 
    3880    887.74209   -8518.7798   -8419.7509    -1853.942    20316.868    13.344363 
    3890    890.78697   -8519.7989   -8420.4303   -2363.7732    20321.546    13.470856 
    3900    895.99391   -8521.0608   -8421.1114   -2799.7805    20323.281    13.594865 
    3910    890.73608   -8521.1513   -8421.7884   -3239.2942    20321.651    13.714214 
    3920    894.55492   -8522.2673   -8422.4783   -3427.4901    20316.271    13.827883 
    3930    883.19201   -8521.6929   -8423.1715   -2946.7352    20307.109    13.936662 
    3940    880.13903   -8522.0315   -8423.8507   -2864.7975    20294.747    14.037399 
    3950    867.37079   -8521.2419   -8424.4854   -2790.5256    20279.489    14.125728 
    3960    877.94539   -8523.0177   -8425.0816   -2756.1328    20261.519     14.19978 
    3970    880.83004   -8523.9262   -8425.6683   -2251.8522    20241.013    14.256437 
    3980     866.5563   -8522.9005   -8426.2349   -1072.8927    20218.703    14.299855 
    3990    863.71077   -8523.1119   -8426.7637   -37.214453    20195.973     14.34734 
    4000    857.77142   -8522.9154   -8427.2297    447.47234    20174.004    14.407696 
    4010    895.35443   -8527.5648   -8427.6867    301.24556    20153.303    14.474885 
    4020    905.72183    -8529.236   -8428.2014    760.85848    20133.783     14.54419 
    4030     899.8658   -8529.1515   -8428.7701    1824.7505    20115.948    14.622359 
    4040    936.87901   -8533.9329   -8429.4227    2236.2046    20100.801    14.714076 
    4050    916.94848   -8532.4665   -8430.1795    2403.2718    20088.759    14.813484 
    4060    881.81714    -8529.323    -8430.955    2284.1218    20079.931    14.912556 
    4070    909.45984   -8533.1786    -8431.727    925.91967    20073.919    15.008984 
    4080    912.65348   -8534.3488    -8432.541    577.69421    20069.283    15.106682 
    4090    859.99317   -8529.2571   -8433.3236    1646.8271    20065.622    15.212491 
    4100    857.72577   -8529.6814   -8434.0008    1893.4913    20063.924    15.326035 
    4110    898.91734   -8534.9003   -8434.6248    826.57716    20064.338    15.441269 
    4120    897.63678   -8535.3688   -8435.2361    674.57275    20065.835    15.552892 
    4130    880.59882   -8534.0728   -8435.8407    1037.7452    20068.128    15.662232 
    4140    870.52923    -8533.516   -8436.4071    1121.5085    20071.537    15.776325 
    4150    891.58487   -8536.4265   -8436.9689     751.9969     20076.08    15.902868 
    4160    876.59698   -8535.3134   -8437.5277     860.1964    20081.429    16.044709 
    4170    870.30479    -8535.155   -8438.0712    830.99967    20087.587    16.196657 
    4180     859.5948   -8534.4794   -8438.5903     1060.356    20094.546    16.349173 
    4190    839.18955   -8532.6616   -8439.0487    1392.5824    20102.541    16.494479 
    4200    894.96963   -8539.3213   -8439.4861    634.29737    20111.787    16.634369 
    4210    915.94226   -8542.1784   -8440.0036    249.61902    20121.556    16.781877 
    4220    881.87327   -8538.9963    -8440.622   -35.788225    20131.364    16.948798 
    4230    864.40115    -8537.677   -8441.2517   -861.50704     20140.81    17.140923 
    4240     865.5379   -8538.3784   -8441.8263   -1588.7408    20148.993    17.351979 
    4250    877.99958   -8540.2946   -8442.3524   -1932.6426    20155.116    17.569516 
    4260     892.9469   -8542.4825   -8442.8729    -1787.643    20158.846    17.782993 
    4270    899.99527   -8543.8257   -8443.4299   -1000.8907    20160.452    17.981817 
    4280    885.16292   -8542.7445   -8444.0032    26.252718    20160.859    18.163448 
    4290    889.54037   -8543.8167   -8444.5872    482.71643    20161.211    18.335718 
    4300    898.33543   -8545.4157    -8445.205    936.82566    20162.142    18.503554 
    4310    897.53698    -8545.979   -8445.8574    1436.9748    20164.153    18.663266 
    4320    891.32836   -8545.9619   -8446.5329    1315.2041    20167.706      18.8128 
    4330    893.06604   -8546.8218   -8447.1989    628.55963    20172.642    18.952693 
    4340    903.46127   -8548.6503   -8447.8678    -360.0336    20178.114    19.081674 
    4350    879.86937   -8546.6723   -8448.5216    -938.2307    20183.016    19.196344 
    4360    874.66819   -8546.6943   -8449.1237   -1606.5717    20186.653    19.291589 
    4370    897.52654   -8549.8249   -8449.7044   -2688.5432    20188.251    19.362672 
    4380    895.51271   -8550.1976   -8450.3018    -3145.518    20186.726     19.41019 
    4390    860.05152   -8546.8317   -8450.8916   -2778.6152    20181.665    19.439261 
    4400     848.9316   -8546.1078   -8451.4082   -2645.0401    20173.502    19.459338 
    4410    885.66262   -8550.6873   -8451.8903   -2912.3474    20162.464    19.474349 
    4420    885.59706   -8551.1703   -8452.3807   -2346.2184    20148.454    19.480526 
    4430    870.06849   -8549.9125    -8452.855   -1542.3545    20132.154    19.476115 
    4440    881.31516   -8551.6176   -8453.3056   -1235.3598    20114.486    19.466859 
    4450    881.56373   -8552.0769   -8453.7371    51.747442    20096.046    19.457891 
    4460    914.73509   -8556.2305   -8454.1905    1073.0925    20078.172    19.449991 
    4470    936.82934   -8559.2505   -8454.7458    2130.6819    20062.081    19.439823 
    4480    904.83947   -8556.3407   -8455.4045    3539.3958    20048.978    19.432246 
    4490    895.05506   -8555.9543   -8456.1096    3877.0447    20040.229    19.442761 
    4500    888.13177    -8555.913   -8456.8405    3677.9204    20036.164    19.480858 
    4510    853.44291   -8552.7322   -8457.5294    3629.7462    20036.498     19.53927 
    4520    860.29026   -8554.0967   -8458.1301    2233.8106    20040.874    19.609971 
    4530    876.53664   -8556.4504   -8458.6714    911.58087    20047.733    19.689957 
    4540    851.05469   -8554.0913   -8459.1549    908.64518     20055.61    19.777775 
    4550    856.04176   -8555.0715   -8459.5788    1006.4946    20064.343    19.870839 
    4560    858.41598   -8555.7108   -8459.9532    1236.0013     20074.06    19.964971 
    4570     854.1578   -8555.5689   -8460.2863    1118.9544    20084.945    20.059582 
    4580    863.24828   -8556.8781   -8460.5814    464.12518     20096.83    20.151317 
    4590    878.31267   -8558.8392   -8460.8621   -687.07389    20108.924    20.233307 
    4600    893.63754   -8560.8479   -8461.1613   -1492.7519    20119.984    20.303708 
    4610    893.66923   -8561.2051    -8461.515   -1174.2905    20129.176    20.368633 
    4620    872.80037   -8559.2872    -8461.925   -437.35212    20136.845    20.438454 
    4630    834.02476   -8555.3581   -8462.3214    -343.8105    20143.796    20.519183 
    4640    846.55556   -8557.0888   -8462.6543   -2020.4735    20150.003    20.610419 
    4650    884.04675   -8561.5867     -8462.97   -3552.8138     20153.74    20.710087 
    4660    867.25624   -8560.0495   -8463.3058   -3266.4754    20153.456    20.809351 
    4670    872.18936   -8560.9619   -8463.6679   -2284.6982    20149.448    20.900928 
    4680    855.40007   -8559.4432    -8464.022   -999.28518    20142.896    20.979095 
    4690      848.201   -8558.9646   -8464.3466    -524.8725    20135.222    21.045562 
    4700    866.82623   -8561.3396   -8464.6438   -967.96979    20126.997    21.106093 
    4710     887.1868   -8563.9375   -8464.9705   -1194.1643    20117.813    21.163495 
    4720    862.69038   -8561.5647   -8465.3303   -558.29116    20107.527    21.224007 
    4730    866.80613   -8562.3993   -8465.7058   -685.00143     20096.71    21.291039 
    4740    869.46995   -8563.0815   -8466.0908   -1038.4047    20085.296    21.357979 
    4750    856.76075   -8562.0555   -8466.4825   -556.72404        20073    21.420858 
    4760    873.97923   -8564.3725   -8466.8788    460.08776    20060.374    21.484228 
    4770    872.44341   -8564.6077   -8467.2854    2116.6532    20048.624    21.560169 
    4780    862.73879   -8563.9291   -8467.6892    2872.7973    20039.451    21.659045 
    4790     883.8903   -8566.7138   -8468.1145    2701.3484    20033.715    21.778547 
    4800    872.37308   -8565.8925    -8468.578    2868.2381    20031.299    21.906936 
    4810    856.46395   -8564.6007   -8469.0608     2437.553    20032.193    22.040462 
    4820     877.4358   -8567.4303    -8469.551    1353.4638    20035.838    22.187272 
    4830    886.16381   -8568.9227   -8470.0697    1084.1765    20041.068    22.349505 
    4840    869.28886   -8567.5761   -8470.6056    1197.1497    20047.487    22.530038 
    4850    864.75751   -8567.5797   -8471.1147    426.37522    20055.058     22.73027 
    4860    876.23646   -8569.3519   -8471.6064   -829.89479    20062.913    22.934946 
    4870    856.03192   -8567.5518   -8472.0602   -1553.4363    20069.722    23.130991 
    4880     848.8373   -8567.1431    -8472.454   -2100.3834    20074.589    23.319613 
    4890    859.95863   -8568.7123   -8472.7826   -2178.2524    20076.974    23.504027 
    4900    868.67291     -8569.97   -8473.0682   -2315.0133    20076.769    23.683076 
    4910    874.79732    -8570.908   -8473.3231    -2804.316    20073.852    23.843046 
    4920    879.43997   -8571.6689   -8473.5661   -2965.9122    20067.775    23.966761 
    4930    881.97944   -8572.2004   -8473.8142   -2238.2726    20058.488    24.052672 
    4940    878.81561   -8572.1074   -8474.0742   -1347.1221    20046.824    24.119126 
    4950    862.75728   -8570.5679    -8474.326   -531.06852    20033.877    24.188855 
    4960    869.05126   -8571.4941   -8474.5501   -873.57318    20020.486    24.267854 
    4970    890.17058   -8574.0757   -8474.7758   -1560.0739    20006.352    24.349626 
    4980     870.4428   -8572.1008   -8475.0016   -1558.8715    19990.824    24.425567 
    4990    877.57618   -8573.1045   -8475.2095   -2016.8437    19973.792    24.493541 
    5000    907.07416   -8576.6292   -8475.4437      -2835.8    19954.746    24.553995 
Loop time of 2104.51 on 16 procs for 3000 steps with 864 atoms

Performance: 0.123 ns/day, 194.862 hours/ns, 1.426 timesteps/s
96.4% CPU use with 16 MPI tasks x 1 OpenMP threads

MPI task timing breakdown:
Section |  min time  |  avg time  |  max time  |%varavg| %total
---------------------------------------------------------------
Pair    | 918.56     | 1432.5     | 2078.7     | 956.2 | 68.07
Bond    | 0.00024152 | 0.00073063 | 0.0019362  |   0.0 |  0.00
Neigh   | 0.028817   | 0.048866   | 0.090544   |   9.4 |  0.00
Comm    | 4.435      | 462.02     | 1077       |1377.1 | 21.95
Output  | 0.18312    | 0.1855     | 0.21969    |   2.0 |  0.01
Modify  | 3.8273     | 209.74     | 704.9      |1502.2 |  9.97
Other   |            | 0.01437    |            |       |  0.00

Nlocal:        54.0000 ave          90 max          34 min
Histogram: 5 3 1 1 1 1 1 0 2 1
Nghost:        506.688 ave         682 max         362 min
Histogram: 4 0 1 3 0 3 1 2 0 2
Neighs:         0.00000 ave           0 max           0 min
Histogram: 16 0 0 0 0 0 0 0 0 0
FullNghs:      2587.38 ave        5973 max         954 min
Histogram: 6 2 2 0 1 1 1 1 1 1

Total # of neighbors = 41398
Ave neighs/atom = 47.914352
Ave special neighs/atom = 0.0000000
Neighbor list builds = 300
Dangerous builds = 300
unfix   2

fix     3 all npt temp 862.5 862.5 $(100.0*dt) aniso 1.01325 1.01325 $(1000.0*dt)
fix     3 all npt temp 862.5 862.5 0.10000000000000000555 aniso 1.01325 1.01325 $(1000.0*dt)
fix     3 all npt temp 862.5 862.5 0.10000000000000000555 aniso 1.01325 1.01325 1
run     20000
Per MPI rank memory allocation (min/avg/max) = 8.899 | 8.909 | 8.923 Mbytes
Step Temp PotEng TotEng Press Volume c_msd[4] 
    5000    907.07416   -8576.6292   -8475.4437      -2835.8    19954.746    24.553995 
    5010    897.65683   -8575.6253   -8475.4904   -2695.9846    19953.071    24.592394 
    5020    905.57496   -8576.6534   -8475.6352   -1881.8359    19948.339    24.620426 
    5030    931.54451   -8579.8209   -8475.9057   -1331.6407    19941.365    24.642364 
    5040    901.03599   -8576.8292   -8476.3173    494.18196    19933.016    24.653139 
    5050    854.01744   -8572.0551   -8476.7882    2185.7236    19925.204    24.653348 
    5060    856.60953   -8572.8173   -8477.2612     2797.954    19919.796     24.65626 
    5070    850.42428    -8572.588   -8477.7219    3082.7418    19917.624    24.675417 
    5080    866.46662   -8574.8335   -8478.1778    2479.5637    19918.931    24.713742 
    5090    900.70349   -8579.1501   -8478.6753    1193.9105    19923.035    24.769179 
    5100    898.55148   -8579.4896   -8479.2549    777.06774    19928.645    24.841501 
    5110    903.25478   -8580.6861   -8479.9266     231.8169    19935.161    24.935637 
    5120    906.44948   -8581.7862   -8480.6704   -859.83505    19941.913    25.047164 
    5130    889.32646   -8580.6574   -8481.4517    -959.4806      19947.8    25.161686 
    5140    865.79463   -8578.7708   -8482.1901    -792.9517    19952.597    25.270012 
    5150    890.50197    -8582.212   -8482.8752   -1080.1912    19956.451    25.374217 
    5160    898.43603   -8583.7448   -8483.5229   -595.38493    19959.169    25.476543 
    5170    886.26482   -8582.9771    -8484.113    250.73989    19961.256     25.57897 
    5180    893.42595   -8584.2931   -8484.6301    333.04168    19963.586    25.688365 
    5190    892.38418   -8584.6459   -8485.0991   -474.15908    19966.209    25.806233 
    5200    879.41942   -8583.6185   -8485.5179   -757.64445    19968.338    25.932912 
    5210    886.47594   -8584.7892   -8485.9014   -236.68377    19969.685    26.065709 
    5220    884.63961   -8584.9362   -8486.2533    235.01167    19970.764    26.199045 
    5230     901.8262   -8587.2051    -8486.605    710.39763     19972.15    26.326415 
    5240      888.969   -8586.1454   -8486.9796    1281.9789      19974.4    26.448641 
    5250    865.90266   -8583.9495   -8487.3567    1587.3997    19978.133    26.572869 
    5260     896.5663   -8587.7496   -8487.7363    1090.6649    19983.651    26.703332 
    5270    913.93856   -8590.1266   -8488.1753    514.06091    19990.454    26.838622 
    5280    909.43214   -8590.1347   -8488.6862    384.19664    19997.945    26.969345 
    5290     938.5635   -8594.0038   -8489.3056    487.39326    20005.934    27.091002 
    5300    937.51589    -8594.629   -8490.0477    1141.9583    20014.605    27.215133 
    5310    949.76217   -8596.8795   -8490.9321    1040.3582    20024.546    27.354592 
    5320    942.70997   -8597.0962   -8491.9355    939.87325    20035.763    27.509503 
    5330    908.51309   -8594.3081   -8492.9621    893.81282    20048.152    27.671652 
    5340    905.40319   -8594.9273   -8493.9282    734.23475    20061.672    27.835492 
    5350    913.39017   -8596.7339   -8494.8438    916.48917    20076.197     28.00093 
    5360    896.74418   -8595.7346   -8495.7015    1086.0857    20091.881    28.164878 
    5370    914.00842   -8598.4641   -8496.5051    67.832672    20108.788    28.323008 
    5380    957.85313   -8604.1782   -8497.3283   -1423.6638    20125.843    28.475242 
    5390     960.3613   -8605.3779   -8498.2482    -2453.853    20141.379    28.630076 
    5400    949.68356   -8605.1954   -8499.2568   -3072.6717     20154.14    28.800116 
    5410    958.31027   -8607.2553   -8500.3544   -3442.1933    20163.342    28.986379 
    5420    939.04408   -8606.2682   -8501.5164   -2998.7436    20168.606    29.178052 
    5430    920.37955   -8605.3236   -8502.6539   -3353.9344    20170.227    29.351861 
    5440    906.26886   -8604.8094   -8503.7138   -3693.8147    20167.908    29.489865 
    5450    892.87636   -8604.2907    -8504.689   -3776.3748    20161.204    29.590384 
    5460    885.19993   -8604.3226   -8505.5772   -3244.7748    20150.093     29.66509 
    5470    894.56997   -8606.1876    -8506.397   -2284.9767    20135.174    29.729453 
    5480    915.04273   -8609.2607   -8507.1863   -1358.6007    20117.539    29.788814 
    5490    932.90644   -8612.0808   -8508.0137   -468.27577    20098.305    29.842061 
    5500    937.75653   -8613.5476   -8508.9394    963.36153    20078.575     29.89711 
    5510    919.10009   -8612.4627   -8509.9357    2752.0772    20060.026    29.971457 
    5520    914.98196   -8613.0225   -8510.9549    3779.3628    20044.632     30.07696 
    5530    907.93659   -8613.2598   -8511.9781    4038.2203     20033.59    30.214212 
    5540     893.6776   -8612.6387   -8512.9476    3878.7601    20027.242    30.379125 
    5550    906.26671   -8614.9673   -8513.8719    3321.4155    20025.387    30.568206 
    5560    892.12321   -8614.2817   -8514.7641    2886.3137    20027.428    30.769267 
    5570    882.56934   -8614.0583   -8515.6064    1876.0263    20032.776    30.965139 
    5580    892.11383   -8615.9291   -8516.4125    256.63387    20040.246    31.142193 
    5590    893.59509   -8616.8921   -8517.2102    -854.8073    20048.038    31.292204 
    5600    879.86091   -8616.1638    -8518.014    -537.5188    20054.978    31.421444 
    5610    853.13736   -8613.9512   -8518.7824    167.97975    20061.319    31.546203 
    5620    827.52137   -8611.7742   -8519.4629    883.87758    20067.857    31.669715 
    5630    833.84868   -8613.0444   -8520.0274    1014.6573    20075.377     31.79083 
    5640    881.32315   -8618.8496   -8520.5367   -173.91636    20083.947    31.917568 
    5650     890.0207   -8620.3433   -8521.0601   -1441.8515    20092.324    32.054115 
    5660    881.03157   -8619.9009   -8521.6205   -2189.5035    20099.077    32.194857 
    5670    873.41783   -8619.6439   -8522.2128   -1905.9054    20103.379    32.330105 
    5680    858.84107   -8618.6016   -8522.7966     -938.104    20105.527    32.455862 
    5690    876.87312   -8621.1703   -8523.3538   -450.48491    20106.517    32.576691 
    5700    898.95471   -8624.2187   -8523.9389   -214.47295    20106.933    32.699843 
    5710    859.21392    -8620.394   -8524.5473    949.33377    20107.213    32.832827 
    5720    843.39203   -8619.2026   -8525.1209    1317.2262    20108.524     32.98296 
    5730    868.95657   -8622.5868   -8525.6534    448.13336    20111.252    33.153941 
    5740    869.24521    -8623.143   -8526.1773     467.6417    20114.623     33.34201 
    5750    856.56172   -8622.2352   -8526.6844    1173.3686    20118.596    33.537418 
    5760    853.13647   -8622.3212   -8527.1526    1574.5567    20123.898    33.732863 
    5770    837.86402   -8621.0318   -8527.5668    1334.6027    20130.991    33.924664 
    5780    844.22034   -8622.1045   -8527.9304    100.99411    20139.525    34.112585 
    5790    861.67632   -8624.3888   -8528.2675   -1302.1221    20148.143    34.300127 
    5800    851.27996   -8623.5568   -8528.5953   -1848.1272    20155.278    34.480257 
    5810    846.53422   -8623.3271   -8528.8949   -1741.1559    20160.276    34.637324 
    5820    867.01631   -8625.8908   -8529.1739   -1827.7084    20163.182    34.763385 
    5830    875.89477   -8627.1626   -8529.4552   -1432.5155    20163.984     34.86361 
    5840    880.95257   -8628.0494   -8529.7778   -1012.2786    20163.088    34.951465 
    5850    866.24093   -8626.7688   -8530.1384   -729.48364    20160.987    35.035847 
    5860    844.10447   -8624.6655   -8530.5044   -284.03827    20158.057    35.113232 
    5870    840.45785   -8624.5854    -8530.831   -4.0920881    20154.786    35.178748 
    5880    874.49942   -8628.6926   -8531.1409    3.3512874    20151.456    35.236499 
    5890    876.74792   -8629.2863   -8531.4838    856.86492    20148.255     35.29274 
    5900    862.32345   -8628.0605    -8531.867    1853.9545    20146.116    35.354469 
    5910    854.99615   -8627.6446   -8532.2685    2217.4206    20146.095    35.429944 
    5920    826.72036   -8624.8543   -8532.6324    2562.7147    20148.719    35.517224 
    5930    850.53812   -8627.8217   -8532.9429    1924.5102    20154.264     35.60458 
    5940    880.92527   -8631.4971   -8533.2285    674.81695    20161.986    35.684092 
    5950    870.67606    -8630.644   -8533.5187    476.03961    20170.593    35.757371 
    5960    864.18055   -8630.2155   -8533.8149    270.00403    20179.699    35.830087 
    5970    851.88177   -8629.1234   -8534.0947   -222.57167    20189.058    35.902791 
    5980    851.29764   -8629.3076   -8534.3441   -997.79172    20198.068    35.970503 
    5990    864.19941   -8630.9713   -8534.5686   -1757.4238    20205.826    36.031309 
    6000    864.04496   -8631.1871   -8534.8016   -2134.1559    20211.477    36.088258 
    6010    843.11668   -8629.0975   -8535.0466   -2327.9842    20214.585    36.144848 
    6020    843.59611   -8629.3902   -8535.2858   -3174.0716    20214.831    36.201448 
    6030    855.64995   -8630.9685   -8535.5195   -3412.5887    20211.387    36.248338 
    6040    843.16089   -8629.8074   -8535.7516    -2432.331    20204.033    36.280731 
    6050    833.26518   -8628.9011   -8535.9491   -1639.5194     20193.82    36.311207 
    6060    868.02991   -8632.9526   -8536.1226   -1767.8795    20181.647    36.351373 
    6070    868.89217   -8633.2366   -8536.3104   -1317.0221     20167.56    36.395865 
    6080    861.40629   -8632.6079   -8536.5168   -239.97529    20152.126    36.434775 
    6090    896.02109   -8636.7111   -8536.7586    420.74242    20136.502    36.467885 
    6100    890.66565   -8636.4374   -8537.0823    853.20379    20121.474    36.506224 
    6110    864.82694    -8633.963   -8537.4903     1153.661    20107.549    36.563688 
    6120    856.05137   -8633.4216   -8537.9278    1352.1414     20095.11    36.644763 
    6130    837.76719   -8631.8015   -8538.3473    1453.8838    20084.366    36.740033 
    6140    844.23035   -8632.9281    -8538.753    1037.6893    20075.373    36.840398 
    6150    865.37109   -8635.7147   -8539.1812    127.21072    20067.616    36.945872 
    6160    875.15058   -8637.2958   -8539.6715   -158.76279    20060.158    37.055389 
    6170    855.88302   -8635.6837   -8540.2086    51.424407    20052.662    37.159999 
    6180    839.44667    -8634.369   -8540.7275    204.07699    20045.317     37.24923 
    6190    855.76197     -8636.67   -8541.2085   -51.219297    20038.249    37.317741 
    6200    878.67571   -8639.7056    -8541.688   -406.38705    20031.197     37.35879 
    6210    903.07102        -8643   -8542.2611   -442.06423    20023.791    37.368137 
    6220    882.21747   -8641.3552   -8542.9425    321.13855     20016.05    37.352508 
    6230    863.69703   -8640.0129   -8543.6662    932.76875    20008.776    37.331831 
    6240    870.28888   -8641.4906   -8544.4086    714.58747    20002.575     37.32413 
    6250    846.49344   -8639.5483   -8545.1207    1073.8781    19997.365    37.335456 
    6260    833.22457    -8638.692   -8545.7445     1537.056    19993.484    37.361843 
    6270    837.60923   -8639.6847   -8546.2481    1837.1387    19991.423    37.397398 
    6280    873.55849    -8644.114   -8546.6672    1680.9889    19991.451     37.43983 
    6290     883.8773   -8645.6615   -8547.0637     2101.144     19993.51    37.482975 
    6300    851.49336   -8642.4111   -8547.4257    2448.1751    19997.988    37.525631 
    6310    862.04681   -8643.8903   -8547.7277    1574.6799    20005.113    37.573237 
    6320    878.11388   -8645.9379    -8547.983    982.88257    20014.009    37.624624 
    6330    855.51956   -8643.6406   -8548.2061    1675.9927    20024.088    37.680742 
    6340    862.57494   -8644.6288   -8548.4073    2065.8066     20035.95    37.752378 
    6350     864.8359   -8645.0547    -8548.581     1315.019    20049.929     37.84485 
    6360    853.53608    -8643.935   -8548.7218   -421.61513    20065.134    37.942698 
    6370    851.21642   -8643.7669   -8548.8124   -2294.2292    20079.624    38.024641 
    6380    844.40048   -8643.0539   -8548.8597   -3542.4454    20091.297    38.074965 
    6390     831.8665   -8641.6575   -8548.8615   -3842.6626    20098.767    38.089318 
    6400    837.86995   -8642.2867    -8548.821    -3603.821    20101.676    38.080696 
    6410    833.65967   -8641.7338   -8548.7378   -2707.2168    20100.425    38.069652 
    6420    832.01739   -8641.4252   -8548.6124   -2269.8562    20095.965    38.071804 
    6430    812.08824   -8639.0108   -8548.4211   -1613.1193    20088.955    38.086666 
    6440    815.95817   -8639.1682   -8548.1468   -1298.8957    20080.118    38.099873 
    6450    844.37476   -8641.9796   -8547.7883   -1065.9474    20069.888     38.10413 
    6460    862.60636   -8643.6189   -8547.3938   -246.43117    20058.652    38.101664 
    6470    882.69991   -8645.4865     -8547.02    119.81974    20047.252    38.098763 
    6480    869.32436   -8643.6618   -8546.6873    386.97747    20036.185    38.103812 
    6490    864.97204   -8642.8812   -8546.3923    61.289167    20025.691    38.117223 
    6500    884.15492   -8644.7635   -8546.1347   -688.06789    20015.403    38.139485 
    6510     859.2312    -8641.767   -8545.9185    -547.2163    20004.613    38.179464 
    6520    848.83518   -8640.4097   -8545.7209   -982.82415    19993.322    38.241579 
    6530    862.41712   -8641.7106   -8545.5066    -2495.378    19980.984    38.316419 
    6540    876.78596   -8643.1087   -8545.3019   -3912.8256    19965.988    38.383927 
    6550    888.24103   -8644.2367    -8545.152   -4511.7526    19946.817    38.424779 
    6560    893.84736   -8644.7933   -8545.0832   -3695.8585    19922.943    38.433026 
    6570     906.9187   -8646.2728   -8545.1046    -2179.886    19895.321    38.422879 
    6580       885.71   -8643.9893    -8545.187   -166.18168    19865.806    38.415304 
    6590    867.39918   -8642.0304   -8545.2707    1371.7093    19836.654    38.422615 
    6600     900.7911    -8645.849   -8545.3644    1362.1895    19809.456    38.443231 
    6610    889.91637   -8644.7926   -8545.5211    2280.3504    19784.499    38.471153 
    6620    856.80339   -8641.2946   -8545.7169    2941.4205    19762.636    38.508087 
    6630    880.51879   -8644.1733   -8545.9501    1802.8122    19744.361    38.552518 
    6640    890.05051   -8645.5367   -8546.2502    1400.9832    19728.605    38.595161 
    6650    904.17593   -8647.5134   -8546.6512    1570.0377     19714.83    38.633379 
    6660    935.67841   -8651.6101   -8547.2337    1095.6474    19703.043      38.6711 
    6670    907.47422   -8649.2613   -8548.0312    774.66711    19692.754    38.709563 
    6680    883.98518   -8647.5954   -8548.9855    407.87018    19683.541    38.743798 
    6690    880.40722   -8648.2342   -8550.0235    979.65027    19675.116    38.766295 
    6700    867.15817     -8647.79   -8551.0572    2194.8412    19668.046     38.78056 
    6710    874.86627   -8649.6014   -8552.0088    2318.9214    19663.446     38.79864 
    6720    868.66297   -8649.7391   -8552.8385    2392.5265    19661.544    38.825467 
    6730    839.54728   -8647.1281   -8553.4753    2439.6007    19662.338    38.866772 
    6740    861.52956   -8650.0296   -8553.9247    1783.0559     19665.76    38.925076 
    6750    877.96452   -8652.2014   -8554.2631    1237.4307    19671.099    38.996609 
    6760    855.36377   -8649.9361    -8554.519    1293.1605    19677.794    39.078575 
    6770    876.86337   -8652.5391   -8554.7237   -196.18363     19685.63    39.165158 
    6780    864.35018   -8651.3194   -8554.8999   -1588.7186    19693.108    39.245627 
    6790    835.54897   -8648.2419   -8555.0352   -2322.3505    19698.731    39.315414 
    6800    865.44071   -8651.6724   -8555.1311   -3636.9489    19701.564    39.380166 
    6810    867.06157   -8651.9392   -8555.2171   -4157.8284    19700.368    39.440861 
    6820    860.21107   -8651.2806   -8555.3228   -4032.6896    19694.603    39.492626 
    6830    872.03508   -8652.7235   -8555.4467   -4111.6922      19684.4    39.530912 
    6840    885.68776   -8654.3993   -8555.5995   -4156.9088    19669.834    39.558279 
    6850    907.33729   -8657.0435   -8555.8287   -3860.2635    19650.956    39.578986 
    6860    907.15789   -8657.3375   -8556.1427   -2143.8048     19628.33    39.588113 
    6870    905.48027   -8657.5547    -8556.547    35.862267    19603.841    39.590712 
    6880    863.20638    -8653.292   -8557.0001    2260.5881    19579.929    39.605058 
    6890    851.22462   -8652.4035   -8557.4481    3181.1401    19558.908    39.644881 
    6900     890.7558   -8657.2968   -8557.9317    2666.0621    19541.724    39.723608 
    6910    907.48113   -8659.7449    -8558.514    2471.8004    19527.875    39.851702 
    6920    904.45162    -8660.088    -8559.195    2540.9785    19517.043    40.025595 
    6930    913.84059   -8661.9167   -8559.9764    2570.0602    19509.225    40.242085 
    6940    907.74301   -8662.1073   -8560.8472    2760.3287    19504.425    40.499717 
    6950     876.3902   -8659.5012   -8561.7386    2797.4401    19502.769     40.79215 
    6960    855.05712   -8657.9237   -8562.5408    2063.0574    19504.157    41.105805 
    6970     866.7968    -8659.892   -8563.1995    663.06536    19507.699    41.422444 
    6980    890.47988   -8663.1012   -8563.7668   -175.53272    19511.933    41.721098 
    6990    897.23702   -8664.4167   -8564.3285   -163.56153     19515.95    41.992085 
    7000    887.84076   -8663.9488   -8564.9089     321.5854    19519.709    42.242725 
    7010    877.51149   -8663.3702   -8565.4824    773.41132    19523.711    42.487402 
    7020    865.79429    -8662.592   -8566.0113    731.09613    19528.398     42.73325 
    7030    881.76075   -8664.8527    -8566.491   -188.50152    19533.645    42.980118 
    7040    897.10157   -8667.0588   -8566.9858   -806.48494    19538.573    43.227984 
    7050    868.92106   -8664.4269   -8567.4974    -637.7906    19542.536    43.473986 
    7060    836.40549   -8661.2646   -8567.9623   -61.207118    19545.726    43.708067 
    7070    831.40164   -8661.0678   -8568.3237    239.12502    19548.738      43.9186 
    7080     850.6449   -8663.4951   -8568.6044    238.55948    19551.888    44.101296 
    7090    846.78463   -8663.2932   -8568.8331    1213.4192    19555.322    44.263795 
    7100    857.81637   -8664.7275   -8569.0368    2038.9248    19559.986    44.421843 
    7110    853.03268   -8664.3735   -8569.2164    1978.6253      19566.7    44.593897 
    7120    863.61952   -8665.7257   -8569.3877     928.3214    19575.303    44.797131 
    7130    857.06932   -8665.1592   -8569.5519    279.30068    19584.737    45.029269 
    7140    840.00962   -8663.3816   -8569.6772    265.27535    19594.326    45.269679 
    7150    889.32931   -8668.9899   -8569.7839   -862.68364     19603.81    45.500054 
    7160    880.38948   -8668.1232   -8569.9144   -761.33502    19612.268    45.702798 
    7170    850.66904   -8664.9767   -8570.0832   -1194.0419    19619.617    45.866081 
    7180      840.686   -8664.0156   -8570.2358   -2819.2376    19625.339    45.991961 
    7190    857.50628   -8666.0171    -8570.361   -4304.6865    19627.826    46.092759 
    7200    876.53318   -8668.2806    -8570.502   -4584.8035    19625.613    46.175975 
    7210    856.26247   -8666.1892   -8570.6718   -3757.6608    19618.495     46.24235 
    7220    849.78777   -8665.6469   -8570.8518   -2977.8673     19607.38     46.29547 
    7230    835.39793   -8664.1921   -8571.0022   -1931.0536    19593.268    46.335742 
    7240    845.77022   -8665.4554   -8571.1085   -1201.5596    19577.292    46.362389 
    7250     862.8311   -8667.4347   -8571.1846   -731.01551    19560.306    46.381779 
    7260    836.35039   -8664.5184   -8571.2223   -219.01302    19542.909    46.398516 
    7270    844.38644   -8665.4111   -8571.2185   -310.00478     19525.58     46.40491 
    7280     850.2949   -8666.0134   -8571.1617   -174.25625      19508.3    46.393459 
    7290    874.05403   -8668.5776   -8571.0756   -90.852926    19491.185    46.363169 
    7300    914.12213   -8672.9903   -8571.0186   -169.19366    19474.304    46.309079 
    7310    912.66652   -8672.8836   -8571.0743    1051.4079    19457.698    46.234183 
    7320    862.40094   -8667.4258   -8571.2237    3005.3377    19442.618    46.160402 
    7330    862.93837   -8667.6766   -8571.4145    3211.5882    19430.919    46.103789 
    7340    894.62687   -8671.4643   -8571.6673     2643.737    19422.848    46.069035 
    7350    883.89808   -8670.6255   -8572.0253    3392.3843    19417.938     46.05297 
    7360    869.57091   -8669.4915   -8572.4896    3925.7662    19416.782    46.054113 
    7370    866.78111   -8669.7347    -8573.044    3937.1771    19419.879    46.076025 
    7380    861.22587   -8669.7518   -8573.6808    4159.9972    19427.248    46.118437 
    7390    857.29675   -8670.0037    -8574.371    3886.0046    19439.033     46.17522 
    7400    883.60861   -8673.6849    -8575.117    2707.3793    19454.813    46.240231 
    7410    867.58088    -8672.694    -8575.914    2543.4616    19473.478    46.323005 
    7420    850.25646   -8671.5454    -8576.698    2075.0672    19494.674    46.442245 
    7430    866.14651   -8674.0569    -8577.437     1023.225    19517.838    46.599057 
    7440    866.58062   -8674.8016   -8578.1332    598.42576    19541.926    46.771549 
    7450    856.12078   -8674.2853   -8578.7837    384.08235    19566.425    46.939555 
    7460    858.72836   -8675.1612   -8579.3688   -222.69609    19591.032    47.099358 
    7470    865.76175   -8676.4709   -8579.8939   -1394.5653    19615.053    47.269554 
    7480    863.96255   -8676.7285   -8580.3522   -3104.3002    19637.193    47.468356 
    7490     870.3646   -8677.8524   -8580.7619    -4738.136    19655.602      47.6922 
    7500    855.20783   -8676.5356   -8581.1359   -4955.0075    19668.659    47.925772 
    7510    853.55839    -8676.698   -8581.4823    -4799.301    19676.051    48.155907 
    7520    865.42075   -8678.3493   -8581.8103   -4903.0011    19677.956    48.370145 
    7530    842.99991   -8676.1612   -8582.1233   -3993.1929    19674.468     48.56436 
    7540    811.09039   -8672.8355   -8582.3572   -1942.2197    19666.688    48.745348 
    7550    840.27991   -8676.2126   -8582.4781   -690.46754    19656.738    48.920566 
    7560     877.4149   -8680.4013   -8582.5244   -87.781718    19646.098    49.094345 
    7570    878.25565    -8680.545   -8582.5742     288.1686    19635.479    49.271636 
    7580    862.71144   -8678.8671   -8582.6304    986.86725     19625.37    49.451128 
    7590    880.36719   -8680.9016   -8582.6953    1299.2613    19616.447    49.625516 
    7600    877.37042   -8680.6671   -8582.7951    1458.2875    19609.079    49.785169 
    7610    856.57319   -8678.4812   -8582.9292    1876.5837    19603.482     49.92342 
    7620      860.778   -8679.0846   -8583.0635    1577.8045    19599.963    50.049877 
    7630    879.29677   -8681.2923   -8583.2054    795.07337    19598.195    50.180696 
    7640    900.45845    -8683.856   -8583.4085    572.26806    19597.393    50.325972 
    7650    886.74083   -8682.6118   -8583.6945    1667.8684    19597.395    50.491912 
    7660    883.23625   -8682.5868   -8584.0605    2352.9594    19599.222    50.682677 
    7670    878.48012    -8682.486   -8584.4903    1661.7926    19603.522    50.898267 
    7680     849.7084   -8679.7241   -8584.9379    604.62661    19609.601    51.126471 
    7690    840.31271   -8679.0933   -8585.3551   -413.80905    19616.301    51.349086 
    7700    843.27626   -8679.8068   -8585.7381   -1156.6412    19622.497    51.553954 
    7710    839.75281   -8679.7569   -8586.0812   -1064.2293    19627.456    51.737564 
    7720     857.0569   -8682.0052   -8586.3992   -1246.3892    19631.146     51.89779 
    7730      853.186   -8681.8798   -8586.7056   -1312.0899    19633.441    52.025813 
    7740     849.3854   -8681.7635   -8587.0133   -1653.9311    19634.219     52.11969 
    7750    855.16117   -8682.7214   -8587.3269   -2179.6988    19633.123    52.177623 
    7760    862.38266   -8683.8725   -8587.6724   -1909.5786     19629.69    52.194421 
    7770    850.63684   -8682.9399   -8588.0501   -513.57721    19624.274    52.186175 
    7780    834.59776   -8681.5352   -8588.4346     556.4336    19618.277    52.175826 
    7790    816.13463   -8679.8363   -8588.7953    931.06632    19612.885    52.173406 
    7800    815.41716    -8680.071     -8589.11    1241.5486     19608.57    52.175572 
    7810    843.12002   -8683.4386   -8589.3873    1660.7925    19605.696    52.182982 
    7820    877.40077   -8687.5707   -8589.6954    1393.2778    19604.628    52.200208 
    7830    864.61009   -8686.5506    -8590.102    728.49361    19605.089    52.229663 
    7840    831.26585   -8683.3188   -8590.5898   -100.72653     19606.35    52.273956 
    7850    843.46928   -8685.2257   -8591.1355   -1140.7345    19607.479     52.32503 
    7860    858.09735   -8687.4914   -8591.7694   -1498.9344    19607.393    52.372796 
    7870    835.49965   -8685.6744   -8592.4732   -918.87492    19605.732    52.422305 
    7880    852.66876   -8688.3359   -8593.2194   -956.67277    19602.987    52.477915 
    7890    856.81219   -8689.5955   -8594.0168   -914.37344    19599.211    52.533573 
    7900    832.23532   -8687.6496   -8594.8125    -1.546465    19594.553    52.582885 
    7910    825.91811   -8687.6828   -8595.5504    567.37314     19589.88    52.627866 
    7920    816.90489   -8687.3201   -8596.1931     854.6403    19585.845     52.67219 
    7930    808.57686   -8686.9022   -8596.7042    635.34025    19582.719     52.71388 
    7940    827.75834   -8689.4319   -8597.0942     258.5434    19580.298    52.742234 
    7950    831.49095   -8690.1497   -8597.3957    171.67983      19578.2    52.750332 
    7960    810.25201   -8687.9888   -8597.6039    484.31563     19576.35    52.746038 
    7970      822.959   -8689.5145   -8597.7122    305.41473    19574.987    52.749631 
    7980    840.61468   -8691.5095   -8597.7376     -188.729    19573.941    52.775177 
    7990    839.79173   -8691.3857   -8597.7056   -823.89575     19572.67    52.809901 
    8000    854.91953   -8693.0059   -8597.6383   -1229.4434    19570.521       52.829 
    8010    835.58258   -8690.7389   -8597.5284   -1050.4332     19567.09    52.825222 
    8020    840.04872   -8691.0903   -8597.3816   -1248.6294    19562.429    52.808247 
    8030    845.54322   -8691.4935   -8597.1718    -1026.127    19556.437    52.784281 
    8040     860.8669   -8692.9541   -8596.9231   -674.06885    19549.314    52.756591 
    8050    875.22992   -8694.2917   -8596.6584   -830.41673    19541.399    52.725509 
    8060    859.48266   -8692.2788   -8596.4022   -516.19787    19532.635    52.689022 
    8070    840.27028   -8689.8704    -8596.137   -121.35883    19523.298    52.648064 
    8080    840.90452    -8689.614   -8595.8099   -451.47501    19513.771    52.603331 
    8090    875.22766   -8693.0584   -8595.4254   -1346.1802     19503.67    52.549108 
    8100    862.03444   -8691.1739   -8595.0126    -631.1632    19492.258    52.476425 
    8110    849.83931   -8689.3801   -8594.5793    169.23239    19480.137    52.401514 
    8120     852.8158   -8689.2143   -8594.0814   -92.645812    19468.077    52.346289 
    8130    868.87047   -8690.4384   -8593.5146   -567.80412    19455.903    52.306793 
    8140    902.34267    -8693.568   -8592.9103   -745.19509    19443.124    52.269449 
    8150    910.56194   -8693.9095    -8592.335   -110.57153    19429.598    52.227717 
    8160    893.98806   -8691.5532   -8591.8275    788.01922     19415.98    52.187806 
    8170     907.2773    -8692.593   -8591.3848    1184.3393    19403.154    52.149549 
    8180    885.83809   -8689.8091   -8590.9926    2051.8562    19391.658    52.104177 
    8190    889.11802   -8689.8227   -8590.6403    2172.7492    19382.329    52.057246 
    8200    945.60194   -8695.8229   -8590.3396    448.00549     19375.18    52.021675 
    8210    920.47352    -8692.856   -8590.1758   -821.78013    19368.575    52.002449 
    8220    883.98077   -8688.7542   -8590.1448   -1160.6154    19361.156    52.002206 
    8230    906.87455   -8691.3637   -8590.2005    -1636.122    19352.415    52.018651 
    8240    876.49865   -8688.1112   -8590.3364   -1282.9645    19341.962    52.039213 
    8250    866.83783    -8687.237   -8590.5399      -770.86    19330.113    52.050476 
    8260    904.56628     -8691.75   -8590.8443   -585.82457    19317.353    52.044206 
    8270    876.70338   -8689.0957   -8591.2981    526.44304    19304.031    52.023413 
    8280    867.63049   -8688.6756   -8591.8901    1249.9417     19291.21    51.993548 
    8290    898.39791   -8692.8636    -8592.646     847.8988    19279.584     51.94981 
    8300    917.96397   -8696.0282   -8593.6279    584.80978    19268.867     51.89737 
    8310    908.66162   -8696.1909   -8594.8284    554.07278    19258.772    51.843847 
    8320    874.70745   -8693.6468   -8596.0718    651.29752    19249.273    51.790397 
    8330    884.43222   -8695.9033   -8597.2435    331.92006    19240.398    51.740833 
    8340    870.88765   -8695.4212   -8598.2723    904.30165    19231.958    51.699922 
    8350    870.72268   -8696.2594    -8599.129    1635.0715    19224.473    51.671297 
    8360    869.18578   -8696.7967   -8599.8377    2244.0104    19218.718    51.661664 
    8370     867.4867   -8697.2004    -8600.431    2455.1516    19215.342    51.669914 
    8380    889.15563   -8700.1539   -8600.9672    1336.3617    19214.467    51.687162 
    8390    875.87625   -8699.1845   -8601.4792    297.73002     19215.05     51.70763 
    8400    889.57905   -8701.2205   -8601.9866   -440.31786    19215.991    51.729981 
    8410    886.63581   -8701.4283   -8602.5228   -13.079602    19216.567    51.752186 
    8420    826.90756   -8695.2549   -8603.0122    1825.1136    19217.288    51.770074 
    8430    845.70282   -8697.7577   -8603.4183    1978.8008     19219.79    51.783548 
    8440    854.55097   -8699.0726   -8603.7461    1409.8896    19224.406    51.801247 
    8450    862.67554   -8700.2795   -8604.0468    836.25977    19230.573    51.833636 
    8460    845.68719   -8698.6616   -8604.3239    684.49278    19237.749    51.893697 
    8470    838.02141     -8698.04   -8604.5574   -286.08805    19245.648    51.985728 
[...]
   22890    891.47251   -8762.2972   -8662.8521     1279.109    19275.671    93.321452 
   22900    881.59008    -8761.471   -8663.1283    1860.1311    19270.558    93.178271 
   22910    871.82112    -8760.678    -8663.425    1374.8436    19267.428    93.051133 
   22920    870.86808   -8760.8754   -8663.7288     958.9104    19265.852    92.941924 
   22930    883.60679   -8762.6096    -8664.042    594.70973    19265.343    92.865699 
   22940     883.8774   -8762.9795   -8664.3816    213.76511    19265.484    92.829313 
   22950    876.09637   -8762.4476   -8664.7177   -244.63152     19265.84    92.820337 
   22960    892.98258   -8764.6882   -8665.0747   -597.42973    19265.929     92.80852 
   22970    859.82697   -8761.3519   -8665.4369   -221.68049    19265.441    92.771238 
   22980    873.77509   -8763.2605   -8665.7896   -493.22778    19264.643    92.709349 
   22990    879.74692   -8764.2694   -8666.1323    -697.4713    19263.348    92.636413 
   23000    866.55234   -8763.1474   -8666.4822   -281.26213    19261.382    92.564254 
   23010    862.59745   -8763.0545   -8666.8305   -423.10993    19259.096    92.482305 
   23020    871.15714   -8764.3639    -8667.185   -928.36943    19256.351    92.374481 
   23030    873.02867   -8764.9539   -8667.5663   -994.61366    19252.677    92.242424 
   23040    854.07345   -8763.2262    -8667.953   -610.23409    19248.054    92.084238 
   23050    850.37289    -8763.176   -8668.3156   -653.25008    19242.787    91.899909 
   23060    838.26209   -8762.1318   -8668.6224   -700.61283    19236.892     91.69508 
   23070    838.97559   -8762.4592   -8668.8702   -545.85474    19230.345    91.480668 
   23080    846.00941   -8763.4223   -8669.0487    -475.3642    19223.298    91.269436 
   23090      872.655   -8766.5455   -8669.1995   -671.14426    19215.814    91.063058 
   23100    870.99203   -8766.5246   -8669.3642   -2.4477333    19207.797    90.853697 
   23110    829.43682   -8762.0455   -8669.5205    808.27272    19199.879     90.64113 
   23120    844.00416   -8763.7768   -8669.6268    715.10053    19192.832    90.431955 
   23130    864.19429   -8766.0907   -8669.6885    999.98817    19186.686    90.232823 
   23140    857.16997   -8765.3602   -8669.7416    790.99404    19181.634    90.061923 
   23150     860.7171   -8765.8197   -8669.8054   -247.72557    19177.417    89.920279 
   23160    848.96445    -8764.563   -8669.8598   -819.64263     19173.04    89.795678 
   23170    865.13473   -8766.4034   -8669.8964   -1373.3202    19167.834    89.679493 
   23180    867.85902   -8766.7473   -8669.9363   -1164.0459    19161.308    89.567606 
   23190    847.19933   -8764.4933   -8669.9869   -223.80728    19153.695    89.453702 
   23200    839.64183   -8763.6808   -8670.0175   -86.072942     19145.85    89.344437 
   23210    842.11079   -8763.9431   -8670.0044   -747.17266    19137.949    89.256471 
   23220    837.61021   -8763.3795   -8669.9428   -1789.5889    19129.322    89.187613 
   23230    833.89667   -8762.8384    -8669.816   -2773.2408    19118.897    89.127699 
   23240    873.94511   -8767.1097   -8669.6198   -3616.2384     19105.64    89.065028 
   23250    877.72276   -8767.2842   -8669.3729    -2858.473    19088.861    88.969971 
   23260    849.32347   -8763.8257   -8669.0823   -804.17198    19069.368    88.828139 
   23270    842.07923   -8762.6255   -8668.6903    714.80501    19049.173    88.651968 
   23280    852.55227    -8763.265   -8668.1615    922.91822    19029.811    88.454638 
   23290    885.60984   -8766.3191    -8667.528    475.21775    19011.584    88.238065 
   23300    874.59324   -8764.4027   -8666.8405     1029.839    18994.154    88.011505 
   23310    882.09521   -8764.5385   -8666.1394    1933.2498    18977.992    87.810374 
   23320    890.48123   -8764.7631   -8665.4286    2751.7728    18964.006    87.661345 
   23330    867.36132   -8761.5185   -8664.7631    3208.3486     18953.01     87.54966 
   23340    878.53518    -8762.152   -8664.1501     2900.704    18945.397    87.439159 
   23350    883.54393   -8762.1459   -8663.5852    2666.7211    18940.887    87.303239 
   23360     891.5997   -8762.5588   -8663.0995     2629.585     18939.23     87.14155 
   23370    912.68405   -8764.5163    -8662.705    1972.0613    18940.278     86.97005 
   23380    904.79766   -8763.3481   -8662.4166      1254.77    18943.375    86.797576 
   23390    890.33531   -8761.5405   -8662.2222    808.85789     18947.79    86.623891 
   23400    892.87622   -8761.6867   -8662.0851    188.09866    18953.007     86.45127 
   23410    896.04621   -8761.9605   -8662.0052    36.012484    18958.446    86.281551 
   23420    888.97642   -8761.1524   -8661.9857     420.7182    18963.953    86.102878 
   23430    922.09189   -8764.8999   -8662.0392   -78.933799    18969.748    85.912434 
   23440    909.81912   -8763.6998   -8662.2081    -53.63174    18975.474    85.726749 
   23450    871.89007    -8759.732   -8662.4714    -346.6602    18981.065    85.558905 
   23460    907.01445    -8763.987   -8662.8082   -2172.6625    18986.085     85.41005 
   23470    894.35398    -8763.009   -8663.2425   -2683.9623    18988.928    85.290252 
   23480    884.35177     -8762.41   -8663.7593   -2138.3251    18989.056    85.205631 
   23490      907.352   -8765.5984   -8664.3819   -2005.4252     18986.92    85.138806 
   23500    854.66396   -8760.3959   -8665.0569    -1388.299    18982.782    85.076657 
   23510    875.52481   -8763.4017   -8665.7356   -1677.8736    18977.154    85.023755 
   23520     908.6492   -8767.8262    -8666.465   -1834.9634    18969.854    84.971243 
   23530    879.96918   -8765.3859   -8667.2241   -221.13139    18960.919    84.906039 
   23540     885.5263   -8766.7428    -8667.961    586.44888    18951.765    84.832947 
   23550    879.63312   -8766.7733   -8668.6489    931.68796    18943.267    84.753808 
   23560    866.76434   -8765.9321   -8669.2432    1273.4277    18935.814     84.66977 
   23570    884.37272   -8768.4155   -8669.7624     1079.464    18929.691    84.602247 
   23580     869.5975   -8767.2284   -8670.2235    1246.9344    18924.774    84.569405 
   23590    860.80348   -8766.6329    -8670.609    1595.9401    18921.218     84.56582 
   23600     886.5024   -8769.8389   -8670.9483    1266.5979    18919.288    84.600318 
   23610    886.68474   -8770.1945   -8671.2835    1038.1213    18918.705    84.683934 
   23620    848.76992   -8766.2739   -8671.5924    1461.6218    18919.279     84.80935 
   23630    836.17733   -8765.1013   -8671.8245    1314.7374     18921.32    84.963542 
   23640    862.72874   -8768.2357    -8671.997    532.32696    18924.669    85.124486 
   23650      852.136   -8767.1916   -8672.1345    -174.9964    18928.569    85.269061 
   23660    854.69758   -8767.5924   -8672.2496   -1050.6837    18932.247    85.389718 
   23670    870.15351   -8769.4154   -8672.3484   -1693.6363    18934.844    85.495962 
   23680    846.38818   -8766.8619    -8672.446   -1014.3023    18935.805    85.602179 
   23690    820.84881   -8764.0651   -8672.4981    410.50718    18935.807    85.727539 
   23700    872.77581   -8769.8648   -8672.5053    324.50007    18936.067    85.880306 
   23710    880.69323   -8770.7482   -8672.5055    589.67955    18936.745    86.050659 
   23720    865.26407   -8769.0592   -8672.5377    482.84878     18937.99    86.218144 
   23730    863.73413   -8768.9285   -8672.5776     343.6723    18939.708    86.369343 
   23740    851.04447   -8767.5387   -8672.6034    871.95627    18941.862     86.50465 
   23750    860.06409   -8768.5536   -8672.6122    548.99983    18944.844    86.629669 
   23760    870.39588   -8769.7104   -8672.6164   -13.003509    18948.383     86.74533 
   23770    882.49328   -8771.0849   -8672.6414   -392.84081    18951.901    86.835507 
   23780    899.38004   -8773.0525   -8672.7253   -421.25283    18955.024    86.889649 
   23790     883.7819   -8771.4766   -8672.8894   -92.795986    18957.745    86.916617 
   23800    866.46224   -8769.7774   -8673.1223    100.03499    18960.335    86.932094 
   23810    847.72799   -8767.9385   -8673.3732    608.81281    18963.063    86.954665 
   23820    865.19044   -8770.1402   -8673.6269    522.57464    18966.361    86.994928 
   23830    881.24676   -8772.2203   -8673.9159   -8.9677681    18970.161    87.044678 
   23840    856.68988   -8769.8225   -8674.2574   -353.14385    18973.968    87.088413 
   23850    848.58652   -8769.2784   -8674.6173   -871.50493    18977.381    87.118667 
   23860    863.65341   -8771.3458    -8675.004   -824.16784    18979.937    87.146562 
   23870    839.92706   -8769.1085   -8675.4134    244.25278    18981.723    87.198242 
   23880    821.92161   -8767.4932   -8675.8066    527.47122    18983.677    87.288033 
   23890    843.51893   -8770.2603   -8676.1645   -490.38583    18986.067    87.403751 
   23900    859.94974   -8772.4489   -8676.5202   -907.60826    18988.015    87.526043 
   23910    849.40938   -8771.6579    -8676.905    -51.12673    18989.138    87.649652 
   23920    832.05661   -8770.1185   -8677.3013    930.99186    18990.234    87.774462 
   23930    830.27536   -8770.3042   -8677.6857    874.50634    18992.207    87.902927 
   23940    827.88783   -8770.3882    -8678.036    468.58514    18995.068    88.043368 
   23950    827.50693   -8770.6468   -8678.3372    233.40256    18998.435    88.200592 
   23960    838.70399   -8772.1484   -8678.5897   -13.418422    19002.037    88.361302 
   23970    856.17813   -8774.3173   -8678.8094   -132.28563    19005.653    88.513729 
   23980    886.71151   -8777.9632   -8679.0492   -515.07049    19009.114    88.659194 
   23990    871.96958   -8776.6371   -8679.3676   -500.62263    19012.104    88.799536 
   24000    835.18015   -8772.9019   -8679.7363   -921.37551    19014.543     88.92933 
   24010    847.20859    -8774.625   -8680.1176   -2313.0389    19015.913    89.038433 
   24020       828.04   -8772.8648   -8680.4957   -2460.2879    19014.972    89.099685 
   24030    804.96275   -8770.6276   -8680.8327   -1465.6548    19011.554    89.093255 
   24040    824.61814   -8773.1026   -8681.1152   -941.76098    19006.537     89.03444 
   24050    809.09757     -8771.58    -8681.324    256.40138    19000.604    88.961762 
   24060    812.74349   -8772.1117    -8681.449    1576.2839    18994.941    88.914984 
   24070    814.41656   -8772.3255   -8681.4761    2958.1014    18990.965    88.913316 
   24080    806.66806   -8771.3851   -8681.4001    3349.9345    18989.998    88.951973 
   24090    822.74036   -8772.9862   -8681.2083    2410.2093    18992.437     89.01353 
   24100    830.37377   -8773.5163   -8680.8868    1728.7015    18997.474    89.076593 
   24110    853.38987   -8775.6488   -8680.4519    1020.3933    19004.333    89.132498 
   24120     872.7599   -8777.2852   -8679.9275    118.18949    19012.252    89.187282 
   24130     860.9156   -8775.4013   -8679.3648   -18.310825    19020.382    89.250604 
   24140    832.88202   -8771.6768   -8678.7676   -28.481687     19028.53    89.324989 
   24150    844.42095   -8772.2998   -8678.1033   -823.83645    19036.595    89.407028 
   24160    846.79381   -8771.8235   -8677.3624   -1314.9333    19043.878    89.490008 
   24170    846.55402   -8771.0345   -8676.6001    -1463.007    19049.827    89.573135 
   24180    876.54753   -8773.6254   -8675.8452   -1628.5352    19054.237    89.657897 
   24190    869.20607   -8772.1009   -8675.1397    -516.2324    19057.086    89.741948 
   24200    835.42649   -8767.7167   -8674.5236    850.97417    19059.436    89.826647 
   24210    848.16804   -8768.5643   -8673.9499    1001.9724     19062.57    89.928229 
   24220    845.70126   -8767.7365   -8673.3973    807.48558    19066.763    90.052147 
   24230    854.93649   -8768.2638   -8672.8943   -192.22281    19071.752    90.195053 
   24240    869.30089   -8769.4048    -8672.433   -1180.8594    19076.572    90.355217 
   24250    889.13458   -8771.2172   -8672.0329   -1542.2011    19080.236    90.536558 
   24260    889.11756   -8770.8824      -8671.7    -1574.557    19082.304     90.73714 
   24270    899.10339   -8771.7374   -8671.4411   -1907.1808    19082.662    90.944282 
   24280    917.17249   -8773.5962   -8671.2842   -2030.2199    19081.009    91.146636 
   24290    901.95931   -8771.8749     -8671.26   -1207.9897    19077.307     91.34214 
   24300    883.54395   -8769.8883   -8671.3277   -922.74144    19072.259    91.526746 
   24310     890.0959   -8770.7561   -8671.4646   -1076.9512     19066.19    91.678067 
   24320    875.35206   -8769.3102   -8671.6633   -654.28144    19059.032    91.774845 
   24330    856.65539   -8767.4495   -8671.8883    610.94379     19051.26    91.819929 
   24340    851.95343   -8767.1148   -8672.0782    1742.6822     19044.08    91.841519 
   24350    876.86706   -8770.0545   -8672.2386    2509.6345    19038.689    91.874196 
   24360    886.35367    -8771.299    -8672.425    3289.1252    19035.961    91.939632 
   24370    867.56079   -8769.4346   -8672.6569    3796.3956    19036.684    92.025639 
   24380    863.26966   -8769.2162   -8672.9172    3459.9536    19041.356    92.111138 
   24390     876.0831   -8770.9285   -8673.2001     2432.878    19049.644    92.202832 
   24400    874.57173   -8771.0762   -8673.5164    1465.4555     19060.54    92.314712 
   24410    871.64211    -8771.103     -8673.87    471.22531    19073.002    92.456208 
   24420    868.78363   -8771.1563   -8674.2422   -230.39338    19086.061    92.625016 
   24430    874.09346   -8772.1289   -8674.6225   -1833.6177     19098.83    92.807044 
   24440    897.75429   -8775.1791   -8675.0333   -4184.0322    19109.611    92.978187 
   24450    891.80372   -8775.0059   -8675.5239    -4989.384    19116.112    93.115878 
   24460    859.81169   -8771.9885   -8676.0752   -4374.2837     19117.46    93.220843 
   24470    865.22517   -8773.1819   -8676.6647   -4051.1022    19114.105    93.311913 
   24480    850.24899   -8772.1065   -8677.2599   -3314.0359    19106.498    93.400749 
   24490    845.02824   -8772.0862    -8677.822   -2623.4842    19095.375    93.492474 
   24500    851.91786   -8773.3696   -8678.3369   -1674.8252     19081.51    93.598571 
   24510    866.52392   -8775.4764   -8678.8143   -310.79672    19065.926    93.727043 
   24520    864.57547   -8775.7094   -8679.2647    473.31735    19049.982    93.872116 
   24530    857.50262   -8775.3382   -8679.6825    103.34765     19034.46    94.033446 
   24540    858.04911   -8775.7486   -8680.0319   -517.14518    19019.083    94.201803 
   24550    853.87094   -8775.5499   -8680.2993   -516.18697    19003.297    94.350284 
   24560    846.85111   -8774.9746   -8680.5071   -212.91847    18987.058    94.466553 
   24570    832.44872    -8773.518   -8680.6571    112.18614    18970.694    94.562744 
   24580    854.56315   -8776.0765   -8680.7487    246.71597    18954.538    94.659262 
   24590    890.16777   -8780.1167   -8680.8172    1043.3323    18938.808    94.754416 
   24600    879.42245    -8778.999   -8680.8981    2279.5001      18924.3    94.828703 
   24610     870.0303   -8778.0539   -8681.0008    3062.4978    18912.205    94.871405 
   24620    863.90516   -8777.4833   -8681.1133    3754.7569    18903.371    94.881825 
   24630    855.79608   -8776.6885   -8681.2231    3777.6195    18898.439    94.877974 
   24640    843.76484   -8775.4448   -8681.3216    3131.1397    18897.383      94.8969 
   24650    827.55174   -8773.6889   -8681.3742     2608.212    18899.623    94.966191 
   24660    862.87081   -8777.6453   -8681.3908    1413.9487     18904.51    95.084265 
   24670    864.05667    -8777.783   -8681.3961    411.42363    18910.867    95.216002 
   24680    859.95417   -8777.3389   -8681.4097   -740.77063    18917.617    95.315175 
   24690    865.64207   -8777.9842   -8681.4206   -1971.1726    18923.566    95.365805 
   24700    841.26867   -8775.2636   -8681.4189    -2357.766    18927.564    95.363618 
   24710      862.709   -8777.6464   -8681.4099    -3333.115    18929.012    95.303066 
   24720    862.76927    -8777.632   -8681.3888   -3337.8785    18927.092    95.190305 
   24730    863.91585   -8777.7582   -8681.3871   -2948.0081    18921.739    95.033174 
   24740    871.17931   -8778.6021   -8681.4207   -2411.7684     18913.37    94.823496 
   24750    854.35783   -8776.7648   -8681.4599   -1269.5709    18902.637    94.557353 
   24760    862.18396   -8777.6453   -8681.4674   -534.50565    18890.626    94.253011 
   24770    839.54563   -8775.0548   -8681.4022    745.02959    18878.247    93.934946 
   24780    841.81521   -8775.1637    -8681.258    1714.3671    18866.761    93.616235 
   24790    880.29922   -8779.2818   -8681.0831    1629.1768     18857.05    93.305903 
   24800    859.61204   -8776.8338   -8680.9428    2421.6348    18849.221    93.010843 
   24810    837.17518   -8774.2094   -8680.8213    3122.7869    18843.962    92.754131 
   24820    871.11551   -8777.8562    -8680.682     3389.617    18841.936    92.554462 
   24830    866.50872    -8777.196   -8680.5357    3661.9851    18843.459    92.405353 
   24840     861.0706   -8776.4717    -8680.418    2961.1811    18848.648     92.28803 
   24850    843.63488   -8774.4062   -8680.2975    1818.8177    18856.776    92.183299 
   24860    841.22429   -8773.9758    -8680.136    943.04208    18866.715    92.080563 
   24870    879.73127   -8778.0716   -8679.9362    411.20545    18877.531    91.981962 
   24880    860.08455   -8775.6746   -8679.7308    1222.9228    18888.769    91.902285 
   24890    869.56336    -8776.523   -8679.5219    1228.4457    18901.045    91.854943 
   24900    921.54777   -8782.1116   -8679.3116   -431.70845     18914.28    91.844013 
   24910    894.73958    -8778.976   -8679.1664   -1745.8942    18926.966    91.862642 
   24920    885.32551   -8777.8756   -8679.1162   -2777.8889    18937.719    91.882097 
   24930    876.00531   -8776.8444   -8679.1247   -3067.1207    18945.523    91.858812 
   24940    850.38925   -8774.0277   -8679.1655   -2734.0893    18950.102    91.786495 
   24950    865.86588   -8775.8059   -8679.2172   -2681.6794    18951.758    91.693589 
   24960    864.52828     -8775.72   -8679.2806   -2552.4431    18950.628    91.611599 
   24970    860.43602   -8775.3454   -8679.3625   -2615.4714    18946.851    91.551295 
   24980    887.43034   -8778.4796   -8679.4854   -2831.8234     18940.39    91.497233 
   24990    873.12475   -8777.0771   -8679.6788   -1618.7299    18931.226    91.436476 
   25000    851.15975   -8774.8713   -8679.9232    194.19079    18920.579    91.371404 
Loop time of 14354.8 on 16 procs for 20000 steps with 864 atoms

Performance: 0.120 ns/day, 199.372 hours/ns, 1.393 timesteps/s
95.5% CPU use with 16 MPI tasks x 1 OpenMP threads

MPI task timing breakdown:
Section |  min time  |  avg time  |  max time  |%varavg| %total
---------------------------------------------------------------
Pair    | 4796.2     | 8332.9     | 13915      |3853.7 | 58.05
Bond    | 0.0020542  | 0.0055437  | 0.010825   |   3.9 |  0.00
Neigh   | 0.16484    | 0.35073    | 0.67637    |  32.0 |  0.00
Comm    | 133.56     | 4559.2     | 8942.5     |4410.2 | 31.76
Output  | 1.9337     | 1.959      | 2.3271     |   6.8 |  0.01
Modify  | 99.906     | 1460.4     | 5805.9     |5204.8 | 10.17
Other   |            | 0.09647    |            |       |  0.00

Nlocal:        54.0000 ave          88 max          30 min
Histogram: 4 4 1 1 0 0 1 1 0 4
Nghost:        521.938 ave         725 max         332 min
Histogram: 3 1 2 2 0 1 1 3 1 2
Neighs:         0.00000 ave           0 max           0 min
Histogram: 16 0 0 0 0 0 0 0 0 0
FullNghs:      2812.00 ave        6045 max         838 min
Histogram: 7 1 2 0 0 0 1 1 1 3

Total # of neighbors = 44992
Ave neighs/atom = 52.074074
Ave special neighs/atom = 0.0000000
Neighbor list builds = 2000
Dangerous builds = 2000
unfix   3
                
Total wall time: 4:54:37
