LAMMPS (29 Sep 2021 - Update 3)
OMP_NUM_THREADS environment is not set. Defaulting to 1 thread. (src/comm.cpp:98)
  using 1 OpenMP thread(s) per MPI task
Reading data file ...
  orthogonal box = (0.0000000 0.0000000 0.0000000) to (15.857269 15.758596 73.856324)
  2 by 1 by 8 MPI processor grid
  reading atoms ...
  864 atoms
Finding 1-2 1-3 1-4 neighbors ...
  special bond factors lj:    0        0        0       
  special bond factors coul:  0        0        0       
     0 = max # of 1-2 neighbors
     0 = max # of 1-3 neighbors
     0 = max # of 1-4 neighbors
     1 = max # of special neighbors
  special bonds CPU = 0.001 seconds
  read_data CPU = 0.008 seconds
Neighbor list info ...
  update every 1 steps, delay 10 steps, check yes
  max neighbors/atom: 2000, page size: 100000
  master list distance cutoff = 6.22
  ghost atom cutoff = 6.22
  binsize = 3.11, bins = 6 6 24
  1 neighbor lists, perpetual/occasional/extra = 1 0 0
  (1) pair quip, perpetual
      attributes: full, newton on
      pair build: full/bin
      stencil: full/bin/3d
      bin: standard
Setting up Verlet run ...
  Unit style    : metal
  Current step  : 0
  Time step     : 0.001
Per MPI rank memory allocation (min/avg/max) = 8.896 | 8.907 | 8.915 Mbytes
Step Temp PotEng TotEng Press Volume c_msd[4] 
       0            0   -6680.0933   -6680.0933   -8281.1165    18455.831            0 
      10    70.089017   -6687.9205    -6680.102   -9637.9304    18455.831 0.00053514082 
      20    180.09083   -6700.2003   -6680.1109   -11326.743    18455.831 0.0066144209 
      30    218.60542   -6704.4933   -6680.1075   -10699.378    18455.831  0.022432956 
      40    219.14865   -6704.5494    -6680.103   -8951.3193    18455.831  0.042690684 
      50    240.47609   -6706.9311   -6680.1056   -8003.5149    18455.831  0.059191698 
      60    253.66901   -6708.4039   -6680.1068    -7626.627    18455.831   0.07070925 
      70     242.9182   -6707.2018   -6680.1039   -7466.6829    18455.831  0.079364222 
      80    245.92472    -6707.537   -6680.1038   -7609.4954    18455.831  0.086633288 
      90    257.49674   -6708.8305   -6680.1063   -7851.5904    18455.831  0.095173812 
     100    252.46946   -6708.2676   -6680.1043   -7551.0395    18455.831   0.10676573 
     110    248.46405   -6707.8212   -6680.1047   -7097.6705    18455.831   0.12025968 
     120    250.68872   -6708.0687    -6680.104   -6824.8497    18455.831   0.13340609 
     130      258.818   -6708.9777   -6680.1062   -6596.3887    18455.831   0.14573975 
     140    253.60976   -6708.3953   -6680.1047   -6185.2051    18455.831   0.15889724 
     150    247.40375   -6707.7026   -6680.1043   -5947.5032    18455.831   0.17318983 
     160    248.95468   -6707.8762   -6680.1049   -5851.7986    18455.831   0.18766652 
     170    251.06346   -6708.1121   -6680.1056   -5590.4969    18455.831   0.20144657 
     180    246.23782    -6707.572   -6680.1038   -5247.2261    18455.831   0.21382042 
     190    251.48989   -6708.1586   -6680.1045   -5416.1608    18455.831   0.22371169 
     200    260.44308   -6709.1586   -6680.1058   -5793.9896    18455.831   0.23141162 
     210    257.82494   -6708.8658    -6680.105   -6133.6533    18455.831   0.23844771 
     220    250.73963   -6708.0747   -6680.1043   -6257.2025    18455.831   0.24564622 
     230    248.07271   -6707.7773   -6680.1044   -6243.0592    18455.831   0.25309034 
     240    248.93862   -6707.8742   -6680.1047   -6226.9294    18455.831   0.26091643 
     250    248.99388   -6707.8804   -6680.1047   -6334.5414    18455.831   0.26913526 
     260    251.27669   -6708.1344   -6680.1041   -6551.8246    18455.831   0.27705303 
     270    260.34527   -6709.1477   -6680.1058        -6764    18455.831   0.28421607 
     280    260.83001   -6709.2011   -6680.1051   -6639.8092    18455.831   0.29163604 
     290    256.24266   -6708.6893    -6680.105   -6449.9322    18455.831   0.29974682 
     300    250.69638     -6708.07   -6680.1044   -6471.1016    18455.831   0.30849754 
     310    250.05901    -6707.999   -6680.1046   -6562.0942    18455.831   0.31777754 
     320    252.23509   -6708.2423   -6680.1051   -6693.6464    18455.831   0.32755563 
     330    250.81469   -6708.0833   -6680.1046   -6713.8004    18455.831   0.33779883 
     340    250.65515   -6708.0657   -6680.1047     -6614.52    18455.831   0.34801692 
     350    252.94275   -6708.3202   -6680.1041   -6588.7327    18455.831   0.35730468 
     360    261.50627   -6709.2774    -6680.106   -6797.9362    18455.831   0.36504658 
     370    261.10007   -6709.2316   -6680.1055   -6831.7443    18455.831   0.37190178 
     380    253.99916   -6708.4387   -6680.1047   -6726.1215    18455.831   0.37827271 
     390    253.05009   -6708.3325   -6680.1044    -6835.806    18455.831   0.38397661 
     400    258.03703   -6708.8906   -6680.1062   -6768.7818    18455.831   0.38955387 
     410      252.036   -6708.2195   -6680.1045   -6292.4532    18455.831   0.39652014 
     420    250.52201   -6708.0507   -6680.1046   -5826.2725    18455.831   0.40500255 
     430    256.29495   -6708.6954   -6680.1053    -5546.315    18455.831    0.4145153 
     440    262.43605   -6709.3808   -6680.1057   -5439.0868    18455.831   0.42473971 
     450    264.26046   -6709.5844   -6680.1058   -5272.9671    18455.831   0.43527985 
     460    262.52327   -6709.3894   -6680.1046   -5195.9426    18455.831   0.44476232 
     470    267.68384   -6709.9661   -6680.1056   -5304.7962    18455.831   0.45177569 
     480    270.55653   -6710.2863   -6680.1053   -5291.2639    18455.831   0.45687774 
     490    270.72724   -6710.3054   -6680.1053   -5218.7322    18455.831   0.46120142 
     500    269.05227   -6710.1187   -6680.1055   -5175.8745    18455.831   0.46642946 
     510    263.94553   -6709.5489   -6680.1053   -5239.9274    18455.831   0.47407361 
     520    257.63711   -6708.8446   -6680.1048   -5291.7388    18455.831   0.48412853 
     530    257.06548   -6708.7811   -6680.1051   -5321.5334    18455.831   0.49506416 
     540    260.38526   -6709.1518   -6680.1055   -5376.0867    18455.831   0.50501047 
     550    260.91759   -6709.2118    -6680.106    -5479.615    18455.831   0.51322197 
     560    255.01677   -6708.5518   -6680.1043   -5675.0057    18455.831   0.52041437 
     570     259.1908   -6709.0183   -6680.1051   -6233.3417    18455.831    0.5272333 
     580    265.73933   -6709.7494   -6680.1058   -6810.0612    18455.831   0.53425593 
     590    267.07214   -6709.8973    -6680.105   -7271.0617    18455.831   0.54173358 
     600    270.59769   -6710.2906    -6680.105   -7669.4363    18455.831   0.54966243 
     610    275.51295   -6710.8394   -6680.1055   -7859.4286    18455.831   0.55825095 
     620    275.26386   -6710.8118   -6680.1057   -7564.3126    18455.831   0.56786247 
     630    267.62803    -6709.959   -6680.1047   -6980.9593    18455.831   0.57832835 
     640    265.09163   -6709.6761   -6680.1047   -6568.2152    18455.831   0.58820723 
     650    267.67247   -6709.9653    -6680.106    -6347.284    18455.831   0.59641333 
     660    264.01415   -6709.5562    -6680.105   -5916.0469    18455.831   0.60309646 
     670    263.52965    -6709.502   -6680.1049   -5671.0684    18455.831   0.60844331 
     680    269.00124    -6710.113   -6680.1055   -5692.2827    18455.831    0.6132683 
     690    271.45591    -6710.387   -6680.1057   -5574.8525    18455.831   0.61933075 
     700     270.0884   -6710.2336   -6680.1048   -5412.3704    18455.831   0.62727776 
     710    274.16504    -6710.689   -6680.1055   -5445.9009    18455.831   0.63604213 
     720    276.77226   -6710.9801   -6680.1057   -5459.4182    18455.831   0.64454539 
     730    275.88502   -6710.8806   -6680.1052    -5417.932    18455.831   0.65171241 
     740    275.85971   -6710.8783   -6680.1057   -5536.9233    18455.831   0.65662341 
     750    272.97993   -6710.5569   -6680.1056   -5708.1328    18455.831    0.6598394 
     760    268.28422    -6710.033   -6680.1055   -5761.8441    18455.831   0.66298993 
     770    264.14144   -6709.5705   -6680.1051   -5775.8492    18455.831   0.66717813 
     780    263.51726    -6709.501   -6680.1053   -5700.2554    18455.831   0.67265545 
     790    266.55703   -6709.8409    -6680.106    -5605.591    18455.831   0.67864068 
     800    265.59911   -6709.7343   -6680.1063   -5512.5062    18455.831   0.68325498 
     810    257.26872   -6708.8037    -6680.105    -5609.846    18455.831   0.68551207 
     820    257.02246   -6708.7759   -6680.1047   -5957.2323    18455.831   0.68532325 
     830    268.49996   -6710.0576    -6680.106   -6395.3276    18455.831   0.68384718 
     840      275.603   -6710.8497   -6680.1057   -6790.5333    18455.831   0.68323699 
     850    277.81756   -6711.0961   -6680.1052   -7039.0507    18455.831   0.68429619 
     860    281.61629     -6711.52   -6680.1053    -7112.387    18455.831   0.68675849 
     870    285.63694   -6711.9688   -6680.1055   -6936.0551    18455.831    0.6904508 
     880    286.29079   -6712.0419   -6680.1057   -6480.6542    18455.831   0.69538495 
     890    281.96956   -6711.5596   -6680.1055   -6039.8274    18455.831   0.70113257 
     900    274.65893   -6710.7442   -6680.1055     -5564.23    18455.831   0.70667182 
     910    267.20366   -6709.9114   -6680.1045   -5257.3591    18455.831   0.71136984 
     920     269.3838   -6710.1555   -6680.1053    -5367.122    18455.831   0.71512054 
     930    273.08823   -6710.5689   -6680.1055   -5720.7294    18455.831   0.71853359 
     940    275.14424   -6710.7982   -6680.1055   -5917.6904    18455.831   0.72236347 
     950    276.67291   -6710.9689   -6680.1056   -5610.0935    18455.831   0.72713733 
     960    276.62748   -6710.9635   -6680.1053   -5046.3658    18455.831   0.73337224 
     970     278.3434   -6711.1556   -6680.1059   -4610.3497    18455.831   0.74121898 
     980    276.50421   -6710.9503   -6680.1058   -4305.2609    18455.831   0.75038076 
     990    274.46428   -6710.7216   -6680.1047   -4327.9119    18455.831   0.75935205 
    1000    282.87647   -6711.6614   -6680.1061   -4696.6429    18455.831   0.76641954 
    1010    286.63377   -6712.0812   -6680.1068   -4990.2699    18455.831   0.77271728 
    1020    279.06324   -6711.2352   -6680.1053   -4771.2676    18455.831   0.78024384 
    1030    275.82234   -6710.8738   -6680.1054    -4403.339    18455.831   0.78871428 
    1040    278.66942   -6711.1919   -6680.1059   -3941.2604    18455.831   0.79675694 
    1050    279.04998   -6711.2352   -6680.1068   -3356.1301    18455.831   0.80429238 
    1060    270.39607   -6710.2685   -6680.1054   -2836.7873    18455.831   0.81167046 
    1070    268.92869   -6710.1046   -6680.1052   -2775.6081    18455.831   0.81774479 
    1080    276.86697   -6710.9921   -6680.1072   -2982.0197    18455.831   0.82183502 
    1090    273.51021   -6710.6167   -6680.1062   -3002.8881    18455.831   0.82504043 
    1100    268.10286   -6710.0129   -6680.1056    -3041.916    18455.831   0.82859974 
    1110    268.86345   -6710.0983   -6680.1061   -3274.5241    18455.831   0.83307382 
    1120    271.12867   -6710.3511   -6680.1063   -3502.0504    18455.831   0.83788345 
    1130    271.41072   -6710.3825   -6680.1063   -3567.0764    18455.831   0.84210043 
    1140    271.86949   -6710.4327   -6680.1053   -3657.0206    18455.831   0.84510588 
    1150    281.86599   -6711.5491   -6680.1065   -4076.7437    18455.831    0.8468347 
    1160    288.73127   -6712.3154    -6680.107   -4317.2032    18455.831    0.8485126 
    1170    284.72713   -6711.8682   -6680.1065   -4221.6867    18455.831   0.85124425 
    1180    277.76624   -6711.0907   -6680.1055   -3786.2546    18455.831   0.85522238 
    1190    278.42764   -6711.1658   -6680.1068   -3453.5254    18455.831   0.86063272 
    1200    274.57485   -6710.7358   -6680.1066   -3135.4804    18455.831   0.86799772 
    1210    268.17301   -6710.0207   -6680.1056   -3061.7485    18455.831   0.87596914 
    1220    269.73514   -6710.1951   -6680.1058   -3498.6687    18455.831   0.88197829 
    1230    275.57277   -6710.8475    -6680.107   -3998.6686    18455.831   0.88464671 
    1240    273.28864   -6710.5919   -6680.1062   -4275.4959    18455.831   0.88485118 
    1250    269.21341   -6710.1371    -6680.106   -4301.1389    18455.831   0.88413656 
    1260    268.47841   -6710.0549   -6680.1057   -4311.1873    18455.831   0.88296339 
    1270    272.54156   -6710.5085   -6680.1061   -4356.8217    18455.831   0.88172746 
    1280    277.77621   -6711.0926   -6680.1063   -4588.2508    18455.831   0.88180594 
    1290    280.19269   -6711.3629    -6680.107   -4852.3632    18455.831   0.88389526 
    1300    274.38994   -6710.7142   -6680.1056   -4801.0391    18455.831   0.88737003 
    1310    272.68687   -6710.5248   -6680.1062   -4600.8128    18455.831   0.89133871 
    1320    273.33879   -6710.5972   -6680.1059   -4506.2257    18455.831   0.89528436 
    1330    275.86937     -6710.88   -6680.1064   -4590.7459    18455.831   0.89889495 
    1340    276.57557   -6710.9584    -6680.106   -4592.8619    18455.831   0.90245999 
    1350    276.61512   -6710.9634   -6680.1066   -4506.7758    18455.831   0.90646299 
    1360    272.26073   -6710.4771    -6680.106   -4467.2196    18455.831   0.91136845 
    1370    268.73878   -6710.0839   -6680.1057   -4589.1112    18455.831   0.91701889 
    1380    269.83102   -6710.2061    -6680.106   -4803.1401    18455.831   0.92344131 
    1390    271.01809   -6710.3391   -6680.1066   -4995.7936    18455.831   0.93117145 
    1400    266.53417   -6709.8383   -6680.1061   -4887.7324    18455.831   0.93925395 
    1410    264.34979   -6709.5941   -6680.1054   -4661.6641    18455.831   0.94440069 
    1420    271.24246   -6710.3639   -6680.1064   -4782.1646    18455.831   0.94464645 
    1430    278.14891   -6711.1341   -6680.1062   -5345.1098    18455.831   0.94130273 
    1440    284.26073    -6711.816   -6680.1063   -5956.3496    18455.831    0.9366539 
    1450    286.06102   -6712.0176    -6680.107   -6473.9841    18455.831   0.93338269 
    1460    278.13817   -6711.1322   -6680.1055    -6637.014    18455.831   0.93336514 
    1470    274.95588   -6710.7774   -6680.1057   -6848.7234    18455.831   0.93597431 
    1480    275.34081   -6710.8209   -6680.1062   -7017.9963    18455.831   0.93943367 
    1490    271.96867   -6710.4442   -6680.1057   -6827.7136    18455.831   0.94245071 
    1500    271.43894   -6710.3851   -6680.1057   -6399.8258    18455.831   0.94456699 
    1510    273.11981   -6710.5738   -6680.1069   -5919.9683    18455.831   0.94612167 
    1520    266.58025   -6709.8431   -6680.1057   -5429.0631    18455.831   0.94681802 
    1530    264.24493   -6709.5825   -6680.1056   -5386.7007    18455.831   0.94511663 
    1540    268.14703   -6710.0187   -6680.1065   -5636.8718    18455.831   0.94138542 
    1550    270.20911    -6710.248   -6680.1058   -5845.7424    18455.831   0.93815309 
    1560    276.27553   -6710.9252   -6680.1062   -5792.6983    18455.831   0.93754478 
    1570    281.48981   -6711.5074   -6680.1068   -5440.6487    18455.831   0.94039184 
    1580    279.21915   -6711.2534    -6680.106   -4999.2991    18455.831   0.94601391 
    1590     277.1071   -6711.0177    -6680.106   -4867.2447    18455.831   0.95254979 
    1600    278.30993   -6711.1519    -6680.106   -4854.7315    18455.831   0.95811089 
    1610    283.09805   -6711.6862   -6680.1062   -4922.4033    18455.831   0.96206314 
    1620    285.07138   -6711.9077   -6680.1076   -4696.0901    18455.831   0.96577017 
    1630    273.23535   -6710.5854   -6680.1056   -4246.7962    18455.831   0.97096923 
    1640     267.7179   -6709.9697   -6680.1053   -4035.6486    18455.831     0.977191 
    1650    272.52244   -6710.5064   -6680.1061   -4111.8074    18455.831   0.98346373 
    1660     277.8589   -6711.1018   -6680.1062   -4253.7363    18455.831   0.98934697 
    1670    281.07361    -6711.461   -6680.1068   -4561.0787    18455.831   0.99446833 
    1680    278.83973   -6711.2107   -6680.1057   -4801.2753    18455.831   0.99855733 
    1690    282.27607   -6711.5942   -6680.1059   -5070.8212    18455.831    1.0013333 
    1700    288.92729   -6712.3376   -6680.1074   -5075.7299    18455.831    1.0032748 
    1710    283.97303   -6711.7838   -6680.1062   -4524.3033    18455.831    1.0056492 
    1720    280.32496   -6711.3763   -6680.1056   -4088.2037    18455.831    1.0090707 
    1730    285.00962   -6711.9005   -6680.1072   -4166.6509    18455.831    1.0129097 
    1740    281.71349    -6711.532   -6680.1064   -4428.6075    18455.831    1.0162807 
    1750    277.27178   -6711.0355   -6680.1055   -4669.9286    18455.831    1.0185587 
    1760    282.23006   -6711.5895   -6680.1063   -4723.6015    18455.831    1.0199448 
    1770    285.90961   -6712.0006   -6680.1069   -4414.9618    18455.831      1.02094 
    1780    282.38129   -6711.6061    -6680.106   -3873.7091    18455.831    1.0213084 
    1790    282.44165    -6711.613   -6680.1062   -3619.8434    18455.831    1.0208436 
    1800    287.55602   -6712.1841   -6680.1067   -3726.4708    18455.831    1.0207901 
    1810    288.11308   -6712.2473   -6680.1079    -3934.633    18455.831    1.0230701 
    1820    276.98552   -6711.0034   -6680.1052    -4186.202    18455.831    1.0283135 
    1830    277.15263   -6711.0235   -6680.1067   -4345.9838    18455.831    1.0350393 
    1840    276.23823   -6710.9215   -6680.1067   -4368.7653    18455.831    1.0414724 
    1850    273.19513   -6710.5804   -6680.1051   -4416.5455    18455.831    1.0455768 
    1860    283.83055   -6711.7684   -6680.1067   -4696.8368    18455.831    1.0462471 
    1870    291.37755   -6712.6113   -6680.1077   -4729.2468    18455.831    1.0448258 
    1880    283.33807   -6711.7134   -6680.1066   -4658.1696    18455.831    1.0428769 
    1890    273.10669    -6710.571   -6680.1055   -4806.2478    18455.831     1.040683 
    1900    272.25017   -6710.4761   -6680.1062   -4992.1727    18455.831    1.0384095 
    1910    274.11365   -6710.6842   -6680.1065    -4851.611    18455.831    1.0367748 
    1920     274.3815    -6710.714   -6680.1064   -4374.9654    18455.831    1.0362621 
    1930    273.80361   -6710.6496   -6680.1064   -3953.3671    18455.831    1.0369737 
    1940    273.81216   -6710.6506   -6680.1064   -3660.7249    18455.831     1.038631 
    1950     274.0972   -6710.6826   -6680.1067   -3555.6748    18455.831    1.0408007 
    1960     275.1804   -6710.8028    -6680.106   -3995.0323    18455.831    1.0431217 
    1970    281.99645   -6711.5638   -6680.1067   -4818.7611    18455.831    1.0450424 
    1980     287.0536   -6712.1285   -6680.1072   -5430.2829    18455.831    1.0464652 
    1990    282.90097   -6711.6645   -6680.1064   -5324.8363    18455.831    1.0478613 
    2000    278.29624   -6711.1501   -6680.1058   -5003.2499    18455.831    1.0492005 
Loop time of 1303.02 on 16 procs for 2000 steps with 864 atoms

Performance: 0.133 ns/day, 180.975 hours/ns, 1.535 timesteps/s
97.3% CPU use with 16 MPI tasks x 1 OpenMP threads

MPI task timing breakdown:
Section |  min time  |  avg time  |  max time  |%varavg| %total
---------------------------------------------------------------
Pair    | 571.41     | 954.33     | 1297.8     | 550.5 | 73.24
Bond    | 0.00013161 | 0.00045189 | 0.00088263 |   0.0 |  0.00
Neigh   | 0.018598   | 0.030254   | 0.050693   |   4.0 |  0.00
Comm    | 4.8789     | 307.92     | 689.52     | 909.2 | 23.63
Output  | 0.27516    | 22.562     | 53.593     | 430.7 |  1.73
Modify  | 0.008889   | 0.010333   | 0.013579   |   1.2 |  0.00
Other   |            | 18.17      |            |       |  1.39

Nlocal:        54.0000 ave          86 max          35 min
Histogram: 1 1 3 7 2 1 0 0 0 1
Nghost:        537.750 ave         662 max         448 min
Histogram: 3 1 1 5 0 0 3 1 1 1
Neighs:         0.00000 ave           0 max           0 min
Histogram: 16 0 0 0 0 0 0 0 0 0
FullNghs:      2646.75 ave        5387 max        1216 min
Histogram: 2 2 3 4 3 1 0 0 0 1

Total # of neighbors = 42348
Ave neighs/atom = 49.013889
Ave special neighs/atom = 0.0000000
Neighbor list builds = 199
Dangerous builds = 198
Setting up Verlet run ...
  Unit style    : metal
  Current step  : 2000
  Time step     : 0.001
Per MPI rank memory allocation (min/avg/max) = 8.897 | 8.909 | 8.917 Mbytes
Step Temp PotEng TotEng Press Volume c_msd[4] 
    2000        637.5   -6711.1501   -6640.0361   -2684.2443    18455.831    1.0492005 
    2010    573.25915   -6703.9655   -6640.0176   -1201.5568    18454.195     1.052409 
    2020    479.41629    -6693.359   -6639.8794    951.95715    18451.011    1.0606159 
    2030    453.57158   -6690.1149   -6639.5183    1377.2365    18448.893     1.067765 
    2040    444.51513   -6688.4706   -6638.8843    1136.0271    18448.556    1.0747158 
    2050    430.07736   -6686.0337    -6638.058    1107.1753    18449.789     1.081703 
    2060    438.71994   -6686.1232   -6637.1834    726.00061    18452.466    1.0874294 
    2070    455.93422   -6687.2234   -6636.3632     546.7973    18456.139    1.0926476 
    2080    462.83424   -6687.2487   -6635.6188    1027.5576    18460.658    1.0979153 
    2090    465.57447     -6686.82   -6634.8845    1090.0082    18466.527    1.1021767 
    2100    488.97705   -6688.6355   -6634.0894    283.69142    18473.785    1.1048829 
    2110    519.13609   -6691.1045   -6633.1941   -737.61481    18481.419    1.1080211 
    2120    502.41556   -6688.3001   -6632.2549   -476.74821    18488.229    1.1134343 
    2130    474.69425   -6684.2782   -6631.3254    564.29687    18494.517    1.1181283 
    2140    483.45536   -6684.2855   -6630.3553     922.0293    18501.498    1.1201887 
    2150    485.25398   -6683.4581   -6629.3273    620.94597    18509.676    1.1219494 
    2160     491.2179   -6683.0777   -6628.2816   -126.86767    18518.684    1.1248646 
    2170    507.01989   -6683.7639   -6627.2051   -855.27566    18527.574    1.1288512 
    2180    509.82705   -6682.9903   -6626.1183   -843.37949    18535.449    1.1332062 
    2190    505.66542   -6681.4513   -6625.0435   -482.83443    18542.266    1.1370828 
    2200    513.45313   -6681.2378   -6623.9614   -501.31545     18548.42    1.1401064 
    2210    524.69145   -6681.3824   -6622.8522   -957.13724    18553.878    1.1433447 
    2220    524.41919   -6680.2373   -6621.7376   -1142.3257    18558.119    1.1472087 
    2230    530.93007   -6679.8541   -6620.6281   -1438.4081    18560.816     1.149322 
    2240    544.83895   -6680.2855   -6619.5079   -1839.4457     18561.57    1.1474986 
    2250    539.34902   -6678.5611   -6618.3959   -1840.1699    18559.891    1.1431879 
    2260    540.90733   -6677.6411   -6617.3021   -1636.9249    18555.718    1.1381538 
    2270     551.4419   -6677.7108   -6616.1967   -964.78731    18549.358    1.1345765 
    2280     554.1298   -6676.8974   -6615.0834   -28.645338    18541.683    1.1336528 
    2290    556.87043   -6676.0941   -6613.9744    911.54823    18533.924    1.1342521 
    2300    568.12701    -6676.235   -6612.8596    1634.7565    18527.331    1.1352021 
    2310    574.10299   -6675.7916   -6611.7495    1917.0627    18522.877    1.1372512 
    2320    581.05633   -6675.4822   -6610.6645     1439.724    18520.906    1.1406054 
    2330    587.28453   -6675.1114   -6609.5989    636.81201    18520.833    1.1459028 
    2340    585.52249    -6673.878   -6608.5621    65.548683    18521.671    1.1537466 
    2350    584.05429   -6672.6887   -6607.5366   -463.15328      18522.6    1.1618086 
    2360    602.01382    -6673.667   -6606.5114   -763.43396    18522.939    1.1679432 
    2370    611.67525    -6673.724   -6605.4908   -994.84323    18522.256    1.1737878 
    2380     600.4463   -6671.4941   -6604.5134   -930.02543    18520.236    1.1808692 
    2390    597.92033   -6670.2655   -6603.5666    -524.6436    18516.972    1.1877336 
    2400    598.78062   -6669.4038   -6602.6089    143.43471    18513.017    1.1941726 
    2410    594.42421   -6667.9549    -6601.646    629.79295    18509.223    1.2024561 
    2420     599.4202   -6667.5422    -6600.676     320.4934    18506.176    1.2132196 
    2430    614.98423   -6668.2965   -6599.6941   -445.96808    18503.501    1.2230243 
    2440    628.62534   -6668.8509   -6598.7268   -780.16389    18500.266    1.2295305 
    2450    626.86055   -6667.7351   -6597.8079   -462.34819    18496.043    1.2330969 
    2460    628.63324   -6667.0613   -6596.9363    59.571354    18491.217    1.2356003 
    2470    638.58377   -6667.3286   -6596.0936    211.46675    18486.417    1.2388743 
    2480    651.77917   -6668.0022   -6595.2953    118.04361    18481.861     1.245243 
    2490    643.47313    -6666.335   -6594.5546    490.20505    18477.522    1.2574005 
    2500    655.34393   -6666.9794   -6593.8748    604.26923    18473.767    1.2745396 
    2510    662.27294   -6667.1232   -6593.2457    1308.8972    18470.895    1.2932564 
    2520    646.93573   -6664.8492   -6592.6825    2377.0836    18469.831    1.3085879 
    2530    644.64989   -6664.0796   -6592.1679    2533.1752    18471.856    1.3191506 
    2540    653.68299   -6664.6029   -6591.6835    2185.8753    18477.267    1.3289344 
    2550    669.27429   -6665.9003   -6591.2418    2152.5935     18485.72     1.340966 
    2560    655.96998   -6664.0509   -6590.8765    2584.8123    18497.196    1.3563529 
    2570    629.00529   -6660.7373   -6590.5708    2835.0036    18512.247    1.3727751 
    2580    634.78886    -6661.084   -6590.2723    1939.5421    18531.125    1.3864238 
    2590    646.49456   -6662.0657   -6589.9482    746.25119    18552.759    1.3985392 
    2600    645.94434   -6661.6847   -6589.6286    322.33648    18575.679    1.4110839 
    2610    647.92767   -6661.6086   -6589.3313    258.76556    18599.273    1.4248276 
    2620    654.41234   -6662.0564   -6589.0557   -295.17752     18623.34    1.4390629 
    2630    653.61487   -6661.7129   -6588.8012   -999.86511     18647.19    1.4509586 
    2640    665.47859   -6662.8184   -6588.5833    -1627.282    18669.865    1.4595529 
    2650    657.83316   -6661.7884   -6588.4062   -1808.0101    18690.542    1.4678605 
    2660      666.597    -6662.652   -6588.2921   -2147.5569    18708.853     1.478807 
    2670    654.73382   -6661.2655   -6588.2289   -2652.0941    18724.305    1.4946104 
    2680    635.97025   -6659.1544    -6588.211    -3064.686    18736.202    1.5125431 
    2690    623.63391   -6657.7635   -6588.1962   -3210.8268    18743.972    1.5281041 
    2700    627.38539   -6658.1533   -6588.1675   -3207.4775    18747.352    1.5409445 
    2710    637.43348   -6659.2366   -6588.1299   -3215.1678      18746.3    1.5534346 
    2720    639.01212   -6659.3806   -6588.0978   -3108.2734    18740.787    1.5657175 
    2730    640.34526   -6659.5102   -6588.0787   -2815.8677    18730.945    1.5784404 
    2740    640.59263   -6659.5266   -6588.0675   -2896.0752    18717.093    1.5937898 
    2750    639.81787   -6659.4454   -6588.0727   -3272.0275    18699.098    1.6117488 
    2760    635.69677   -6659.0019   -6588.0889   -3127.2539    18676.523    1.6291533 
    2770    631.57934   -6658.5514   -6588.0978    -2344.102     18649.57    1.6429927 
    2780    633.45492   -6658.7439   -6588.0811   -1208.0556    18619.291    1.6537758 
    2790     637.4212   -6659.1425   -6588.0372   -207.90467    18587.182    1.6642996 
    2800     628.7516   -6658.1029   -6587.9647    756.67133    18554.663    1.6758661 
    2810    638.36991   -6659.0751    -6587.864    1124.4714    18522.999    1.6865104 
    2820    669.06618   -6662.4091   -6587.7737    1074.7754     18492.71    1.6968565 
    2830    667.04535   -6662.1483   -6587.7384    1846.6053    18463.895    1.7111848 
    2840    641.84121    -6659.351   -6587.7527    2953.5814    18437.524    1.7281599 
    2850    620.25915   -6656.9588    -6587.768     3684.585    18415.025    1.7442138 
    2860    618.29598   -6656.7291   -6587.7573    3696.1435    18397.341    1.7577092 
    2870     629.0342   -6657.8914   -6587.7217     3451.801    18384.522    1.7685682 
    2880    642.98799   -6659.4046   -6587.6784    3218.6977    18376.278    1.7785391 
    2890    655.26173   -6660.7549   -6587.6595    2864.5367    18372.275    1.7890164 
    2900    656.61743   -6660.9285   -6587.6818    2390.1542    18372.081    1.7984158 
    2910    658.55763     -6661.22    -6587.757    1692.8564    18375.052    1.8043682 
    2920    646.25118   -6659.9622   -6587.8719    1351.7748    18380.361    1.8059527 
    2930    651.02682   -6660.6349   -6588.0119    978.97798    18387.506    1.8027989 
    2940    664.94383    -6662.369   -6588.1935    561.50919    18395.977    1.7981386 
    2950    657.70989   -6661.7985     -6588.43    870.51144    18405.363    1.7957081 
    2960    649.96474   -6661.2202   -6588.7156    1155.2391    18415.974    1.7962597 
    2970    652.74948   -6661.8521   -6589.0369    989.84941    18428.153    1.7997345 
    2980    643.71384    -6661.192   -6589.3847    914.80651    18441.774    1.8069855 
    2990    633.06994   -6660.3637   -6589.7438    899.52035    18456.753    1.8173066 
    3000    619.25837   -6659.1612   -6590.0819    681.64332     18473.05    1.8292387 
    3010    621.03604   -6659.6543   -6590.3768   -152.71194    18490.319    1.8404088 
    3020    632.08771   -6661.1434   -6590.6331   -810.34126    18507.546    1.8505829 
    3030    637.52278   -6661.9926    -6590.876    -958.8898    18523.875    1.8612689 
    3040       639.81   -6662.4939   -6591.1222    -1157.286    18539.012    1.8733075 
    3050    624.74464   -6661.0568   -6591.3656   -1007.2571    18552.752    1.8879711 
    3060    617.00992   -6660.4133   -6591.5849   -966.69539    18565.244    1.9042461 
    3070    618.89732   -6660.8037   -6591.7647   -1402.3877     18576.46    1.9204736 
    3080    616.98195   -6660.7319   -6591.9066   -1527.5562    18585.883    1.9362733 
    3090    610.40182   -6660.0925   -6592.0013   -1132.6983    18593.375    1.9505979 
    3100    619.29158   -6661.1302   -6592.0473   -1109.7339    18599.326    1.9648719 
    3110    626.80708   -6661.9724   -6592.0512   -1234.7143    18603.799    1.9818664 
    3120    621.61571   -6661.3642    -6592.022   -1439.2331    18606.608    2.0011365 
    3130    615.42955   -6660.6115   -6591.9594   -1599.6431     18607.46    2.0204558 
    3140    616.46258   -6660.6207   -6591.8534   -1297.2228    18606.193    2.0385036 
    3150      628.379   -6661.8009   -6591.7043   -950.71785    18603.149    2.0540814 
    3160    640.93441   -6663.0194   -6591.5222   -835.66393    18598.757    2.0678755 
    3170    639.96222   -6662.7212   -6591.3324   -783.38498    18593.196    2.0842551 
    3180    627.90118   -6661.1856   -6591.1423   -711.66484    18586.549    2.1063858 
    3190    630.91301    -6661.316   -6590.9367      -1054.9    18578.834    2.1321549 
    3200     636.9859   -6661.7741   -6590.7173   -1075.6621    18569.677     2.159391 
    3210     627.3612   -6660.4722   -6590.4892   -361.90457    18559.103     2.186234 
    3220     631.3879    -6660.676   -6590.2437   -30.873121    18547.923    2.2101156 
    3230    645.18246   -6661.9527   -6589.9816    -277.9653    18536.577    2.2317831 
    3240    649.96872   -6662.2346   -6589.7297   -683.92416    18524.788    2.2531351 
    3250    652.13639   -6662.2529   -6589.5061   -790.34937    18512.054    2.2734468 
    3260    654.01617   -6662.2696   -6589.3131   -423.49595    18498.221    2.2928073 
    3270     643.1724   -6660.8937   -6589.1469    462.48279    18483.826      2.31351 
    3280     622.2653   -6658.4005   -6588.9858    1512.6973    18470.013    2.3361335 
    3290    619.37427   -6657.8939   -6588.8018    1969.8406     18458.09    2.3591492 
    3300    624.74976   -6658.2754   -6588.5836    1815.1822    18448.679    2.3830535 
    3310    627.18317   -6658.2997   -6588.3365    1648.3632    18441.662    2.4084585 
    3320    645.39434   -6660.0656   -6588.0709    1450.8401    18436.835    2.4340924 
    3330    648.81586   -6660.1825   -6587.8061    1312.2671    18433.933    2.4573633 
    3340    642.10027    -6659.187   -6587.5597     1360.708    18432.807     2.473489 
    3350    657.37471   -6660.6692   -6587.3381    1257.0484    18433.465     2.481139 
    3360     641.9376   -6658.7505   -6587.1414    2035.7078    18435.962     2.486621 
    3370    638.96895   -6658.2497   -6586.9718    1830.5765    18441.065    2.4922864 
    3380    650.68871   -6659.3937   -6586.8084    1122.2268    18448.629    2.4980724 
    3390    653.24054   -6659.5383   -6586.6683    663.13504    18457.807    2.5035817 
    3400     649.3109   -6658.9956    -6586.564    264.11616    18467.953    2.5070915 
    3410    635.50355   -6657.3759   -6586.4845    214.89215    18478.587    2.5110458 
    3420    626.14182   -6656.2539   -6586.4069    503.25184    18489.669    2.5166373 
    3430     629.7081   -6656.5572   -6586.3123    877.01278    18501.562    2.5207136 
    3440    630.67736   -6656.5528   -6586.1997    1183.9824    18514.749    2.5209774 
    3450     642.2194   -6657.7176   -6586.0771    1109.8852    18529.619    2.5168123 
    3460    659.55018   -6659.5352   -6585.9614    1127.1382    18546.172    2.5104786 
    3470    661.20535   -6659.6434    -6585.885    1616.1978    18564.503    2.5057053 
    3480    663.91678   -6659.9216   -6585.8607    1505.5549    18585.143    2.5030363 
    3490     678.8892   -6661.6241    -6585.893     614.8439    18607.955    2.4999556 
    3500    667.44441   -6660.4552   -6586.0008   -133.66057    18631.825    2.4967575 
    3510    635.03965   -6656.9988   -6586.1592   -28.941303    18655.842    2.4943208 
    3520    639.26211    -6657.633   -6586.3223   -295.39036    18679.955    2.4901663 
    3530    650.27683   -6659.0233   -6586.4839    -856.4265    18703.815    2.4843056 
    3540    647.94128    -6658.953   -6586.6742   -1270.6902    18726.672    2.4807533 
    3550    638.49103   -6658.1153   -6586.8907   -1218.9646    18747.977    2.4810228 
    3560    634.04531   -6657.8437    -6587.115   -984.89726     18767.74    2.4818791 
    3570    640.90127   -6658.8342   -6587.3407   -1207.6179    18786.192    2.4792571 
    3580    654.17025   -6660.5597    -6587.586   -1881.0028    18802.986    2.4719489 
    3590    642.82231   -6659.5686   -6587.8608   -1927.7306    18817.326    2.4631564 
    3600    640.46924   -6659.6032   -6588.1578   -1950.7338     18829.04    2.4531498 
    3610    635.73122   -6659.3798   -6588.4631   -2203.5993    18838.048    2.4402205 
    3620    623.15156   -6658.2607   -6588.7472   -2564.7852    18843.991    2.4253582 
    3630    628.08665   -6659.0691   -6589.0051      -2770.1      18846.4    2.4130729 
    3640    633.23724   -6659.8903   -6589.2517    -3100.444    18844.913    2.4073351 
    3650    633.87758   -6660.2111   -6589.5011   -3193.2175    18839.103    2.4072903 
    3660    636.58456   -6660.7679   -6589.7559   -3143.2384    18828.805    2.4106498 
    3670     631.6394    -6660.473   -6590.0126   -2757.5823    18814.135     2.416186 
    3680    614.85289   -6658.8414   -6590.2537    -2359.529    18795.581    2.4210729 
    3690    606.68203   -6658.1273    -6590.451   -2117.2479    18773.668    2.4232428 
    3700    613.65059   -6659.0421   -6590.5885   -1786.3163    18748.781    2.4233621 
    3710    629.35249   -6660.8784   -6590.6732   -1500.1186    18721.377    2.4240644 
    3720    647.14833   -6662.9359   -6590.7456   -1395.7119    18691.834     2.427298 
    3730    644.18308   -6662.6948   -6590.8352   -799.38629    18660.392    2.4319288 
    3740    623.49518   -6660.4729   -6590.9211    208.27916    18627.898    2.4346339 
    3750    615.39838   -6659.6113   -6590.9627    811.52706    18595.662    2.4332038 
    3760    636.38999   -6661.9526   -6590.9623    656.82359    18564.462    2.4303525 
    3770    644.33436   -6662.8332   -6590.9568    976.64513    18534.252    2.4324039 
    3780    624.54989   -6660.6095     -6590.94    2398.0666    18505.574    2.4410137 
    3790    617.32935   -6659.7519   -6590.8879    3147.5448     18480.09    2.4511275 
    3800    637.06524   -6661.8691   -6590.8035    3076.7581    18458.799    2.4572848 
    3810    655.58422   -6663.8581   -6590.7267       2670.2     18441.63    2.4591599 
    3820    647.48698   -6662.9105   -6590.6823    2866.8627    18428.155     2.457932 
    3830    648.14929   -6662.9741   -6590.6721    3153.8755    18418.553    2.4514856 
    3840     647.8514   -6662.9624   -6590.6937    3131.5712    18413.147    2.4406857 
    3850    635.97784   -6661.6924   -6590.7481    3190.1065    18411.944    2.4282993 
    3860    621.35465   -6660.1251    -6590.812    3559.6333    18415.059    2.4145545 
    3870    624.35305   -6660.5106   -6590.8631     3112.822    18422.816    2.3987147 
    3880    638.54349   -6662.1252   -6590.8947    2241.0404    18434.702      2.38253 
    3890    637.89066   -6662.0704   -6590.9128    1337.5391     18449.59    2.3684873 
    3900    627.12624   -6660.8707   -6590.9138    180.67313    18466.238    2.3571371 
    3910    626.41367   -6660.7531   -6590.8757   -1101.3365    18483.125    2.3473977 
    3920    639.87458   -6662.1806   -6590.8016    -2191.404    18498.535    2.3388071 
    3930     621.3392   -6660.0197   -6590.7084   -2109.5941     18511.12    2.3312546 
    3940    606.76925   -6658.2651   -6590.5791    -1632.263    18520.906    2.3213875 
    3950    628.37682   -6660.4849   -6590.3885   -1776.7475    18528.376    2.3076529 
    3960    625.35626   -6659.8994   -6590.1399   -1456.3125    18533.509    2.2940411 
    3970    631.95634   -6660.3477    -6589.852   -1372.7689    18536.634    2.2842354 
    3980    636.20265   -6660.4901   -6589.5207   -1279.7576    18537.911     2.281546 
    3990     626.9437   -6659.0872   -6589.1507    -1123.075    18537.471    2.2852424 
    4000     626.3437   -6658.6079   -6588.7384    -1280.818    18535.466    2.2922253 
    4010    628.24369   -6658.3555    -6588.274   -1487.7201    18531.737    2.2989462 
    4020    637.48127   -6658.8863   -6587.7743   -1864.9058    18525.969    2.3029327 
    4030     653.5262   -6660.1709    -6587.269   -2208.3527    18517.679     2.305431 
    4040    654.74764   -6659.8336   -6586.7955   -1900.7705    18506.499    2.3096145 
    4050    645.97259   -6658.4318   -6586.3726   -963.96384    18492.852    2.3169403 
    4060    651.65964    -6658.681   -6585.9874    -1.435818    18477.923    2.3271691 
    4070    668.16646   -6660.1779    -6585.643    861.46946    18463.007    2.3418055 
    4080    673.36889   -6660.4841   -6585.3688    1523.7429    18449.267    2.3616592 
    4090    675.18928   -6660.5077   -6585.1893    1799.9484    18437.551    2.3805365 
    4100    672.64007   -6660.1385   -6585.1045    2259.9865    18428.286    2.3914976 
    4110    657.08202   -6658.3965    -6585.098    3331.3172    18422.134    2.3929087 
    4120     639.6795   -6656.4926   -6585.1354    4040.5245    18420.425    2.3861359 
    4130    644.94607   -6657.1416   -6585.1969     3025.876    18423.909    2.3745745 
    4140    651.22843    -6657.922   -6585.2765    1735.0318    18431.413    2.3644941 
    4150    657.73607   -6658.7622   -6585.3907    1133.5824    18441.329    2.3592084 
    4160    664.48819   -6659.6783   -6585.5536    736.97885    18452.787    2.3580619 
    4170    663.93405   -6659.8434   -6585.7806    463.61974    18465.268    2.3601201 
    4180     650.0302   -6658.5769    -6586.065    602.86031    18478.443    2.3658945 
    4190    655.98741   -6659.5718   -6586.3954    410.92429    18492.407    2.3751096 
    4200    674.97433   -6662.0833   -6586.7889   -234.80688    18506.903    2.3895881 
    4210    671.79003   -6662.2174   -6587.2782    -374.0042    18521.185    2.4094535 
    4220    643.37655   -6659.5906   -6587.8209   -461.62291    18534.992    2.4303013 
    4230    640.42221   -6659.8011    -6588.361   -1113.1912     18548.12    2.4456025 
    4240    644.12597    -6660.723   -6588.8697   -1722.7173    18559.783    2.4543696 
    4250    649.55673   -6661.8159   -6589.3568   -2122.3286    18569.155     2.459573 
    4260    643.06968   -6661.5485   -6589.8131   -2200.1433    18575.685     2.463942 
    4270    631.86671   -6660.7045   -6590.2189   -1896.9656    18579.275    2.4696722 
    4280    615.49073   -6659.2016   -6590.5427   -1330.0097    18580.329    2.4789158 
    4290    604.28276   -6658.1664   -6590.7577   -989.25306    18579.532    2.4909513 
    4300    608.25989   -6658.7274   -6590.8751    -845.6756    18577.365    2.5021607 
    4310    604.27107   -6658.3161   -6590.9088   -840.91982    18574.025    2.5113171 
    4320    606.42176   -6658.5204   -6590.8731   -924.58104    18569.526    2.5215339 
    4330    618.87738   -6659.8138   -6590.7771   -1229.5214    18563.743    2.5358807 
    4340    646.61459   -6662.7959   -6590.6651    -1226.887    18556.323    2.5532714 
    4350    640.55658    -6662.026    -6590.571   -341.98458    18547.331    2.5711633 
    4360    626.54846   -6660.3816   -6590.4892    795.15457    18537.881    2.5868489 
    4370     629.4854   -6660.6108   -6590.3908    1234.6345    18529.417    2.5992037 
    4380    637.81129   -6661.4359   -6590.2871    998.17762    18522.523    2.6095803 
    4390    626.61925   -6660.0828   -6590.1825    981.76746     18517.01    2.6217888 
    4400    629.26634   -6660.2658   -6590.0702    807.42655    18512.778    2.6331287 
    4410    635.82697   -6660.8684   -6589.9409    1276.1929    18509.741    2.6393415 
    4420    638.17048   -6661.0012   -6589.8123    1617.4863    18508.407    2.6407072 
    4430    644.41086   -6661.5758   -6589.6908     1721.194    18509.258    2.6392898 
    4440    660.44628   -6663.2648    -6589.591    1269.1974    18512.371    2.6377726 
    4450    665.46281   -6663.7737   -6589.5403    1062.3074    18517.261    2.6386261 
    4460    652.92341   -6662.3828   -6589.5482    1222.0337     18523.66    2.6407895 
    4470    643.65357    -6661.396   -6589.5954    870.35631    18531.679    2.6427802 
    4480     649.0739   -6662.0732   -6589.6681    246.12971    18540.877    2.6449432 
    4490    640.21755   -6661.1796   -6589.7623    686.06757    18550.601    2.6469969 
    4500    637.94348   -6661.0368   -6589.8732    1516.8929    18561.357    2.6463664 
    4510    635.92703   -6660.9361   -6589.9975    2187.6011    18574.242    2.6421064 
    4520    627.38722   -6660.1097   -6590.1237    1944.1105    18590.097    2.6355515 
    4530    642.18554   -6661.8801   -6590.2433    653.04166    18608.584    2.6296509 
    4540    639.14169   -6661.6553   -6590.3581   -172.25574    18628.145    2.6275617 
    4550    617.62228   -6659.3646   -6590.4679   -115.13794    18647.708    2.6287474 
    4560    625.66119   -6660.3545   -6590.5611   -299.43101    18667.204    2.6307311 
    4570    625.72857   -6660.4337   -6590.6327   -401.68601    18686.445    2.6340446 
    4580    620.26225   -6659.8753   -6590.6841   -754.27085    18705.249    2.6369525 
    4590    629.65584   -6660.9463   -6590.7072   -1587.9038    18723.063    2.6355069 
    4600    624.88544   -6660.4121   -6590.7052   -1971.7494    18738.852    2.6291745 
    4610    630.72465   -6661.0427   -6590.6844   -2431.3836    18751.989    2.6206584 
    4620    646.44839   -6662.7688   -6590.6565    -3038.378    18761.812    2.6153965 
    4630    625.47277   -6660.4057   -6590.6333   -2954.3547    18767.555    2.6164462 
    4640    609.30601   -6658.5561   -6590.5871   -2641.0919    18769.235    2.6203392 
    4650    632.08367   -6660.9979    -6590.488    -2754.723    18767.193    2.6239213 
    4660    635.08581   -6661.1923   -6590.3476    -2616.058    18761.327    2.6290026 
    4670    622.56098   -6659.6312   -6590.1836   -1866.3726    18751.857    2.6370824 
    4680    616.64578   -6658.7527    -6589.965    -1114.331    18739.727    2.6465715 
    4690       637.19   -6660.7521   -6589.6726   -959.27916    18725.888    2.6542991 
    4700    659.51113   -6662.9014    -6589.332   -1436.4631    18710.543    2.6595321 
    4710    665.63946   -6663.2569   -6589.0038   -1430.9624    18693.185    2.6623085 
    4720    649.61177   -6661.1739   -6588.7088   -697.44839    18673.824    2.6624845 
    4730    629.12181   -6658.5997   -6588.4202    290.84365    18653.408    2.6606082 
    4740     625.8423   -6657.9171   -6588.1035    851.28595    18633.225    2.6581229 
    4750    632.44402   -6658.3009   -6587.7508    874.43902    18614.055    2.6566119 
    4760    646.27399   -6659.4761   -6587.3833    715.89299    18595.955    2.6578179 
    4770    654.29288    -6660.001   -6587.0136    947.73541    18578.799    2.6635688 
    4780    665.53562   -6660.9143   -6586.6728    1217.4734    18562.859    2.6722178 
    4790    658.79752    -6659.868   -6586.3781    1960.5467    18548.582    2.6825604 
    4800    642.99655   -6657.8473   -6586.1201    2519.8332    18536.902    2.6931987 
    4810    654.92844   -6658.9356   -6585.8773    2025.7123    18528.468    2.6982099 
    4820    669.10431   -6660.3048   -6585.6652    1217.0129    18522.702    2.6960294 
    4830    658.82977   -6659.0016   -6585.5082    984.61319     18518.63    2.6913042 
    4840     659.0006   -6658.9313   -6585.4188    1293.4656    18515.956    2.6882317 
    4850    664.29736   -6659.4923   -6585.3889    1601.7894    18515.036    2.6916328 
    4860    669.75954   -6660.1452   -6585.4326    1694.1354    18516.238    2.7026982 
    4870      652.496   -6658.3344   -6585.5475    2145.7299    18519.794     2.719591 
    4880    642.20141   -6657.3448   -6585.7063    2114.1491    18526.202    2.7362287 
    4890    645.17105   -6657.8551   -6585.8853    1926.5818    18535.477    2.7481684 
    4900    658.90278   -6659.6061   -6586.1045    1670.4397    18547.366    2.7558341 
    4910    669.22072   -6661.0496    -6586.397    1384.2351    18561.534    2.7625522 
    4920    650.09379   -6659.2962   -6586.7773    1688.8829    18577.698    2.7701414 
    4930    640.08553   -6658.6197   -6587.2172    1455.2958    18596.108    2.7763793 
    4940    639.76141   -6659.0508   -6587.6845    818.73181    18616.498    2.7802421 
    4950     633.0207     -6658.78   -6588.1656    75.481712    18637.994    2.7816302 
    4960    623.70482   -6658.2129   -6588.6377   -525.72976     18659.61    2.7813216 
    4970    625.22004   -6658.8226   -6589.0783    -963.3612     18680.54    2.7783411 
    4980    637.72172   -6660.6322   -6589.4934   -1439.0698    18700.123    2.7737957 
    4990    637.76402   -6661.0407   -6589.8971   -1549.4055    18717.748    2.7718753 
    5000     629.7454   -6660.5324   -6590.2834   -1432.5457    18733.239    2.7741694 
Loop time of 1990.95 on 16 procs for 3000 steps with 864 atoms

Performance: 0.130 ns/day, 184.348 hours/ns, 1.507 timesteps/s
97.2% CPU use with 16 MPI tasks x 1 OpenMP threads

MPI task timing breakdown:
Section |  min time  |  avg time  |  max time  |%varavg| %total
---------------------------------------------------------------
Pair    | 1278.3     | 1674.7     | 1929.1     | 505.0 | 84.12
Bond    | 0.00022697 | 0.00064062 | 0.001267   |   0.0 |  0.00
Neigh   | 0.032975   | 0.044646   | 0.059352   |   3.6 |  0.00
Comm    | 37.087     | 237.21     | 681.95     |1318.0 | 11.91
Output  | 0.18798    | 0.19134    | 0.24001    |   2.9 |  0.01
Modify  | 2.2588     | 78.767     | 154.92     | 717.8 |  3.96
Other   |            | 0.01358    |            |       |  0.00

Nlocal:        54.0000 ave          78 max          42 min
Histogram: 2 5 1 2 3 1 1 0 0 1
Nghost:        542.438 ave         685 max         483 min
Histogram: 2 7 3 0 2 0 0 0 1 1
Neighs:         0.00000 ave           0 max           0 min
Histogram: 16 0 0 0 0 0 0 0 0 0
FullNghs:      2544.50 ave        4131 max        1690 min
Histogram: 2 5 0 4 1 2 0 0 1 1

Total # of neighbors = 40712
Ave neighs/atom = 47.120370
Ave special neighs/atom = 0.0000000
Neighbor list builds = 300
Dangerous builds = 300
Setting up Verlet run ...
  Unit style    : metal
  Current step  : 5000
  Time step     : 0.001
Per MPI rank memory allocation (min/avg/max) = 8.904 | 8.910 | 8.917 Mbytes
Step Temp PotEng TotEng Press Volume c_msd[4] 
    5000     629.7454   -6660.5324   -6590.2834   -1432.5457    18733.239    2.7741694 
    5010    630.49026   -6660.6096   -6590.2774   -1117.1041     18732.33    2.7769495 
    5020    627.91902    -6660.302   -6590.2567   -858.69115    18729.874    2.7807842 
    5030    629.23786   -6660.4123   -6590.2199   -854.52869     18726.21    2.7849421 
    5040    625.73208   -6659.9622   -6590.1609   -1288.6196    18721.304    2.7861881 
    5050    624.97545   -6659.7887   -6590.0717   -1928.2072    18714.599    2.7830232 
    5060    641.36392   -6661.5128   -6589.9677   -2535.9767    18705.228    2.7786479 
    5070    628.45385   -6659.9629    -6589.858   -2011.8345    18692.521    2.7770433 
    5080    613.65009     -6658.18   -6589.7264   -1218.2857    18677.054    2.7771365 
    5090    605.22088   -6657.0363    -6589.523   -495.99916    18659.899    2.7776592 
    5100    609.07647   -6657.1657   -6589.2223    28.612138    18642.041    2.7769145 
    5110    628.04871   -6658.8817   -6588.8219   -73.337074    18624.116    2.7746311 
    5120    651.82361   -6661.0591   -6588.3472   -15.752986    18606.123    2.7756293 
    5130     657.0704   -6661.1448   -6587.8476    315.22648    18588.155    2.7852544 
    5140    650.06601   -6659.8727   -6587.3568    843.61464    18570.665    2.8024365 
    5150    653.24015   -6659.7457   -6586.8758    1190.3334    18554.319    2.8221181 
    5160    656.19736   -6659.6107   -6586.4109    1881.3596    18539.664    2.8421239 
    5170    653.00189    -6658.818   -6585.9747    2690.8504    18527.609    2.8605865 
    5180    661.68797   -6659.3884   -6585.5761     2793.786    18519.129    2.8742468 
    5190    666.51172   -6659.5874    -6585.237    2667.7048    18514.424     2.883485 
    5200    666.17134   -6659.2934    -6584.981    2293.1888    18513.291    2.8920731 
    5210    665.80974    -6659.069    -6584.797    1922.4843    18515.275     2.904031 
    5220    662.56143   -6658.5794   -6584.6697    1533.8252    18519.857    2.9204268 
    5230    668.43993   -6659.1608   -6584.5953    1264.9235    18526.521    2.9405574 
    5240    669.34071   -6659.2573   -6584.5914    1508.0812    18534.947    2.9636782 
    5250    660.78363   -6658.3782   -6584.6668     1684.079    18545.378    2.9892846 
    5260    671.94697   -6659.7684   -6584.8117    1359.4857    18557.996    3.0161634 
    5270    687.56392   -6661.7517   -6585.0529    1015.2138    18572.416    3.0417161 
    5280    676.38312   -6660.8797   -6585.4281    1137.6362    18588.231    3.0651575 
    5290     655.0525   -6658.9854   -6585.9133    1095.7773    18605.531    3.0876044 
    5300    651.64359   -6659.1657   -6586.4739    167.60153    18624.149     3.108868 
    5310    646.78266   -6659.2373   -6587.0877   -448.35653     18642.99      3.12765 
    5320    640.10579   -6659.1451   -6587.7403    -676.9774      18661.2    3.1427187 
    5330    630.97045    -6658.772   -6588.3863   -842.90907    18678.432    3.1547806 
    5340    631.95669   -6659.4794   -6588.9837   -1595.5484    18694.347    3.1655489 
    5350    620.40009   -6658.7008   -6589.4942   -1801.1554    18708.065    3.1761635 
    5360    595.35175   -6656.2873   -6589.8749    -1058.667    18719.351    3.1842976 
    5370    590.39225   -6655.9566   -6590.0974   -473.42836     18729.11    3.1878557 
    5380    620.34384   -6659.3911   -6590.1908   -946.87202    18738.045    3.1909348 
    5390    630.64565   -6660.5686   -6590.2192   -1662.1417    18745.605    3.1991213 
    5400    615.09724   -6658.8291   -6590.2141   -1942.0974    18750.881    3.2101217 
    5410    624.19024   -6659.8045   -6590.1752   -2488.2762    18753.387    3.2175553 
    5420    626.41289   -6659.9941   -6590.1168   -2768.8071    18752.473    3.2203724 
    5430    623.61661   -6659.6204   -6590.0551   -2991.6998    18747.744    3.2203607 
    5440    632.79399   -6660.5816   -6589.9924   -3031.8354    18738.927    3.2220582 
    5450     630.7366   -6660.2893   -6589.9296   -2235.4332    18726.077    3.2302596 
    5460    621.20359   -6659.1502    -6589.854   -1578.4676    18710.197    3.2443555 
    5470    625.95076   -6659.5817    -6589.756   -1582.1764    18692.165    3.2614303 
    5480    629.93816   -6659.9047   -6589.6342   -1756.6041    18672.066    3.2792993 
    5490    644.70909   -6661.4288   -6589.5106   -2102.6898     18649.66    3.2955424 
    5500    639.56881   -6660.7456   -6589.4007   -1466.6677    18624.657    3.3099431 
    5510    613.69594    -6657.733   -6589.2743    12.941427     18597.95    3.3213055 
    5520    622.29513    -6658.518      -6589.1    413.83288    18571.305     3.327244 
    5530    638.57434    -6660.118   -6588.8841    509.53334     18545.42    3.3298618 
    5540    649.49762   -6661.1195   -6588.6671    424.74258    18520.408     3.331119 
    5550    646.22623   -6660.5571   -6588.4696    712.28366    18496.231    3.3315308 
    5560    645.71464   -6660.3215    -6588.291    1313.9999    18473.251    3.3327123 
    5570    641.69643   -6659.6934   -6588.1112    2333.6638    18452.307     3.335936 
    5580    653.37716   -6660.8194   -6587.9342    3033.0902    18434.611    3.3408874 
    5590    664.28149   -6661.8764   -6587.7748    3711.4272    18421.133    3.3468449 
    5600    677.98446    -6663.315   -6587.6848    4027.0059    18412.673    3.3527434 
    5610    677.99022   -6663.3293   -6587.6985    4025.2781     18409.62    3.3580166 
    5620     664.9111   -6661.9936   -6587.8218    3953.8948    18411.948    3.3623108 
    5630    658.75804   -6661.5198   -6588.0343    3705.6484    18419.509    3.3654155 
    5640    658.95478   -6661.8273   -6588.3199    2969.7518    18431.901    3.3690189 
    5650    646.15984   -6660.7412   -6588.6611    1960.8954     18448.14    3.3748245 
    5660    632.32446   -6659.5598    -6589.023    1256.3949    18466.936    3.3790936 
    5670     631.1486   -6659.7935   -6589.3879    835.22004    18487.343    3.3789077 
    5680    627.59702   -6659.7524    -6589.743    275.35561    18508.734    3.3771042 
    5690    627.23776   -6660.0471   -6590.0778   -608.54388    18530.322    3.3772656 
    5700     628.1031   -6660.4516   -6590.3858    -1659.088    18550.918    3.3802384 
    5710    621.78775   -6660.0324   -6590.6711   -1939.4924    18569.249    3.3863277 
    5720    627.26742   -6660.9099   -6590.9372   -2126.3045    18584.835    3.3943126 
    5730    625.93244   -6661.0122   -6591.1885   -2195.2919    18597.446    3.4035223 
    5740    616.96547   -6660.2416   -6591.4182   -2396.2162    18606.979    3.4130108 
    5750    626.92054   -6661.5531   -6591.6192   -3234.1996    18613.114    3.4194594 
    5760    639.37799   -6663.1306   -6591.8071   -3704.5225     18614.85    3.4226205 
    5770    641.23085   -6663.5449   -6592.0147   -3270.9802    18611.652    3.4247646 
    5780    634.69997   -6663.0521   -6592.2504   -2730.2458    18604.037    3.4269871 
    5790     614.1554   -6660.9981   -6592.4881   -2229.7311    18592.776    3.4312842 
    5800    602.48465   -6659.8965   -6592.6884    -1906.477    18578.554    3.4389358 
    5810    610.53857   -6660.9447   -6592.8382   -1201.0462    18561.915    3.4493969 
    5820     611.1681   -6661.1059   -6592.9292    -223.1161    18543.808    3.4613033 
    5830    620.29779   -6662.1593   -6592.9641    188.38925    18525.491    3.4702249 
    5840    628.18919   -6663.0277   -6592.9523      285.897    18507.572    3.4718873 
    5850    634.55179    -6663.692   -6592.9068    211.57301    18490.174    3.4663996 
    5860     646.5595    -6664.977   -6592.8523    267.39099    18473.236    3.4572805 
    5870    644.07288   -6664.6546   -6592.8073    410.17295    18456.822    3.4483828 
    5880    627.63317   -6662.7796   -6592.7662    726.74367    18441.134    3.4434903 
    5890    621.18893   -6661.9836   -6592.6891    1185.2263    18426.599    3.4422275 
    5900    631.94157   -6663.0496   -6592.5555    1305.0228    18413.733    3.4413162 
    5910    626.82416    -6662.281   -6592.3578    1587.1343    18402.759    3.4403142 
    5920    637.27386   -6663.1951   -6592.1063    1717.7706    18393.985    3.4397834 
    5930    645.96294   -6663.8616   -6591.8034    1932.9196    18387.606    3.4412088 
    5940    662.90001   -6665.4289   -6591.4814    1458.0735    18383.769    3.4414454 
    5950    686.29335   -6667.7447   -6591.1877    636.25377    18381.859    3.4368486 
    5960    670.65977   -6665.7807   -6590.9676    539.32009    18380.905    3.4306472 
    5970    634.04379   -6661.5362   -6590.8077    860.11055    18380.709    3.4255064 
    5980    622.63657    -6660.093   -6590.6369     1126.273    18381.653    3.4229942 
    5990    629.35614   -6660.6239   -6590.4183    967.29364    18384.051    3.4247284 
    6000    633.33946   -6660.8141   -6590.1641    708.10106    18387.713    3.4305136 
    6010     632.7728    -6660.473   -6589.8862    338.61887    18392.263    3.4368449 
    6020    636.77932   -6660.6192   -6589.5855    299.85716    18397.266    3.4399882 
    6030    646.82385   -6661.4219   -6589.2678    373.26028    18402.628     3.440752 
    6040    644.14621   -6660.8096   -6588.9542    338.21748    18408.421     3.442509 
    6050    623.20769   -6658.1667    -6588.647    172.57608     18414.59    3.4436753 
    6060    615.79394   -6657.0097    -6588.317   -54.844783    18420.928    3.4377406 
    6070     623.0439   -6657.4402   -6587.9387   -438.33648     18427.11    3.4259921 
    6080    629.65701   -6657.7556   -6587.5164   -779.36736    18432.644    3.4170566 
    6090    636.19197   -6658.0459   -6587.0777   -459.93154    18437.158    3.4154308 
    6100     636.1916   -6657.6069   -6586.6387    77.718845    18441.053     3.419734 
    6110     643.4284   -6657.9889   -6586.2135    381.98654    18444.989    3.4270077 
    6120    654.51205   -6658.8313   -6585.8195    777.91936    18449.408     3.435324 
    6130    656.90516   -6658.7617   -6585.4829    1123.8043    18454.823    3.4422286 
    6140    650.91956   -6657.8165   -6585.2055    697.42607    18461.587    3.4436341 
    6150    663.12082    -6658.948   -6584.9759   -193.73073    18469.136    3.4380103 
    6160    661.81856   -6658.6271   -6584.8002   -338.78543    18476.437     3.431384 
    6170    666.29231   -6659.0151   -6584.6892    -36.72909     18483.27    3.4295838 
    6180    671.00583   -6659.4956   -6584.6439    298.90653    18489.978    3.4349635 
    6190    673.22904   -6659.7756   -6584.6759     605.3069    18497.005    3.4446698 
    6200     677.4182   -6660.3658   -6584.7988    799.66642    18504.745    3.4538873 
    6210    659.62149   -6658.5895   -6585.0077    1244.3408    18513.519    3.4589157 
    6220    642.61988   -6656.9511   -6585.2659    1435.3013    18523.837     3.456626 
    6230    641.99681   -6657.1587    -6585.543    1435.5367    18535.974    3.4491779 
    6240    636.91786   -6656.8753   -6585.8261     1286.185    18549.914    3.4411198 
    6250    653.64237   -6659.0305   -6586.1157    579.94048    18565.385    3.4358243 
    6260    682.13142   -6662.5487   -6586.4559   -363.37882    18581.447    3.4350526 
    6270    667.20673   -6661.3162   -6586.8882    34.624283    18597.048     3.438322 
    6280    646.33027   -6659.4792   -6587.3801    933.81132     18612.61    3.4430158 
    6290     642.3622   -6659.5415    -6587.885    1073.4174    18629.205    3.4458734 
    6300    632.95636   -6658.9673   -6588.3601    390.78937    18647.028    3.4452906 
    6310    641.06354   -6660.2971   -6588.7855   -1341.0528    18665.077    3.4416255 
    6320    637.07182   -6660.2204    -6589.154   -2908.9915    18681.146    3.4390768 
    6330    632.83969   -6660.0671   -6589.4729   -3740.4436    18693.167    3.4392131 
    6340     637.9155   -6660.9145    -6589.754   -3935.2701        18700    3.4393762 
    6350    622.73048   -6659.4623   -6589.9958   -3003.0026    18701.508     3.437112 
    6360    621.04922   -6659.4577   -6590.1787   -2030.6884    18698.889    3.4331051 
    6370    630.19628   -6660.6101   -6590.3108   -1516.7446     18693.47     3.432192 
    6380    619.66972   -6659.5245   -6590.3994   -1257.9526    18686.011    3.4360754 
    6390    630.04183    -6660.732   -6590.4499   -1232.5611    18676.883    3.4398278 
    6400    640.90419   -6661.9676   -6590.4737   -890.15328    18666.231    3.4433144 
    6410     645.2024   -6662.4728   -6590.4995   -623.20036     18654.49    3.4497027 
    6420    648.51547   -6662.8896   -6590.5467    -871.4967    18641.979     3.460052 
    6430    630.37899   -6660.9262   -6590.6064   -778.34104    18628.497    3.4734427 
    6440    615.33368   -6659.2883   -6590.6469   -479.50858     18614.15    3.4864967 
    6450    619.12872   -6659.7048   -6590.6401   -518.14435    18599.291     3.497027 
    6460    635.51649   -6661.4889   -6590.5961   -477.80542    18583.932    3.5065925 
    6470    644.66893   -6662.4497   -6590.5359    47.300598    18568.191    3.5178284 
    6480    653.76006   -6663.4153   -6590.4874     602.7936    18552.719    3.5296146 
    6490    658.19964   -6663.8941    -6590.471    1368.4401    18538.316    3.5405815 
    6500    664.46392   -6664.6298   -6590.5078    1754.7159    18525.903    3.5531938 
    6510    659.78795   -6664.2019   -6590.6015    2060.4616    18516.019    3.5673403 
    6520    646.21031   -6662.8257   -6590.7399    2407.0869    18509.037    3.5785413 
    6530    643.84867   -6662.7235   -6590.9012    2594.6455    18505.377    3.5858603 
    6540    641.87099   -6662.6779   -6591.0762    2255.1733    18505.187     3.593859 
    6550    632.21164   -6661.7872    -6591.263    1761.4029    18508.009    3.6051506 
    6560    615.25173   -6660.0632   -6591.4309    1520.6181    18513.192    3.6183032 
    6570     621.4384   -6660.8851   -6591.5627    992.65547    18520.308    3.6306288 
    6580    641.14553   -6663.1882   -6591.6674    170.97053    18528.626      3.64183 
    6590    647.36448   -6663.9956   -6591.7812    305.54955    18537.193    3.6540309 
    6600    640.96506   -6663.4237   -6591.9231     862.1211    18546.116    3.6677989 
    6610    635.42043   -6662.9635   -6592.0814    472.44878    18555.986    3.6820345 
    6620    631.24643   -6662.6591   -6592.2426   -633.31004    18566.287    3.6963176 
    6630    620.38872   -6661.5977   -6592.3924   -1147.8745    18575.682    3.7093301 
    6640    615.32375   -6661.1654   -6592.5251   -843.68134    18583.495    3.7182094 
    6650    608.59997   -6660.5116   -6592.6213    334.11108     18590.19    3.7222119 
    6660    619.14384   -6661.7492   -6592.6828    1053.2098    18597.181     3.721463 
    6670    617.69665   -6661.6087   -6592.7037    1285.0155    18605.485    3.7188805 
    6680     629.1121   -6662.8723   -6592.6939    716.34199    18615.328    3.7167878 
    6690     640.0701   -6664.0516   -6592.6508    65.723998    18626.041    3.7161793 
    6700    651.35341   -6665.2619   -6592.6024   -652.88309    18636.701    3.7175771 
    6710    643.47592   -6664.3454   -6592.5647   -710.45066    18646.438    3.7197286 
    6720    629.81637   -6662.7875   -6592.5306    -505.1721    18655.131    3.7208397 
    6730    637.09801   -6663.5439   -6592.4747   -785.16017    18662.962    3.7212773 
    6740    642.11975   -6664.0262   -6592.3967   -999.08085     18669.63    3.7225941 
    6750    642.55834    -6663.994   -6592.3157   -693.24859    18674.917    3.7258352 
    6760    632.26347   -6662.7617   -6592.2318    54.667953    18679.253    3.7313845 
    6770    617.30612   -6660.9914   -6592.1299    572.29928    18683.592     3.737699 
    6780    615.03274   -6660.5844   -6591.9765    92.630413    18688.546    3.7419365 
    6790    633.76788   -6662.4481   -6591.7503   -1344.4739     18693.45    3.7437948 
    6800    658.14252   -6664.8918    -6591.475   -2957.2127    18696.422    3.7447804 
    6810     661.3194   -6664.9848   -6591.2136   -3348.1412    18695.472    3.7464867 
    6820    648.57394   -6663.3452   -6590.9958   -2411.3687    18690.131    3.7495437 
    6830    641.92598   -6662.4088    -6590.801    -1418.082    18681.563    3.7540473 
    6840    638.31249   -6661.8114   -6590.6066   -790.57835    18671.132    3.7611142 
    6850    630.54251   -6660.7461   -6590.4081   -162.03228    18659.786    3.7727303 
    6860    619.86825   -6659.3288   -6590.1815   -44.446046     18648.33    3.7907916 
    6870    641.81096   -6661.5205   -6589.9255   -719.02348    18636.883    3.8144323 
    6880    646.19825   -6661.7391   -6589.6547   -737.79692    18624.723    3.8402833 
    6890    642.90637   -6661.1131   -6589.3959   -473.78653     18611.77    3.8615486 
    6900     647.9121   -6661.4221   -6589.1465   -739.17924    18598.299    3.8745023 
    6910    644.18621   -6660.7712   -6588.9112   -891.74064    18584.055    3.8799466 
    6920    641.18925   -6660.2154   -6588.6898   -818.27042    18568.832    3.8795445 
    6930    648.85348   -6660.8482   -6588.4676   -154.59226    18552.835    3.8752773 
    6940    668.14064   -6662.7918   -6588.2598    30.395538    18536.807    3.8704387 
    6950    673.22356   -6663.2055   -6588.1064    60.422629    18521.045    3.8695438 
    6960    659.80072   -6661.6282   -6588.0264    773.31864    18505.699    3.8741841 
    6970    638.56247   -6659.2189   -6587.9863    1793.1425    18491.682    3.8825582 
    6980    635.76689   -6658.8732   -6587.9525    2215.3369    18480.204    3.8924186 
    6990     642.5461   -6659.5905   -6587.9135    2362.1647    18471.839    3.9048334 
    7000    653.74803   -6660.8182   -6587.8917    2508.2643    18466.775    3.9213925 
    7010    664.79035   -6662.0763   -6587.9179    2101.0882    18465.064    3.9406842 
    7020    667.77112   -6662.5188   -6588.0279    1732.1547    18466.185    3.9583191 
    7030    646.00941   -6660.2733     -6588.21    1885.1806    18469.681    3.9708396 
    7040    641.98705   -6660.0423   -6588.4277    1511.6383    18475.581    3.9790253 
    7050    658.07984    -6662.082   -6588.6722    1030.8925    18483.406     3.985582 
    7060    665.72939   -6663.2485   -6588.9854    890.39992    18492.544    3.9907969 
    7070    652.88926   -6662.2163   -6589.3855    908.98017    18502.764    3.9969838 
    7080    632.63982   -6660.4125   -6589.8406    721.89882    18514.004    4.0046722 
    7090    622.78766   -6659.7795   -6590.3066    678.56304    18526.062     4.011819 
    7100    615.66597   -6659.4296   -6590.7512    763.43242    18538.871    4.0169068 
    7110    616.67111   -6659.9495   -6591.1589    412.42103    18552.462    4.0195614 
    7120    627.58405   -6661.5364   -6591.5285   -405.02665    18566.358    4.0229186 
    7130     637.8804   -6663.0446   -6591.8881   -1102.2132    18579.502    4.0304712 
    7140    617.51348   -6661.1232   -6592.2387   -747.38631    18591.081    4.0424353 
    7150    598.55199   -6659.3115   -6592.5421   -167.54198    18601.494    4.0564719 
    7160    609.75826   -6660.7916   -6592.7722   -761.94537    18611.363    4.0684081 
    7170    616.69081     -6661.73   -6592.9372   -1927.4161    18619.969    4.0773522 
    7180    598.59493   -6659.8136   -6593.0394   -2498.4677    18625.889    4.0857715 
    7190    602.07791   -6660.2269   -6593.0642    -2648.521    18628.374    4.0935116 
    7200    625.75526   -6662.8219   -6593.0179   -2765.7065    18627.223    4.1002984 
    7210    628.04361   -6662.9927   -6592.9335   -2210.8566    18622.454    4.1065288 
    7220    619.17873   -6661.8969   -6592.8266   -1694.7505     18614.78    4.1109537 
    7230    626.78399   -6662.6021   -6592.6834   -1809.5667    18604.874    4.1139607 
    7240    634.00624   -6663.2316   -6592.5073   -1906.2671    18592.698    4.1168828 
    7250    629.60726   -6662.5384   -6592.3047   -1090.4957    18578.307    4.1198799 
    7260    641.87524   -6663.6659   -6592.0637   -368.28727     18562.71    4.1214971 
    7270    654.74267   -6664.8266    -6591.789    387.70968     18546.95    4.1223316 
    7280    655.65889   -6664.6428    -6591.503    1161.0759     18532.03    4.1240822 
    7290    662.07298   -6665.0773   -6591.2221    1785.0069    18518.946     4.130286 
    7300    649.44866   -6663.3888   -6590.9419    2291.5089    18508.505    4.1442736 
    7310    653.96673   -6663.6055   -6590.6545    2189.2437    18501.253    4.1652601 
    7320    664.03759   -6664.4163   -6590.3419    2225.1133    18497.114    4.1919642 
    7330    656.25708   -6663.2254    -6590.019     2237.786    18496.027    4.2194583 
    7340    650.01081   -6662.1917    -6589.682     2124.085    18497.946     4.240711 
    7350    656.65193   -6662.5647   -6589.3142     1906.054    18502.657    4.2537094 
    7360    667.43091   -6663.3707   -6588.9177    1220.5385    18509.762    4.2588943 
    7370    676.63661   -6664.0042   -6588.5244    219.22709    18518.314    4.2600703 
    7380    668.45975   -6662.7296   -6588.1619   -201.60824    18527.063    4.2632456 
    7390    657.46119    -6661.171   -6587.8302     50.55606    18535.458     4.270522 
    7400    643.49268   -6659.2902   -6587.5077    561.08049    18543.803    4.2824502 
    7410    640.39356   -6658.6169     -6587.18    471.45864    18552.661    4.3004794 
    7420    648.79228    -6659.209   -6586.8352    64.136975    18561.951    4.3231336 
    7430    657.39947   -6659.8169    -6586.483   -471.34889    18571.121    4.3445695 
    7440    664.82003   -6660.3063   -6586.1446   -659.40357     18579.54    4.3627303 
    7450    676.22201   -6661.2876    -6585.854   -519.38639    18586.947    4.3809692 
    7460    671.92783   -6660.5925   -6585.6379    266.62088    18593.598    4.3996486 
    7470    646.70971   -6657.6337   -6585.4923    1175.0256    18600.497    4.4182262 
    7480    642.85637   -6657.0878   -6585.3762     1105.436    18608.745    4.4360692 
    7490    663.23061   -6659.2557   -6585.2714     247.5673     18618.25    4.4518542 
    7500    665.20896   -6659.4095   -6585.2044   -385.75339    18627.947    4.4641779 
    7510    664.43153   -6659.3184   -6585.2001   -821.72547    18636.972     4.469001 
    7520      663.832   -6659.3116   -6585.2601   -1353.2651    18644.712    4.4656152 
    7530    653.35357   -6658.2685   -6585.3859   -1618.0013    18650.505    4.4562456 
    7540    644.18467   -6657.4232   -6585.5634   -1317.5398    18654.075    4.4437476 
    7550    653.71304   -6658.7119   -6585.7893   -1171.4943    18655.771    4.4326485 
    7560    653.95542   -6659.0231   -6586.0734   -1088.5683    18655.858    4.4269403 
    7570    649.44516   -6658.8712   -6586.4246   -912.21908    18654.486     4.424424 
    7580     651.3952   -6659.5035   -6586.8394   -897.12536    18651.877    4.4214621 
    7590    654.98745   -6660.3878    -6587.323   -1094.0251    18648.085    4.4198851 
    7600    658.73356   -6661.3551   -6587.8724   -1640.4747    18642.835    4.4219415 
    7610     677.8538   -6664.1244   -6588.5088   -2358.5549    18635.434    4.4237956 
    7620    682.61474   -6665.4017    -6589.255   -2750.4986    18624.985    4.4212486 
    7630    649.10355   -6662.4475    -6590.039   -2029.7297    18611.118    4.4151469 
    7640    613.98967   -6659.2089   -6590.7175   -706.95428    18594.827    4.4099752 
    7650    614.42201   -6659.7765   -6591.2368    57.444089     18577.78    4.4099701 
    7660    615.91982   -6660.3225   -6591.6157    916.41715    18561.134    4.4148945 
    7670    613.46742    -6660.306   -6591.8728    1527.1854    18545.976    4.4196563 
    7680    625.15926   -6661.7826   -6592.0451    1530.8202    18533.058    4.4218915 
    7690    645.93144   -6664.2281   -6592.1735    738.07541    18522.325    4.4233386 
    7700     670.4557   -6667.1091   -6592.3187    -469.4043    18512.707    4.4290339 
    7710    669.73204   -6667.2289   -6592.5193   -1195.7857    18502.672    4.4445317 
    7720    657.29908   -6666.0917    -6592.769   -896.28732    18491.326    4.4667142 
    7730    647.18122     -6665.23   -6593.0359    29.452506    18479.047    4.4881133 
    7740    636.76457   -6664.3234   -6593.2913    898.45398    18467.002     4.502867 
    7750    631.40706   -6663.9584    -6593.524    1591.5243    18456.306    4.5111873 
    7760    627.05926   -6663.6692   -6593.7198    1996.1856    18447.875    4.5219402 
    7770    634.60319   -6664.6868   -6593.8958    1438.2393    18442.115    4.5423021 
    7780    632.23099   -6664.5849   -6594.0586    662.81399    18438.329    4.5707792 
    7790    630.95831   -6664.5931   -6594.2088     374.7149    18435.528     4.600365 
    7800    628.69547   -6664.4742   -6594.3423    730.88903     18433.33     4.624637 
    7810    624.33394   -6664.1022   -6594.4568    1107.0699    18432.132    4.6408514 
    7820     613.8501   -6663.0163   -6594.5404    1150.8413     18432.39    4.6481975 
    7830    602.22715   -6661.7542   -6594.5749    1232.7485    18434.201    4.6477261 
    7840    606.19065   -6662.1605    -6594.539    816.76915    18437.576    4.6399284 
    7850    622.71616   -6663.9013   -6594.4364    28.304882    18441.954    4.6261865 
    7860    620.62883   -6663.5141    -6594.282   -224.63183    18446.389    4.6116977 
    7870    622.30372   -6663.5069    -6594.088   -66.053366     18450.52    4.6014191 
    7880    623.73829   -6663.4297   -6593.8508    138.72764    18454.519    4.5975599 
    7890    619.21894   -6662.6464   -6593.5716    543.44447    18458.698    4.5974301 
    7900    618.32393   -6662.2141   -6593.2392    536.67831    18463.518    4.5969802 
    7910    624.49228   -6662.5084   -6592.8453   -270.77311    18468.922    4.5946474 
    7920    639.35261   -6663.7208   -6592.4001   -1112.9722    18473.908    4.5927095 
    7930    648.59823   -6664.2907   -6591.9386   -976.77075    18477.486    4.5946745 
    7940     641.1587   -6663.0185   -6591.4963   -201.79586    18479.807    4.6029034 
    7950    634.53253   -6661.8608   -6591.0778    247.92165    18481.807    4.6146761 
    7960    642.39743   -6662.3291   -6590.6687   -91.416198    18484.036    4.6229675 
    7970    643.73873   -6662.0876   -6590.2775   -389.24566    18486.137    4.6250456 
    7980    637.98551   -6661.0831   -6589.9149    225.94165    18487.833    4.6231837 
    7990    647.70609   -6661.8346    -6589.582    755.75736    18489.784    4.6172447 
    8000    658.26205   -6662.7226   -6589.2925     1324.344    18492.752    4.6076191 
    8010    654.50665   -6662.0802    -6589.069    1893.4893    18497.477    4.5992833 
    8020    648.92107   -6661.2935   -6588.9054    2152.8603    18504.683    4.5971172 
    8030    661.80343   -6662.6189   -6588.7937    1621.5439    18514.648    4.6026266 
    8040    659.61535   -6662.3186   -6588.7375    903.11804     18526.73    4.6123552 
    8050    647.96285   -6661.0076   -6588.7264    105.08639    18539.942    4.6186762 
    8060     657.0112   -6662.0296    -6588.739   -750.29507    18553.196    4.6171987 
    8070    671.73781   -6663.7274   -6588.7941   -1216.4042    18565.399    4.6101936 
    8080    655.37073   -6662.0119   -6588.9043   -742.76708    18576.007    4.6014284 
    8090    644.85475   -6660.9852   -6589.0507   -147.53584    18585.565     4.593448 
    8100    642.72993   -6660.8949   -6589.1974    12.659932    18594.835    4.5900505 
    8110    652.88555    -6662.172   -6589.3417   -418.11604    18603.994    4.5917727 
    8120    666.42122   -6663.8455   -6589.5052    -746.6508    18612.556    4.5968697 
    8130    657.05876   -6662.9988   -6589.7029   -375.70183    18620.173    4.6052797 
    8140    640.56189   -6661.3681   -6589.9125    36.476319    18627.249    4.6179282 
    8150    636.54668   -6661.1101   -6590.1023    56.211979    18634.296    4.6355787 
    8160    637.94115   -6661.4222   -6590.2589   -94.093824    18641.395    4.6550252 
    8170    651.87386   -6663.1188   -6590.4013   -442.23068    18648.327    4.6699851 
    8180    645.97141   -6662.6062   -6590.5472   -499.93894    18654.664    4.6793918 
    8190    626.33996   -6660.5476   -6590.6785   -5.2586085    18660.373     4.684598 
    8200    633.35906   -6661.4345   -6590.7823   -38.125381    18665.994     4.685804 
    8210     633.8941   -6661.5711   -6590.8593   -328.15758    18671.526    4.6846887 
    8220    626.18551   -6660.7649    -6590.913   -440.21907    18676.623    4.6817022 
    8230    630.01832   -6661.2229   -6590.9434   -640.99137    18681.095    4.6773649 
    8240    629.63597   -6661.1941   -6590.9572   -779.33771    18684.687    4.6753764 
    8250    623.40409   -6660.4943   -6590.9526   -590.99085    18687.273    4.6778312 
    8260    627.48645   -6660.9253   -6590.9282   -524.10909    18689.027    4.6833587 
    8270    622.56216    -6660.326   -6590.8782   -127.03791     18690.12    4.6906049 
    8280    621.59972   -6660.1393   -6590.7989   -119.38075        18691    4.6968099 
    8290     632.4349   -6661.2396   -6590.6906   -542.11482    18691.671    4.6999902 
    8300    641.10018   -6662.0908   -6590.5751   -669.55353    18691.643    4.7016718 
    8310    648.96559    -6662.868   -6590.4749   -591.90587    18690.741    4.7039422 
    8320    651.56032   -6663.0911   -6590.4086    -490.5517     18689.02    4.7060923 
    8330    634.81884   -6661.1875   -6590.3725   -167.70361    18686.673    4.7073809 
    8340    629.41016   -6660.5538   -6590.3422   -343.36062    18684.036    4.7083541 
    8350    636.95615    -6661.342   -6590.2886   -844.66412    18680.895    4.7075808 
    8360    652.51452   -6663.0214   -6590.2324   -1538.7675    18676.564    4.7024965 
    8370    643.86152   -6662.0285   -6590.2048   -1945.5005    18670.158    4.6949593 
    8380     626.6508   -6660.0941   -6590.1903   -1844.8656    18661.162    4.6874377 
    8390    637.27689   -6661.2515   -6590.1623    -1908.224    18649.627    4.6844011 
    8400     647.9446   -6662.4029   -6590.1237   -1647.9263    18635.534    4.6914938 
    8410    646.59673   -6662.2154   -6590.0866   -725.72624      18619.3    4.7080378 
    8420    645.79427    -6662.093   -6590.0537    571.95457    18602.152    4.7276017 
    8430    643.00262   -6661.7492   -6590.0212    1746.7831    18585.838    4.7431118 
    8440    654.25934   -6662.9932   -6590.0096    1620.1956    18571.796    4.7512812 
    8450    645.65591   -6662.0642   -6590.0403      1104.66    18559.978    4.7539175 
    8460    634.77838   -6660.9175    -6590.107    556.93423      18549.7    4.7514279 
    8470    653.12083   -6663.0618   -6590.2052    149.98474    18540.212     4.745848 
    8480    649.46967   -6662.7974    -6590.348    466.64327    18531.047    4.7436012 
    8490    648.63497   -6662.9209   -6590.5647    844.86662     18522.55     4.747559 
    8500    649.80159   -6663.3534    -6590.867    1172.9481     18515.22    4.7571447 
    8510      647.952   -6663.5515   -6591.2715    1331.0164    18509.477    4.7681915 
    8520    647.25294   -6663.9908   -6591.7887    1165.2437    18505.489     4.776315 
    8530    624.51696   -6662.0387   -6592.3729    1278.7851    18503.117    4.7806883 
    8540    626.42597   -6662.8609   -6592.9821    1361.3959    18502.475    4.7825847 
    8550    628.12016   -6663.6554   -6593.5877    1219.4159    18503.655    4.7866595 
    8560    630.39573   -6664.4989   -6594.1773    560.02691    18506.412    4.7943977 
    8570    629.81266   -6664.9898   -6594.7332   -283.97464    18509.911    4.8053631 
[...]
   22890    639.90998   -6662.3496   -6590.9666   -1293.9848    18611.379     11.70012 
   22900    631.62769   -6661.3093   -6590.8503    -1237.452    18609.646    11.689768 
   22910    623.54522    -6660.281   -6590.7236    -1330.095    18606.165    11.685463 
   22920    623.38742   -6660.1123   -6590.5725   -1249.9993    18600.823    11.687208 
   22930    633.59961   -6661.0745   -6590.3955   -1218.1928    18593.652     11.69495 
   22940    637.00056   -6661.2605   -6590.2021   -846.29311    18584.728    11.710071 
   22950    646.54424   -6662.1312   -6590.0082    -244.8604    18574.508     11.72974 
   22960    646.51352   -6661.9338   -6589.8142    617.12266    18563.831    11.750381 
   22970    648.43087   -6661.9678   -6589.6343    1161.8485    18553.779    11.771049 
   22980    645.00754   -6661.4152   -6589.4637    1489.5339    18545.128     11.79182 
   22990    650.25608    -6661.843    -6589.306    1283.0576    18538.291    11.808038 
   23000    648.75917   -6661.5297   -6589.1597     1129.564    18533.121    11.820321 
   23010    646.98018   -6661.2046    -6589.033     1088.697    18529.428    11.830431 
   23020    647.17577   -6661.1078   -6588.9144    656.02199    18527.109    11.835481 
   23030    655.68616   -6661.9518   -6588.8091    29.470416    18525.618    11.837842 
   23040    647.34566   -6660.9287   -6588.7163   -169.74156    18524.216    11.843697 
   23050    656.48616   -6661.8677   -6588.6357   -744.79967    18522.517    11.850171 
   23060    673.27031   -6663.6878   -6588.5835   -1230.7355    18519.779      11.8484 
   23070     666.3139   -6662.9291   -6588.6008   -667.01351    18515.456    11.835604 
   23080    651.15958   -6661.3343   -6588.6964    43.755241    18510.167    11.817807 
   23090    650.46892   -6661.4209   -6588.8602    122.92538    18504.755    11.805469 
   23100    645.55084   -6661.1066   -6589.0945     184.5411    18499.409    11.803544 
   23110    629.71136   -6659.6254   -6589.3801    253.25979    18494.231    11.806175 
   23120    636.84403    -6660.747   -6589.7061   -148.35022    18489.259    11.802044 
   23130    643.81349   -6661.8957   -6590.0773   -244.60226    18484.049    11.782163 
   23140    630.30468   -6660.7993   -6590.4879    269.79081    18478.476    11.749745 
   23150    623.52926   -6660.4563   -6590.9006    1106.8339    18473.207    11.716729 
   23160    636.78802   -6662.3464   -6591.3117     1337.855    18469.256    11.690817 
   23170    637.65072   -6662.8603   -6591.7294    746.20242    18466.937     11.67059 
   23180    638.81412    -6663.417   -6592.1563   -274.66287     18465.54    11.651958 
   23190    626.92227   -6662.5124   -6592.5783   -799.17676    18463.817    11.637552 
   23200    612.26229   -6661.2556   -6592.9568   -881.74818    18461.036    11.637335 
   23210    627.56091   -6663.2905   -6593.2852   -610.12325    18457.057    11.655561 
   23220    638.34132   -6664.7977   -6593.5898    101.82503    18452.224    11.686254 
   23230     630.7908   -6664.2471   -6593.8815    883.03448    18447.449    11.718328 
   23240    630.39083   -6664.4734   -6594.1523    989.48905    18443.696    11.739275 
   23250    634.93306   -6665.2238   -6594.3961    444.45999    18441.127    11.746284 
   23260    641.08626   -6666.1507   -6594.6365    65.175098     18439.14    11.749794 
   23270    622.83947   -6664.3538   -6594.8751    377.30895    18437.291    11.762168 
   23280    599.28745   -6661.9212   -6595.0698    876.96489    18435.953    11.783404 
   23290    624.77768   -6664.9005   -6595.2056    439.31007    18435.664    11.803963 
   23300    649.66099   -6667.7868   -6595.3162   -346.55589    18435.908    11.817233 
   23310    639.46484   -6666.7688   -6595.4356   -199.71898    18435.825    11.819626 
   23320    642.99412   -6667.2968   -6595.5698    72.424668    18435.493    11.808349 
   23330    642.11229   -6667.3441   -6595.7155    276.41246    18435.259    11.788151 
   23340    641.45815   -6667.4365   -6595.8808    271.80332    18435.373    11.770485 
   23350    639.82292   -6667.4381   -6596.0649    183.82506    18435.854    11.766132 
   23360    635.57736   -6667.1569   -6596.2573     335.6375     18436.62    11.778425 
   23370    642.15575   -6668.1009   -6596.4675    692.25582    18437.863    11.804139 
   23380    626.92041   -6666.6211   -6596.6872     1377.588    18440.114    11.836381 
   23390    618.52592   -6665.8984   -6596.9009    1510.5007     18444.18      11.8658 
   23400    621.15677   -6666.3773   -6597.0863    1753.6411    18450.384    11.888457 
   23410     621.4929   -6666.5813   -6597.2528     1724.351    18459.031    11.904333 
   23420    611.23759   -6665.5759   -6597.3914    1416.3396    18470.162    11.914271 
   23430    610.64001   -6665.5941   -6597.4763    651.80317    18483.366    11.920386 
   23440     619.3537   -6666.5928    -6597.503   -174.57864    18497.697    11.926738 
   23450    620.55819   -6666.7111   -6597.4869   -877.78975    18512.046    11.939792 
   23460     604.6676   -6664.8743   -6597.4228   -950.47826    18525.545    11.959101 
   23470    606.09226   -6664.8998   -6597.2893   -1068.6254    18537.966    11.978901 
   23480    618.05116   -6666.0052   -6597.0607   -1094.2519    18549.172    11.997861 
   23490    629.52466   -6666.9766   -6596.7522   -1110.6973    18559.074    12.018879 
   23500    606.87901   -6664.0608   -6596.3625   -776.08592    18567.672    12.048265 
   23510    597.10843   -6662.4813    -6595.873   -598.60042    18575.327    12.083092 
   23520    628.85951    -6665.389   -6595.2387   -1086.5191    18582.216    12.114793 
   23530    655.45176   -6667.6203   -6594.5037   -1603.5196    18587.734    12.141399 
   23540    654.98641   -6666.8527    -6593.788   -1363.2245    18591.244    12.163518 
   23550    644.61225   -6665.0554   -6593.1479   -795.92847     18592.98      12.1826 
   23560     639.7287   -6663.9466   -6592.5839   -548.09543    18593.623    12.201199 
   23570    640.71055   -6663.5605   -6592.0882   -663.12374    18593.493    12.220492 
   23580    641.82708   -6663.2577   -6591.6609   -1052.5947    18592.441    12.239165 
   23590    641.06373   -6662.8171   -6591.3055   -1562.0232    18589.904    12.255287 
   23600    619.26576   -6660.0827   -6591.0027   -1429.8079    18585.282    12.266665 
   23610    623.51174   -6660.2719   -6590.7183   -1349.4562    18578.632     12.26885 
   23620    643.73544   -6662.2537    -6590.444   -1778.9569    18569.957    12.267445 
   23630    650.97872   -6662.8265   -6590.2088   -2126.8331     18558.74     12.27411 
   23640    660.11685   -6663.6762   -6590.0392   -2054.9735    18544.485    12.290926 
   23650     648.4292   -6662.2625   -6589.9292   -1287.7922    18527.323    12.309906 
   23660    635.20094   -6660.7023   -6589.8447   -885.39755    18508.132    12.318172 
   23670    643.46956   -6661.5481   -6589.7681   -701.40031    18487.466     12.31548 
   23680    643.84663   -6661.5213   -6589.6992   -154.28182    18465.648     12.31233 
   23690    637.80057    -6660.786   -6589.6383     750.6436    18443.413    12.309231 
   23700    617.36392   -6658.4235   -6589.5556    2368.9684     18422.05    12.305074 
   23710    608.98792   -6657.3599   -6589.4264    3433.5047    18403.573    12.301755 
   23720    629.11761   -6659.4286   -6589.2496    3201.6678    18389.351    12.305689 
   23730    650.88459   -6661.6615   -6589.0544    2842.0169    18379.273    12.315606 
   23740    667.13796   -6663.3057   -6588.8854     2327.008    18372.883    12.323265 
   23750    678.48324   -6664.4763   -6588.7905    1749.0107    18369.544    12.329714 
   23760    661.58239   -6662.5821   -6588.7816    1932.8654    18368.611    12.348166 
   23770    652.02138   -6661.5767   -6588.8427    2578.6194    18370.302    12.384702 
   23780    639.42716   -6660.2707   -6588.9416    3193.4676     18375.43    12.428331 
   23790    631.36047   -6659.4893     -6589.06    3507.1831    18384.846    12.466884 
   23800    642.35126   -6660.8442   -6589.1889    3251.4276    18399.004    12.496564 
   23810     651.0622   -6661.9695   -6589.3426    2794.6058     18417.65    12.520075 
   23820    645.42225   -6661.5338    -6589.536    2439.9968    18440.256    12.544646 
   23830    635.72781   -6660.6749   -6589.7585    1873.0666    18466.343    12.571999 
   23840    645.45319   -6661.9971   -6589.9958    757.78314    18495.134    12.602892 
   23850    655.00368     -6663.33   -6590.2633   -170.36153    18525.236    12.637412 
   23860    639.30813   -6661.9041   -6590.5884     -401.757    18555.459    12.673236 
   23870    618.89485   -6659.9844   -6590.9458   -808.58335    18585.341    12.706245 
   23880    617.20451   -6660.1519   -6591.3018    -1402.761    18614.324    12.731581 
   23890    618.68906   -6660.6628   -6591.6471   -2183.0181    18641.548    12.748459 
   23900    607.66532   -6659.7561   -6591.9701   -3028.4683    18665.906    12.756351 
   23910    605.18827    -6659.772   -6592.2623   -3865.7365    18686.199    12.754765 
   23920    601.17719   -6659.5848   -6592.5226   -3978.6728    18701.353    12.748819 
   23930    605.72172   -6660.3228   -6592.7536   -3826.6626    18711.095    12.749557 
   23940     604.8785   -6660.4324   -6592.9573   -3435.1177    18715.627    12.763627 
   23950    593.33576   -6659.3012   -6593.1137    -3235.664    18715.414    12.786563 
   23960     607.0514   -6660.9319   -6593.2144   -3371.3229    18710.681    12.811112 
   23970    616.23525   -6662.0089   -6593.2669    -3039.934    18701.331    12.832441 
   23980    603.76555   -6660.6212   -6593.2702   -2121.6887    18687.816    12.849482 
   23990    609.00133   -6661.1298   -6593.1948   -1209.1516    18671.327    12.858204 
   24000    640.15144   -6664.4506   -6593.0408   -874.25022    18653.023    12.854587 
   24010    636.69136   -6663.8616   -6592.8377   -531.71978    18633.476    12.843256 
   24020    629.02581   -6662.7672   -6592.5984   -235.68064    18613.154    12.829172 
   24030    642.83459    -6664.015   -6592.3058   -341.26263    18592.391    12.813268 
   24040    652.45158   -6664.7531   -6591.9711   -108.80224    18571.149    12.798912 
   24050    646.39469   -6663.7217   -6591.6154    581.07991    18549.754      12.7881 
   24060    642.32261   -6662.8921   -6591.2401    1278.5419    18529.083    12.781604 
   24070    633.51491   -6661.5015    -6590.832    1987.4062    18510.107    12.778449 
   24080    633.92905   -6661.1067    -6590.391    2660.2984    18493.781     12.77459 
   24090    629.23221   -6660.1053   -6589.9135    3222.4887     18481.01    12.766382 
   24100    641.06893   -6660.9271   -6589.4149    3041.6231    18472.454    12.751071 
   24110    657.58623   -6662.2708    -6588.916    2284.3347    18467.897    12.729563 
   24120    664.25596   -6662.5583   -6588.4595    1896.2077    18466.471     12.70652 
   24130     658.3264   -6661.5025   -6588.0652    1676.1344    18467.612    12.688695 
   24140    645.79089   -6659.7676   -6587.7286    1304.4477    18471.009    12.678562 
   24150    649.73373   -6659.9095   -6587.4307    721.28558    18476.166    12.678087 
   24160     666.4476   -6661.5146   -6587.1714    735.94814    18482.386    12.686766 
   24170    669.47377   -6661.6584   -6586.9776    1308.6744      18489.7    12.700151 
   24180    663.78104   -6660.9115   -6586.8657    1413.6634    18498.744    12.711194 
   24190    648.84812   -6659.1944   -6586.8144    1071.9202    18509.705    12.714135 
   24200    638.30544   -6657.9929    -6586.789    140.17899    18522.089    12.709445 
   24210    634.62162   -6657.5554   -6586.7624   -816.75913    18534.715    12.705653 
   24220    640.09487   -6658.1314   -6586.7278   -1357.4006    18546.344    12.709847 
   24230     650.5026   -6659.2646   -6586.7001   -1383.9072    18556.241    12.720012 
   24240     652.6914   -6659.5079   -6586.6992   -946.37222    18564.353    12.726148 
   24250    644.11918    -6658.584   -6586.7315   -344.30468    18571.231    12.720642 
   24260    635.30889   -6657.6531   -6586.7834   -63.086238    18577.633    12.704592 
   24270    629.66342   -6657.0792   -6586.8393    37.865918    18583.966    12.685898 
   24280    617.67969   -6655.7785   -6586.8754   -53.086259    18590.374    12.672672 
   24290    635.02076   -6657.7223   -6586.8848   -408.24419    18596.719    12.667763 
   24300    651.06487   -6659.5152   -6586.8879   -420.17795    18602.562    12.670752 
   24310    639.14993   -6658.2092   -6586.9111    405.13351    18607.971    12.677214 
   24320    641.36494   -6658.5021   -6586.9568    529.93265    18613.868    12.684597 
   24330    646.19557   -6659.1025   -6587.0184   -481.13229     18620.39    12.691514 
   24340    634.33529   -6657.8654   -6587.1043   -1158.3234    18626.363    12.694931 
   24350    627.77168   -6657.2332   -6587.2044   -1418.9409     18630.83    12.695329 
   24360    636.89666   -6658.3573   -6587.3105   -1576.9232    18633.394    12.700576 
   24370    653.54853   -6660.3524   -6587.4481   -1783.9784    18633.796    12.717013 
   24380    653.42768   -6660.5408     -6587.65   -1631.1997    18631.798    12.740081 
   24390    638.05559   -6659.0981   -6587.9221    -969.5363    18627.616    12.763465 
   24400    630.53366    -6658.566    -6588.229   -376.63875    18622.085    12.782758 
   24410    644.97929   -6660.5164    -6588.568   -285.32367    18615.945    12.795993 
   24420     643.2905   -6660.7086   -6588.9486    132.41739    18609.457     12.80694 
   24430     649.5593   -6661.8415   -6589.3822    510.86943    18603.113    12.817059 
   24440    639.93234   -6661.2421   -6589.8567    956.61334    18597.447     12.82656 
   24450    627.80836   -6660.3729   -6590.3399    853.44887    18592.984    12.833951 
   24460    642.08043   -6662.4474   -6590.8223    203.87075    18589.599    12.838053 
   24470    647.02516   -6663.4906   -6591.3139    79.584128    18586.559     12.83598 
   24480    630.36852   -6662.1144   -6591.7959    339.55142    18583.661    12.824227 
   24490    623.87554   -6661.8307   -6592.2365    633.79379    18581.216    12.811081 
   24500    627.74166   -6662.6496   -6592.6241    889.85308    18579.612    12.811542 
   24510    616.82617   -6661.7592   -6592.9513    1196.5112    18579.211     12.82816 
   24520    610.17929    -6661.282   -6593.2156    1150.5101    18580.389    12.849268 
   24530    608.59139   -6661.2991   -6593.4098    929.59663    18583.137    12.864542 
   24540    604.61014   -6660.9801   -6593.5349    673.95016    18587.157     12.86815 
   24550    609.81475   -6661.6148   -6593.5891   -103.29629    18592.049    12.860098 
   24560    629.41316   -6663.8027   -6593.5907    -1244.737    18596.796    12.850306 
   24570    633.48498   -6664.2389   -6593.5727   -1802.4387    18599.952     12.84882 
   24580    619.80303   -6662.6837   -6593.5437   -1582.9208    18600.763    12.857309 
   24590    621.81893   -6662.8556   -6593.4908   -1614.4673    18599.366    12.874075 
   24600    618.15796   -6662.3561   -6593.3996   -1450.8324    18595.794    12.891647 
   24610    620.16849   -6662.4529   -6593.2721   -1330.0259    18590.213    12.901301 
   24620    633.19925   -6663.7455   -6593.1112   -1306.1731    18582.769    12.899379 
   24630    642.07033   -6664.5523   -6592.9284   -872.69468    18573.556    12.884201 
   24640    639.68672   -6664.0911   -6592.7331   -71.819312    18563.128    12.860574 
   24650    637.75637   -6663.6723   -6592.5296    863.47576    18552.554    12.839177 
   24660    639.50343   -6663.6472   -6592.3097    1740.9484    18543.096    12.827432 
   24670    646.41551   -6664.1865   -6592.0778    2397.4359    18535.928     12.82734 
   24680    654.09549   -6664.8159   -6591.8505    2508.7426     18531.93    12.838874 
   24690    657.66353   -6665.0134     -6591.65    1886.4406    18531.225    12.856304 
   24700    637.13027   -6662.5365   -6591.4637    1517.1909    18533.102    12.874738 
   24710    624.57529   -6660.9315   -6591.2592    1475.3191    18537.112    12.892061 
   24720    649.50043    -6663.469   -6591.0162    874.33091    18543.082    12.911137 
   24730    656.28583   -6663.9671   -6590.7575    196.29347    18550.266    12.937402 
   24740    639.24271   -6661.8216   -6590.5131   -30.441365    18557.832     12.96669 
   24750    640.03124   -6661.6582   -6590.2618   -582.16649     18565.35    12.987932 
   24760    648.33021   -6662.3021   -6589.9799   -1359.9452    18572.068    12.997736 
   24770    646.35302   -6661.7749   -6589.6733   -1463.6022    18577.057    12.998294 
   24780    636.59339   -6660.3561   -6589.3432   -1533.8159    18580.047    12.986712 
   24790    636.82279   -6660.0061   -6588.9676   -1274.1431    18581.016    12.965679 
   24800    646.52919   -6660.6509   -6588.5296    -1182.287    18580.224    12.948778 
   24810     666.5927   -6662.4119   -6588.0525   -1765.1864    18577.728    12.947775 
   24820    671.52529   -6662.4902   -6587.5805   -2062.6491    18572.871    12.956507 
   24830     659.9252   -6660.7612   -6587.1456   -1335.3893    18565.335    12.959267 
   24840    643.47592    -6658.506   -6586.7253    -240.1549    18556.042    12.951714 
   24850     643.9696   -6658.1269   -6586.2911     276.4201    18546.366    12.943207 
   24860    671.63603    -6660.773   -6585.8509   -225.08794    18536.939    12.943683 
   24870    675.62144   -6660.8225   -6585.4559   -3.3612676    18527.323     12.95287 
   24880    651.88284   -6657.8539   -6585.1354    1053.7163    18517.805    12.957322 
   24890    650.83975   -6657.4586   -6584.8564    1655.7521    18509.659    12.952877 
   24900    655.71499   -6657.7409   -6584.5949    1670.2672     18503.69    12.947813 
   24910    669.14878   -6659.0137   -6584.3691    1217.5297    18499.936    12.940082 
   24920    682.24483    -6660.308   -6584.2026    991.25331    18497.884    12.931932 
   24930    672.68628    -6659.163   -6584.1238     1208.099    18497.239     12.93173 
   24940    670.49491   -6658.9276   -6584.1329    1394.1658    18498.225     12.93879 
   24950    673.96853   -6659.4165   -6584.2343    1141.6317    18501.017    12.950486 
   24960    663.37716   -6658.4345   -6584.4337    900.09496     18505.36    12.967703 
   24970    657.28991   -6658.0457    -6584.724     612.6456    18510.937    12.986207 
   24980    661.48636   -6658.8972   -6585.1074    202.51585    18517.342    12.997387 
   24990    661.54334   -6659.3981    -6585.602   -87.130138    18524.038    12.997956 
   25000    663.73233   -6660.2595   -6586.2192   -298.84326    18530.646    12.992198 
Loop time of 13474.9 on 16 procs for 20000 steps with 864 atoms

Performance: 0.128 ns/day, 187.152 hours/ns, 1.484 timesteps/s
97.0% CPU use with 16 MPI tasks x 1 OpenMP threads

MPI task timing breakdown:
Section |  min time  |  avg time  |  max time  |%varavg| %total
---------------------------------------------------------------
Pair    | 8706.5     | 11547      | 13178      |1168.8 | 85.69
Bond    | 0.0014839  | 0.0042876  | 0.0085185  |   3.1 |  0.00
Neigh   | 0.22431    | 0.31498    | 0.60249    |  15.4 |  0.00
Comm    | 237.75     | 1471.8     | 4680.9     |3210.1 | 10.92
Output  | 1.2709     | 1.2962     | 1.6646     |   8.4 |  0.01
Modify  | 17.423     | 454.74     | 974.66     |1922.2 |  3.37
Other   |            | 0.08955    |            |       |  0.00

Nlocal:        54.0000 ave          70 max          42 min
Histogram: 1 1 3 3 3 1 2 1 0 1
Nghost:        518.562 ave         611 max         461 min
Histogram: 1 3 1 7 2 0 0 0 0 2
Neighs:         0.00000 ave           0 max           0 min
Histogram: 16 0 0 0 0 0 0 0 0 0
FullNghs:      2569.00 ave        3779 max        1713 min
Histogram: 1 4 2 2 1 0 3 2 0 1

Total # of neighbors = 41104
Ave neighs/atom = 47.574074
Ave special neighs/atom = 0.0000000
Neighbor list builds = 2000
Dangerous builds = 2000
Total wall time: 4:39:34
