LAMMPS (29 Sep 2021 - Update 3)
OMP_NUM_THREADS environment is not set. Defaulting to 1 thread. (src/comm.cpp:98)
  using 1 OpenMP thread(s) per MPI task
Reading data file ...
  orthogonal box = (0.0000000 0.0000000 0.0000000) to (15.866041 15.852264 77.123517)
  2 by 1 by 8 MPI processor grid
  reading atoms ...
  864 atoms
Finding 1-2 1-3 1-4 neighbors ...
  special bond factors lj:    0        0        0       
  special bond factors coul:  0        0        0       
     0 = max # of 1-2 neighbors
     0 = max # of 1-3 neighbors
     0 = max # of 1-4 neighbors
     1 = max # of special neighbors
  special bonds CPU = 0.006 seconds
  read_data CPU = 0.034 seconds
Neighbor list info ...
  update every 1 steps, delay 10 steps, check yes
  max neighbors/atom: 2000, page size: 100000
  master list distance cutoff = 6.22
  ghost atom cutoff = 6.22
  binsize = 3.11, bins = 6 6 25
  1 neighbor lists, perpetual/occasional/extra = 1 0 0
  (1) pair quip, perpetual
      attributes: full, newton on
      pair build: full/bin
      stencil: full/bin/3d
      bin: standard
Setting up Verlet run ...
  Unit style    : metal
  Current step  : 0
  Time step     : 0.001
Per MPI rank memory allocation (min/avg/max) = 8.889 | 8.906 | 8.916 Mbytes
Step Temp PotEng TotEng Press Volume c_msd[4] 
       0            0   -8878.9247   -8878.9247   -11708.833    19397.542            0 
      10    108.80145    -8891.078    -8878.941   -13519.947    19397.542 0.00037756483 
      20    255.99871   -8907.5101   -8878.9531   -15433.074    19397.542  0.004636157 
      30    288.56988   -8911.1358   -8878.9454   -14361.122    19397.542  0.015943357 
      40    289.10053   -8911.1934   -8878.9438   -12512.136    19397.542  0.032214776 
      50    304.26419   -8912.8839   -8878.9428   -12190.839    19397.542  0.050010352 
      60    330.67215   -8915.8353   -8878.9484    -12512.07    19397.542  0.067008738 
      70    319.75479    -8914.613   -8878.9439   -12021.554    19397.542  0.084636553 
      80     311.7171   -8913.7131   -8878.9406   -11242.174    19397.542   0.10335882 
      90    344.97025   -8917.4272   -8878.9452   -11377.847    19397.542   0.12285636 
     100    369.47631   -8920.1625   -8878.9469   -11460.202    19397.542   0.14373353 
     110    369.44402   -8920.1551   -8878.9431   -10737.559    19397.542   0.16547428 
     120    381.04496   -8921.4513   -8878.9452   -10101.733    19397.542   0.18697263 
     130    387.01967   -8922.1174   -8878.9447    -9853.945    19397.542   0.20927079 
     140    390.46305   -8922.5002   -8878.9434   -10154.629    19397.542   0.23274757 
     150    401.17379   -8923.6966   -8878.9451   -10935.233    19397.542   0.25686229 
     160    405.60936   -8924.1923    -8878.946   -11533.497    19397.542   0.28181117 
     170    403.00983   -8923.9035   -8878.9472   -11313.905    19397.542   0.30705714 
     180    385.93942   -8921.9971   -8878.9449   -10395.352    19397.542   0.33328028 
     190    384.55592   -8921.8429   -8878.9451   -9702.4152    19397.542    0.3615061 
     200    397.89654   -8923.3338   -8878.9478   -9508.3306    19397.542   0.39138176 
     210    403.74057   -8923.9838    -8878.946   -9854.3562    19397.542   0.41959204 
     220    419.25516   -8925.7147   -8878.9462   -11120.155    19397.542   0.44190424 
     230    437.64496   -8927.7678   -8878.9478   -12741.979    19397.542   0.46059951 
     240    436.22365   -8927.6096   -8878.9482   -13773.271    19397.542   0.48016288 
     250     417.4692   -8925.5154   -8878.9461   -14188.084    19397.542   0.50051511 
     260    403.07006   -8923.9093   -8878.9463   -14452.366    19397.542   0.51954432 
     270    390.78955   -8922.5388   -8878.9456   -14869.677    19397.542   0.53842732 
     280    390.91941   -8922.5534   -8878.9458   -15753.944    19397.542   0.55789535 
     290    394.53071   -8922.9579   -8878.9474   -16866.473    19397.542   0.57907365 
     300    385.46639   -8921.9447   -8878.9454   -17556.881    19397.542   0.60332818 
     310    388.07639   -8922.2367   -8878.9462   -18102.563    19397.542   0.62988844 
     320    395.22438   -8923.0346   -8878.9467   -18476.923    19397.542   0.65693198 
     330     392.7193   -8922.7554    -8878.947   -18634.964    19397.542   0.68294096 
     340    387.36548    -8922.158   -8878.9468   -18928.114    19397.542    0.7064488 
     350    383.70376     -8921.75   -8878.9472   -19255.038    19397.542   0.72809194 
     360    380.16279   -8921.3526   -8878.9449   -19764.905    19397.542   0.74756432 
     370    391.53302   -8922.6238   -8878.9477   -20433.416    19397.542   0.76345228 
     380    397.18733   -8923.2529   -8878.9461   -20848.612    19397.542   0.77799013 
     390    399.66038   -8923.5327     -8878.95   -20962.623    19397.542    0.7926845 
     400    376.74168   -8920.9703   -8878.9442   -20594.318    19397.542   0.80792627 
     410    384.01385   -8921.7861   -8878.9488   -20827.442    19397.542   0.82090067 
     420    385.42711   -8921.9432   -8878.9482    -21282.02    19397.542   0.83289421 
     430    375.82197   -8920.8694   -8878.9459   -21749.833    19397.542   0.84474346 
     440    377.40301   -8921.0478   -8878.9479   -22280.425    19397.542   0.85654263 
     450    373.39276   -8920.5987   -8878.9462   -22358.315    19397.542   0.87121917 
     460    380.55104   -8921.3982   -8878.9472   -22127.174    19397.542   0.88923864 
     470    389.08947   -8922.3531   -8878.9496   -21563.629    19397.542   0.90990069 
     480    377.88025   -8921.0989   -8878.9458   -20903.426    19397.542   0.93174236 
     490    381.74982   -8921.5319   -8878.9472   -20620.986    19397.542   0.94962563 
     500    394.14575   -8922.9156   -8878.9481   -20486.731    19397.542   0.96309083 
     510    397.04898   -8923.2389   -8878.9475   -19997.235    19397.542   0.97658553 
     520    399.82595   -8923.5491    -8878.948   -19535.484    19397.542   0.99241283 
     530    404.27704   -8924.0446   -8878.9469    -19115.46    19397.542    1.0084992 
     540     411.3451   -8924.8362     -8878.95   -18661.849    19397.542    1.0226069 
     550    394.09812   -8922.9082    -8878.946   -17821.103    19397.542    1.0374953 
     560    386.81962   -8922.0987   -8878.9484   -17144.624    19397.542    1.0531551 
     570    383.04436   -8921.6747   -8878.9456   -16711.306    19397.542    1.0690946 
     580    397.22268   -8923.2587   -8878.9479   -16702.646    19397.542    1.0866029 
     590    408.28446   -8924.4929   -8878.9481   -16623.668    19397.542    1.1074158 
     600    405.74477   -8924.2095   -8878.9481   -16314.107    19397.542    1.1302748 
     610    396.02325   -8923.1251   -8878.9481    -15628.66    19397.542    1.1519665 
     620     395.3341   -8923.0495   -8878.9494   -15051.831    19397.542    1.1694303 
     630    394.27036   -8922.9318   -8878.9503   -14512.907    19397.542    1.1828305 
     640    383.62649   -8921.7417   -8878.9476   -14067.198    19397.542    1.1945401 
     650    385.14193   -8921.9112    -8878.948   -13839.463    19397.542    1.2068311 
     660     395.4713   -8923.0651   -8878.9497   -13755.797    19397.542    1.2218962 
     670     396.9724   -8923.2312   -8878.9483   -13681.042    19397.542    1.2411479 
     680    400.76426   -8923.6562   -8878.9504   -13529.754    19397.542    1.2649597 
     690    395.59922   -8923.0782   -8878.9485   -13202.541    19397.542    1.2892968 
     700    393.08673   -8922.7984    -8878.949    -12863.36    19397.542    1.3108518 
     710    392.46287   -8922.7295   -8878.9497   -12776.215    19397.542    1.3306314 
     720    392.69983   -8922.7538   -8878.9476   -12960.731    19397.542    1.3493343 
     730    407.70626    -8924.431   -8878.9507   -13617.908    19397.542    1.3652761 
     740    418.60831   -8925.6458   -8878.9494   -14182.857    19397.542    1.3758719 
     750    427.35697   -8926.6222   -8878.9499   -14411.802    19397.542    1.3817369 
     760    426.23067   -8926.4956    -8878.949   -14240.457    19397.542    1.3874968 
     770    425.68986   -8926.4355   -8878.9492   -14121.142    19397.542    1.3956033 
     780    424.34662   -8926.2861   -8878.9496   -14199.692    19397.542    1.4059418 
     790    416.51178   -8925.4118   -8878.9493   -14348.579    19397.542    1.4172819 
     800    406.85203   -8924.3329   -8878.9479   -14603.708    19397.542    1.4293586 
     810     409.3926   -8924.6176   -8878.9492   -14954.594    19397.542    1.4437899 
     820    411.52943   -8924.8561   -8878.9494   -15227.004    19397.542     1.461671 
     830    414.76526   -8925.2161   -8878.9484   -15348.177    19397.542    1.4822988 
     840    425.47297   -8926.4126   -8878.9505   -15497.059    19397.542    1.5061095 
     850    424.10961   -8926.2589   -8878.9489    -15461.05    19397.542    1.5339208 
     860    425.84903   -8926.4531    -8878.949   -15668.017    19397.542    1.5638872 
     870    428.28778   -8926.7265   -8878.9503   -15975.954    19397.542    1.5941429 
     880    422.32484   -8926.0597   -8878.9487   -16050.391    19397.542    1.6254163 
     890    420.59441   -8925.8681   -8878.9502   -16210.368    19397.542    1.6579317 
     900    412.78354   -8924.9958   -8878.9492   -16186.118    19397.542    1.6917804 
     910    408.88335   -8924.5603   -8878.9488   -16398.021    19397.542    1.7253326 
     920    415.25495   -8925.2723     -8878.95   -16866.947    19397.542    1.7566903 
     930    417.79568   -8925.5555   -8878.9498    -17314.63    19397.542    1.7866576 
     940    414.15774   -8925.1502   -8878.9503   -17816.895    19397.542    1.8175362 
     950    410.14766   -8924.7024   -8878.9498   -18397.528    19397.542     1.850555 
     960    412.13206   -8924.9218   -8878.9478   -18864.984    19397.542    1.8837942 
     970    427.90234   -8926.6835   -8878.9503   -19165.223    19397.542    1.9147148 
     980    431.11936    -8927.043    -8878.951    -19021.79    19397.542    1.9457246 
     990    415.64991   -8925.3145   -8878.9482   -18606.767    19397.542    1.9812421 
    1000    413.92707   -8925.1233   -8878.9491   -18513.829    19397.542    2.0201072 
    1010    417.45395   -8925.5177     -8878.95   -18558.895    19397.542    2.0574524 
    1020    414.66605   -8925.2045   -8878.9479    -18540.13    19397.542    2.0909232 
    1030    425.32279   -8926.3944    -8878.949   -18804.281    19397.542    2.1200334 
    1040    437.39791    -8927.743   -8878.9506    -19174.44    19397.542    2.1461906 
    1050    432.04437    -8927.144   -8878.9488   -19430.964    19397.542    2.1724444 
    1060    423.10855   -8926.1471   -8878.9487    -19670.97    19397.542     2.200914 
    1070    416.30819    -8925.389   -8878.9492   -19752.208    19397.542     2.232564 
    1080    410.19009   -8924.7058   -8878.9485   -19471.789    19397.542    2.2656179 
    1090    411.43188   -8924.8454   -8878.9496   -18927.842    19397.542    2.2963807 
    1100    413.58688   -8925.0849   -8878.9486   -18540.027    19397.542    2.3238349 
    1110    425.71996   -8926.4384   -8878.9486   -18620.545    19397.542    2.3474636 
    1120    443.01807   -8928.3709   -8878.9516   -18883.908    19397.542    2.3679172 
    1130    437.42575   -8927.7454   -8878.9499   -18767.479    19397.542    2.3882255 
    1140    422.48256   -8926.0773   -8878.9487   -18476.767    19397.542    2.4089666 
    1150    414.07643   -8925.1393   -8878.9485   -18282.798    19397.542    2.4284943 
    1160    416.01416   -8925.3558   -8878.9488   -18291.885    19397.542     2.446853 
    1170    419.66714   -8925.7642   -8878.9497   -18446.717    19397.542    2.4644412 
    1180    424.21945   -8926.2706   -8878.9483    -18449.36    19397.542    2.4806419 
    1190    440.19598   -8928.0557   -8878.9512   -18343.062    19397.542    2.4945267 
    1200    440.38662   -8928.0752   -8878.9494   -17908.359    19397.542     2.507228 
    1210    440.40752   -8928.0774   -8878.9493   -17509.071    19397.542    2.5196997 
    1220    445.29341   -8928.6232   -8878.9501   -17433.008    19397.542    2.5321836 
    1230    444.31811   -8928.5138   -8878.9494   -17404.254    19397.542    2.5456285 
    1240    444.21916   -8928.5028   -8878.9495   -17567.287    19397.542    2.5617678 
    1250    447.95301   -8928.9197   -8878.9499   -17998.888    19397.542    2.5810013 
    1260    447.05056     -8928.82   -8878.9509   -18113.089    19397.542    2.6027835 
    1270    433.76409   -8927.3363   -8878.9493   -17647.746    19397.542    2.6267411 
    1280    426.49744   -8926.5249   -8878.9485   -17215.404    19397.542    2.6522665 
    1290    438.76938   -8927.8949   -8878.9495   -17215.004    19397.542     2.679609 
    1300     454.8554   -8929.6913   -8878.9515   -17412.029    19397.542    2.7096074 
    1310    451.74789   -8929.3435   -8878.9504   -17515.094    19397.542    2.7419599 
    1320    440.03726   -8928.0361   -8878.9493    -17582.78    19397.542    2.7732724 
    1330    433.51813    -8927.309   -8878.9494   -17627.787    19397.542    2.7991894 
    1340    430.66307   -8926.9918   -8878.9507   -17406.648    19397.542    2.8192899 
    1350    422.06307   -8926.0311   -8878.9493    -17030.68    19397.542    2.8369839 
    1360    423.68793   -8926.2128   -8878.9498   -16872.793    19397.542    2.8564726 
    1370    432.23825   -8927.1671   -8878.9502   -16941.721    19397.542    2.8798412 
    1380    440.61409   -8928.1014   -8878.9502   -17160.411    19397.542     2.904214 
    1390    442.38617   -8928.3005   -8878.9516   -17288.698    19397.542    2.9262872 
    1400    432.82497   -8927.2303    -8878.948   -17111.965    19397.542    2.9462931 
    1410    443.20721   -8928.3906   -8878.9502   -17379.272    19397.542    2.9656964 
    1420     452.8574   -8929.4692   -8878.9523   -17581.285    19397.542    2.9866189 
    1430    440.33742   -8928.0699   -8878.9496    -17078.18    19397.542    3.0107644 
    1440    434.09539   -8927.3728   -8878.9488   -16559.852    19397.542    3.0372306 
    1450    446.59797     -8928.77   -8878.9513   -16458.202    19397.542    3.0634597 
    1460    455.16552   -8929.7248   -8878.9504   -16509.198    19397.542    3.0883146 
    1470     460.5176    -8930.323   -8878.9516   -16639.411    19397.542    3.1117695 
    1480    455.78137    -8929.792   -8878.9489   -16643.605    19397.542    3.1332037 
    1490    461.66937   -8930.4506   -8878.9507   -16632.215    19397.542     3.152331 
    1500    464.06114   -8930.7172   -8878.9504   -16316.323    19397.542    3.1724877 
    1510    464.69685   -8930.7871   -8878.9495    -16148.36    19397.542    3.1960897 
    1520    471.22077   -8931.5167   -8878.9514   -16208.841    19397.542    3.2225013 
    1530    471.47122   -8931.5429   -8878.9496   -16597.639    19397.542    3.2496574 
    1540    479.04999   -8932.3903   -8878.9516   -17340.131    19397.542    3.2743864 
    1550    475.60674   -8932.0055   -8878.9508   -17872.304    19397.542    3.2971604 
    1560    465.76065   -8930.9064   -8878.9501   -17822.552    19397.542    3.3221892 
    1570    460.06152    -8930.271   -8878.9505    -17442.47    19397.542    3.3512444 
    1580    459.40082   -8930.1971   -8878.9502   -16941.542    19397.542    3.3813068 
    1590    460.93829   -8930.3707   -8878.9523   -16350.345    19397.542    3.4083736 
    1600     448.2201   -8928.9504   -8878.9508   -15603.607    19397.542    3.4316634 
    1610     443.9941   -8928.4772    -8878.949    -15275.86    19397.542    3.4534934 
    1620    463.51034   -8930.6582    -8878.953   -15593.563    19397.542    3.4766509 
    1630    474.66564   -8931.9011   -8878.9514   -16126.405    19397.542    3.5034224 
    1640    481.75389   -8932.6918   -8878.9514   -16542.721    19397.542    3.5333548 
    1650    479.37897   -8932.4264    -8878.951   -16541.998    19397.542    3.5648125 
    1660    474.97776   -8931.9337   -8878.9492   -16284.173    19397.542    3.5952514 
    1670    481.99089    -8932.719   -8878.9522   -15990.017    19397.542    3.6221631 
    1680      474.213   -8931.8498   -8878.9506   -15457.654    19397.542    3.6454728 
    1690    462.13083    -8930.502   -8878.9506   -14731.806    19397.542     3.665115 
    1700    458.63731   -8930.1109   -8878.9492   -14389.905    19397.542    3.6801149 
    1710    473.55465   -8931.7771   -8878.9513   -14547.389    19397.542    3.6915037 
    1720    483.59001    -8932.897   -8878.9518   -15013.331    19397.542    3.7021408 
    1730    481.36556   -8932.6472   -8878.9501   -15645.926    19397.542    3.7142289 
    1740    484.05437   -8932.9483   -8878.9513   -16474.749    19397.542    3.7288904 
    1750    482.16869   -8932.7383   -8878.9516   -16722.219    19397.542     3.747119 
    1760    470.26243   -8931.4082   -8878.9497   -16475.495    19397.542    3.7689551 
    1770    472.75321   -8931.6852   -8878.9489   -16480.419    19397.542    3.7930019 
    1780    495.80424   -8934.2609   -8878.9532   -16801.632    19397.542     3.817904 
    1790    498.29189   -8934.5359   -8878.9506   -17030.699    19397.542    3.8432118 
    1800    497.22115   -8934.4163   -8878.9505   -17233.599    19397.542    3.8677962 
    1810    498.13201   -8934.5195   -8878.9521   -17294.852    19397.542    3.8916583 
    1820    485.17576   -8933.0725   -8878.9504   -16971.976    19397.542    3.9157232 
    1830    479.44537   -8932.4337   -8878.9509   -16627.564    19397.542    3.9391486 
    1840    478.88134   -8932.3712   -8878.9513   -16398.764    19397.542    3.9621449 
    1850     478.6415   -8932.3435   -8878.9503   -16406.049    19397.542    3.9857213 
    1860     486.1211   -8933.1789   -8878.9514   -16705.544    19397.542    4.0086822 
    1870    492.79459   -8933.9238   -8878.9519   -17221.514    19397.542    4.0297149 
    1880    491.36379   -8933.7648   -8878.9525   -18037.772    19397.542    4.0499732 
    1890    475.70955   -8932.0166   -8878.9505   -18910.363    19397.542    4.0709101 
    1900    464.92588   -8930.8141   -8878.9509   -19819.272    19397.542    4.0929306 
    1910    455.59431   -8929.7727   -8878.9505   -20229.987    19397.542    4.1160109 
    1920    452.87672   -8929.4684   -8878.9493   -20242.611    19397.542    4.1384657 
    1930    467.97161   -8931.1539   -8878.9509   -20369.825    19397.542    4.1581839 
    1940    485.34862   -8933.0926   -8878.9512   -20514.477    19397.542    4.1756159 
    1950    495.78252   -8934.2578   -8878.9525   -20428.878    19397.542    4.1936772 
    1960    500.11778   -8934.7389     -8878.95   -20591.437    19397.542    4.2145461 
    1970    511.99695   -8936.0681    -8878.954   -21344.221    19397.542    4.2363696 
    1980    499.23942   -8934.6421   -8878.9512   -21654.428    19397.542    4.2540635 
    1990    487.56603   -8933.3391   -8878.9504    -21588.86    19397.542    4.2657075 
    2000    485.14508   -8933.0707    -8878.952   -21134.343    19397.542    4.2770463 
Loop time of 1722.07 on 16 procs for 2000 steps with 864 atoms

Performance: 0.100 ns/day, 239.177 hours/ns, 1.161 timesteps/s
96.9% CPU use with 16 MPI tasks x 1 OpenMP threads

MPI task timing breakdown:
Section |  min time  |  avg time  |  max time  |%varavg| %total
---------------------------------------------------------------
Pair    | 508.61     | 1019.2     | 1715       | 997.7 | 59.18
Bond    | 0.00022316 | 0.00051875 | 0.00079179 |   0.0 |  0.00
Neigh   | 0.01469    | 0.030073   | 0.063589   |   7.8 |  0.00
Comm    | 6.5947     | 616.91     | 1094.4     |1236.4 | 35.82
Output  | 0.38183    | 23.474     | 51.542     | 391.5 |  1.36
Modify  | 0.011382   | 0.013031   | 0.015128   |   1.0 |  0.00
Other   |            | 62.45      |            |       |  3.63

Nlocal:        54.0000 ave          90 max          29 min
Histogram: 3 3 0 2 3 1 0 2 0 2
Nghost:        493.750 ave         643 max         369 min
Histogram: 3 1 0 3 2 2 1 2 0 2
Neighs:         0.00000 ave           0 max           0 min
Histogram: 16 0 0 0 0 0 0 0 0 0
FullNghs:      2706.00 ave        5944 max         890 min
Histogram: 6 0 2 1 3 0 2 0 0 2

Total # of neighbors = 43296
Ave neighs/atom = 50.111111
Ave special neighs/atom = 0.0000000
Neighbor list builds = 200
Dangerous builds = 200
Setting up Verlet run ...
  Unit style    : metal
  Current step  : 2000
  Time step     : 0.001
Per MPI rank memory allocation (min/avg/max) = 8.894 | 8.909 | 8.920 Mbytes
Step Temp PotEng TotEng Press Volume c_msd[4] 
    2000         1125   -8933.0707   -8807.5752    -17204.01    19397.542    4.2770463 
    2010    955.51179   -8914.2102   -8807.6214   -13212.296    19390.578    4.3081296 
    2020    732.52294   -8889.2159   -8807.5019   -7486.2174    19372.646    4.3398361 
    2030    751.20882   -8890.7517   -8806.9532   -7109.2152    19348.033    4.3573124 
    2040    798.18381   -8894.9456    -8805.907   -7912.1489    19317.469    4.3606042 
    2050    816.23255     -8895.73    -8804.678   -7603.9663    19280.507    4.3561076 
    2060    829.04773   -8896.0332   -8803.5517   -6446.9663    19237.528    4.3467119 
    2070    843.03048    -8896.617   -8802.5757   -5273.7289    19189.617    4.3350713 
    2080    851.53079   -8896.6337   -8801.6442   -3861.4965    19138.014     4.322908 
    2090    839.39111   -8894.2609   -8800.6256   -1730.7364    19084.196    4.3089545 
    2100    835.78633   -8892.6215   -8799.3883    791.40322    19030.143    4.2919257 
    2110    848.47288   -8892.4981   -8797.8497    3228.9775    18978.113     4.271992 
    2120    885.19569   -8894.7725   -8796.0276    5335.1221     18930.21    4.2507495 
    2130    905.89147   -8895.0568   -8794.0032    7490.2551    18888.164    4.2312851 
    2140    890.53626   -8891.2574   -8791.9168    9468.2896    18853.552    4.2137807 
    2150    900.02473   -8890.2455   -8789.8464    9869.9983    18827.604    4.1968658 
    2160    931.06914   -8891.6383   -8787.7762    8990.3647    18810.293     4.180529 
    2170    955.35408   -8892.3045   -8785.7333    8360.5053    18800.691    4.1651177 
    2180    945.62179    -8889.251   -8783.7655    8106.3111    18797.984    4.1519642 
    2190    906.02089   -8882.9615   -8781.8935    7684.6878    18801.646    4.1428416 
    2200    935.40721    -8884.374    -8780.028    5794.6351     18810.99    4.1396436 
    2210    965.34844   -8885.7827   -8778.0966    4431.3633    18824.488    4.1409666 
    2220    952.75892   -8882.4924   -8776.2107    4393.8934    18840.984    4.1442793 
    2230    965.31967   -8882.0744   -8774.3916    4241.8979    18860.235    4.1497207 
    2240     960.4078   -8879.7206   -8772.5857    4287.8207    18882.084    4.1613909 
    2250    970.86349   -8879.0966   -8770.7953    3753.2605    18906.412    4.1751382 
    2260    972.02846   -8877.4014   -8768.9701    3220.0651    18932.775     4.184242 
    2270     977.8509   -8876.2254   -8767.1446    3051.1858    18960.751    4.1906062 
    2280    1013.5518   -8878.3442    -8765.281    2458.0091    18990.094    4.1975527 
    2290    1013.6577   -8876.4859   -8763.4108    2122.8362     19020.37    4.2071965 
    2300    1009.3175   -8874.1749    -8761.584    1441.6374    19051.232    4.2201838 
    2310    1009.3823   -8872.3558   -8759.7577     213.4245    19082.134    4.2336201 
    2320    1021.6354   -8871.8679   -8757.9029   -1096.7647    19112.147    4.2415165 
    2330    1045.8593   -8872.6972     -8756.03   -1659.1676    19140.314    4.2432095 
    2340    1059.0922   -8872.3254   -8754.1821   -1490.6978    19166.284    4.2438653 
    2350    1086.2402   -8873.5591   -8752.3874   -2058.7936    19190.167    4.2462262 
    2360     1086.094   -8871.7989   -8750.6435   -2609.2121     19211.64    4.2505425 
    2370    1065.2991   -8867.8329   -8748.9972   -2741.1185     19230.38     4.254021 
    2380    1069.0596   -8866.6519   -8747.3967   -3068.3487    19246.335    4.2541287 
    2390    1034.2596   -8861.2018   -8745.8286   -2584.3487    19259.423    4.2511706 
    2400    1014.7889   -8857.4849   -8744.2836   -2376.5086     19270.02    4.2442737 
    2410    1065.8922   -8861.5622   -8742.6603   -3121.1434    19278.318    4.2359139 
    2420    1091.5978   -8862.7546   -8740.9852   -3158.9666    19283.911    4.2334164 
    2430    1106.5637   -8862.7979    -8739.359   -2827.6298    19286.816    4.2386573 
    2440    1120.5466   -8862.7944   -8737.7957   -3288.6127     19287.28    4.2506314 
    2450    1130.3434     -8862.41   -8736.3185   -4091.2073    19285.018      4.26873 
    2460    1146.5056    -8862.833   -8734.9386   -4406.5051    19279.488      4.28896 
    2470    1162.9371   -8863.4008   -8733.6734   -3699.2835    19270.554     4.308357 
    2480    1176.8832   -8863.8315   -8732.5484   -3031.6284    19258.764    4.3255225 
    2490    1158.7216   -8860.8366   -8731.5795   -1737.1084    19244.812    4.3414156 
    2500    1135.5348   -8857.3993   -8730.7286   -967.70135    19229.682    4.3586959 
    2510    1158.9224   -8859.1999   -8729.9203   -951.34034    19214.009    4.3779296 
    2520    1193.0648   -8862.2667   -8729.1785   -1037.3868    19197.845    4.3971451 
    2530    1159.8424   -8857.9458   -8728.5636    445.92675    19181.278    4.4117565 
    2540    1116.8171   -8852.6128   -8728.0302    2297.6728     19165.42    4.4188063 
    2550    1140.1135   -8854.6815   -8727.5001     2059.819    19151.559    4.4208566 
    2560     1170.336   -8857.5461   -8726.9933    933.61902    19139.579    4.4258824 
    2570    1186.1255   -8858.9134   -8726.5993    121.42888    19128.564    4.4363515 
    2580    1170.6061   -8856.9254   -8726.3425    741.68089    19117.949    4.4507408 
    2590    1162.0056   -8855.8211   -8726.1977    350.56983    19108.013    4.4666001 
    2600    1205.4194   -8860.6444    -8726.178    -1501.238    19098.414    4.4805738 
    2610    1224.7742    -8862.981   -8726.3556   -2262.9303    19087.855    4.4945214 
    2620    1189.6419    -8859.457   -8726.7507   -1115.3751    19075.776    4.5099685 
    2630    1170.6348    -8857.871   -8727.2849   -112.07336    19062.952    4.5256048 
    2640    1183.9534   -8859.9994   -8727.9276    723.16087     19050.21    4.5414299 
    2650    1204.7461   -8863.1049   -8728.7137    1529.2007    19038.239    4.5605153 
    2660    1194.3727   -8862.9041     -8729.67     2484.319     19027.69     4.578853 
    2670    1154.2833    -8859.483    -8730.721    3685.9651    19019.305    4.5897143 
    2680    1165.2174   -8861.7931   -8731.8113    3646.5414    19013.894    4.5928171 
    2690    1205.7178   -8867.5163   -8733.0167    3779.9404    19011.511    4.5918402 
    2700    1175.7467   -8865.5084   -8734.3521    4614.4751    19012.242    4.5925993 
    2710    1155.2282   -8864.5909   -8735.7234    4824.3973    19016.615    4.5974025 
    2720    1172.5452   -8867.8983   -8737.0991    3972.6625    19024.751    4.6063345 
    2730    1173.7674   -8869.4438   -8738.5083    2773.4247    19035.973    4.6217484 
    2740    1167.1938   -8870.1528   -8739.9506    1819.5862    19049.312    4.6434763 
    2750    1137.4257   -8868.2432   -8741.3616    1047.4632    19063.983    4.6666112 
    2760    1136.0031   -8869.4106   -8742.6878   -446.20549    19079.295    4.6861785 
    2770    1133.5875   -8870.3963   -8743.9429    -2073.182    19094.079    4.7026267 
    2780    1127.4851   -8870.9122   -8745.1396   -2830.5846    19107.091    4.7210389 
    2790    1134.4805   -8872.8331     -8746.28   -3532.8553    19117.682    4.7419683 
    2800     1142.488   -8874.8279   -8747.3816   -3811.5471    19125.334    4.7605706 
    2810    1154.3015   -8877.2436   -8748.4795   -3386.5161    19129.868    4.7728648 
    2820    1156.5497   -8878.6167   -8749.6018   -2711.4012    19131.632    4.7798916 
    2830    1152.8146   -8879.3356   -8750.7374   -2347.0878     19131.18    4.7896158 
    2840    1159.3927   -8881.2393   -8751.9073   -3109.6746    19128.744    4.8079951 
    2850    1143.3232   -8880.6335   -8753.0941   -3265.9882    19123.871    4.8324844 
    2860    1116.1252   -8878.7559   -8754.2505   -2491.8055    19116.459     4.860956 
    2870    1111.5765    -8879.331    -8755.333   -1610.1041    19107.115    4.8925106 
    2880    1139.7902   -8883.5278   -8756.3825   -1463.4816    19096.517    4.9250339 
    2890    1129.0368   -8883.3712   -8757.4254   -1465.4237    19084.833     4.957434 
    2900    1117.4034   -8883.0667   -8758.4187   -1942.0373    19072.071    4.9889196 
    2910    1146.4303    -8887.268    -8759.382   -3428.8904    19057.802    5.0168067 
    2920    1163.9352   -8890.2394   -8760.4007   -4031.1805    19040.982    5.0439864 
    2930    1130.8154   -8887.5733   -8761.4291   -2710.0304    19021.261    5.0766954 
    2940    1129.0999   -8888.3703   -8762.4175   -1129.4104    18999.594    5.1170495 
    2950    1115.4279    -8887.785   -8763.3574    606.39043    18977.284    5.1599116 
    2960    1099.4991   -8886.8717   -8764.2209    1289.4216    18955.647    5.1949759 
    2970    1122.5952   -8890.2762    -8765.049    260.56949    18935.157    5.2220081 
    2980    1120.4131   -8890.8575   -8765.8737   -450.74645    18915.153    5.2499092 
    2990    1079.6034   -8887.0666   -8766.6352   -638.70212     18895.06    5.2776469 
    3000    1083.6576   -8888.1624   -8767.2788   -758.82457    18874.705     5.299635 
    3010    1127.1701   -8893.5959   -8767.8584    -732.8221    18853.998    5.3210438 
    3020    1137.0067    -8895.252   -8768.4172    103.64089     18833.04    5.3455742 
    3030    1138.9388   -8896.0425   -8768.9922    1047.6947    18812.421    5.3677443 
    3040    1123.5851   -8894.8971   -8769.5595    1828.2223    18792.881    5.3835266 
    3050    1131.7533   -8896.3849   -8770.1361     1350.842    18774.929    5.3926452 
    3060    1135.3763   -8897.3957   -8770.7427    606.67274    18758.248    5.3987093 
    3070    1122.9231   -8896.6391   -8771.3753   -157.32315    18742.257    5.4040331 
    3080     1114.098   -8896.2855   -8772.0062   -1473.6398    18726.316    5.4088964 
    3090    1137.6367    -8899.573    -8772.668   -3083.6088    18709.416    5.4145746 
    3100    1122.8866   -8898.6278   -8773.3681    -4346.551    18690.354    5.4267741 
    3110     1140.035   -8901.2591   -8774.0864   -5488.6137    18668.206    5.4476981 
    3120    1192.3443   -8907.9086   -8774.9008   -6429.6119    18642.154    5.4736607 
    3130    1178.4932   -8907.2861   -8775.8234    -5708.837    18611.708    5.4962601 
    3140    1186.1025   -8909.1461   -8776.8345   -5561.0495    18577.348    5.5117501 
    3150    1203.6477   -8912.2597    -8777.991   -4869.2877    18539.408     5.524854 
    3160    1183.5983   -8911.2501   -8779.2179   -2735.3529    18498.644    5.5337666 
    3170    1205.6353   -8914.9971   -8780.5067   -1753.6267    18456.596     5.536769 
    3180     1221.826   -8918.2225    -8781.926   -2345.6745    18414.056    5.5398213 
    3190    1251.4872   -8923.1328   -8783.5275   -3190.7713    18370.778    5.5466465 
    3200    1263.6168   -8926.3145   -8785.3561    -3010.992    18326.277    5.5581067 
    3210    1193.4911   -8920.3224   -8787.1866   -1029.2464     18280.87    5.5774019 
    3220    1196.1676   -8922.3209   -8788.8866   -310.86104    18235.886    5.6025312 
    3230    1213.9281   -8925.9568   -8790.5413    141.41214    18191.968    5.6288662 
    3240    1189.4754   -8924.8001   -8792.1124    1724.1693    18149.562     5.657468 
    3250    1232.4061   -8931.1192   -8793.6424    2258.8499    18109.651    5.6853064 
    3260    1275.2111    -8937.548   -8795.2962    1986.5386    18072.582     5.716058 
    3270    1255.7841   -8937.1934   -8797.1088    1802.5584    18038.141    5.7546766 
    3280    1215.4211   -8934.5147   -8798.9326    2279.1722    18006.167    5.7995104 
    3290     1210.617   -8935.7217   -8800.6755    3080.1709    17976.908    5.8472631 
    3300    1250.8422   -8941.9518   -8802.4185    2558.8822    17950.718    5.8961243 
    3310    1240.2559   -8942.5759   -8804.2234    1993.9573    17927.215    5.9470654 
    3320    1182.3834   -8937.8614   -8805.9647    2537.3623    17905.973    5.9959428 
    3330    1185.8593   -8939.8508   -8807.5664    2427.3693    17887.183    6.0361304 
    3340    1243.8915   -8947.9481   -8809.1901    1326.1096     17870.64     6.070094 
    3350    1245.3309   -8949.8628   -8810.9442    220.85893    17855.538    6.1061031 
    3360    1180.4022   -8944.3714   -8812.6957    380.06999    17841.168    6.1374753 
    3370    1187.2976   -8946.7708    -8814.326    99.343222    17827.473    6.1654646 
    3380    1241.1669   -8954.4441     -8815.99    -698.2262    17814.225     6.199799 
    3390    1211.5369   -8952.8714   -8817.7226   -57.309651    17800.991    6.2408291 
    3400    1193.0195   -8952.5006   -8819.4174   -193.71009    17788.055    6.2886058 
    3410    1204.1516   -8955.4226   -8821.0977   -1417.3487    17775.294    6.3428999 
    3420    1219.4686   -8958.8024   -8822.7689   -2748.7334    17761.947    6.3936412 
    3430    1258.4995    -8964.943   -8824.5555   -3833.6581    17747.091    6.4399852 
    3440    1255.4163   -8966.5094   -8826.4658   -3094.1357    17730.106    6.4867724 
    3450    1251.6449   -8968.0692   -8828.4464   -1608.1532    17711.519    6.5324378 
    3460    1248.6809   -8969.7422     -8830.45   -454.29384    17692.315    6.5712095 
    3470    1213.6053   -8967.7711   -8832.3916    1061.4971    17673.368    6.6113668 
    3480    1210.4816   -8969.2781   -8834.2471    1338.3115    17655.582    6.6577145 
    3490    1222.6643   -8972.4493   -8836.0592    1227.1123    17639.179    6.7039841 
    3500    1238.2087   -8976.0144   -8837.8904    1201.8568    17624.066    6.7432539 
    3510    1248.2843   -8979.0156   -8839.7676    1476.6439    17610.216     6.780697 
    3520    1265.7745    -8982.934    -8841.735    1988.9339    17597.738    6.8252778 
    3530    1249.6954   -8983.1684    -8843.763    3599.9274    17587.007    6.8781245 
    3540    1217.6395   -8981.5865    -8845.757    5762.1119    17579.041    6.9323122 
    3550    1208.4816   -8982.4736   -8847.6656    6742.1501    17575.118    6.9836274 
    3560    1205.3359   -8983.9805   -8849.5235    6712.0528    17575.843    7.0274191 
    3570    1200.8362   -8985.2983   -8851.3432    5293.2127    17581.055    7.0603571 
    3580    1214.6453   -8988.6307   -8853.1352    2270.7746    17589.676    7.0841272 
    3590    1212.0442   -8990.1475   -8854.9422    111.76136    17599.716    7.1082039 
    3600    1173.7832   -8987.6317   -8856.6945    140.83112    17609.802    7.1396654 
    3610    1176.6683   -8989.6384   -8858.3793   -1083.4529    17619.704    7.1751918 
    3620    1176.9202   -8991.3189   -8860.0317   -3201.8819    17628.612    7.2066732 
    3630    1133.9952   -8988.0975   -8861.5986   -4005.4523    17635.267    7.2357376 
    3640    1116.3531   -8987.5554   -8863.0245   -3368.1146    17639.131    7.2664127 
    3650    1150.4277   -8992.6719   -8864.3399   -3500.3374    17640.516     7.300341 
    3660    1176.5059   -8996.9168   -8865.6758   -3862.7237    17639.447    7.3388333 
    3670     1140.133   -8994.2183   -8867.0348    -2989.454    17635.819     7.386216 
    3680    1142.5401   -8995.7975   -8868.3454    -2119.794    17630.199    7.4416072 
    3690     1165.966   -8999.6638   -8869.5986   -1636.0967     17623.22    7.5058348 
    3700    1178.4477   -9002.3058   -8870.8482   -1204.2146    17615.258    7.5713136 
    3710    1178.2885   -9003.5758    -8872.136   -466.13608    17606.657    7.6291456 
    3720    1187.3088    -9005.928   -8873.4819    701.16142     17597.95    7.6836112 
    3730    1201.2235    -9008.902   -8874.9037    2110.0454    17589.904    7.7423147 
    3740     1179.965   -9007.9977   -8876.3708    3696.3651    17583.463    7.8011873 
    3750    1149.2514   -9006.0083   -8877.8075     4991.513    17579.661    7.8527012 
    3760    1120.6798   -9004.1497   -8879.1362     6033.114    17579.357    7.8975693 
    3770    1146.0796   -9008.2274   -8880.3805    5510.5685    17583.078    7.9368736 
    3780    1164.5554   -9011.5322   -8881.6243    5216.0524    17590.523     7.969494 
    3790    1178.3854   -9014.3865   -8882.9358    4927.6701    17601.395    7.9878244 
    3800    1154.7138   -9013.0889   -8884.2788     4470.319    17615.495    7.9913944 
    3810    1169.1249   -9016.0332   -8885.6155    2258.8227    17632.332    7.9924088 
    3820    1163.6848    -9016.774   -8886.9633    95.798539    17650.451    7.9991207 
    3830    1110.5077   -9012.0999    -8888.221   -317.86529    17668.471    8.0040883 
    3840    1113.3531   -9013.5587   -8889.3625   -774.74046    17685.958    7.9998873 
    3850    1120.5427   -9015.4246   -8890.4264   -1066.5354    17702.648    7.9842408 
    3860    1103.3743   -9014.5056   -8891.4225   -996.44542    17718.372    7.9621099 
    3870    1106.1464   -9015.7444   -8892.3521   -1169.2348    17733.143    7.9426395 
    3880     1100.038   -9015.9094   -8893.1985   -1210.1453    17746.888     7.930576 
    3890    1105.1369   -9017.2532   -8893.9736   -1231.8079    17759.578     7.926873 
    3900    1120.8746   -9019.7267   -8894.6915   -1710.6774    17771.168     7.926786 
    3910    1106.9107   -9018.8594   -8895.3818   -1477.9281    17781.421    7.9248081 
    3920    1089.6297   -9017.5443   -8895.9944   -1280.4485    17790.476    7.9233745 
    3930    1147.8428   -9024.6036     -8896.56   -2013.6663    17798.427    7.9234011 
    3940    1158.7345   -9026.4392   -8897.1806   -2316.5662    17804.857     7.925499 
    3950    1101.0464    -9020.647   -8897.8236   -1409.8586    17809.651    7.9306123 
    3960    1087.6356    -9019.719   -8898.3917   -1308.0848    17813.308    7.9395305 
    3970    1115.0372   -9023.2568   -8898.8727   -2468.8301      17815.9     7.955335 
    3980    1124.1475   -9024.7297   -8899.3293   -3887.6066    17816.686    7.9776918 
    3990    1112.6734   -9023.9043    -8899.784   -3834.8031    17814.825    7.9980893 
    4000    1084.4591   -9021.1827   -8900.2096   -1700.6847    17810.432    8.0118658 
    4010    1073.9591   -9020.3326   -8900.5308    588.19083    17804.951    8.0254428 
    4020    1121.6083   -9025.8892   -8900.7721     913.7815    17799.844     8.044871 
    4030    1102.7439   -9023.9908    -8900.978    2368.5713    17795.559    8.0679844 
    4040    1090.3764   -9022.7782    -8901.145    3155.8951    17792.981    8.0938856 
    4050    1138.9452   -9028.3305   -8901.2794    1213.8237    17792.469    8.1212578 
    4060     1143.662   -9029.0216   -8901.4444    577.59829    17792.934     8.149672 
    4070    1090.4185   -9023.2613   -8901.6235    1049.5844    17793.874    8.1743046 
    4080    1071.4519   -9021.2693   -8901.7472    1779.3434    17795.548    8.1864048 
    4090     1087.248   -9023.0427   -8901.7585    2026.5719    17798.409    8.1922226 
    4100    1136.8662   -9028.5271    -8901.708    1412.5568    17802.593    8.2042437 
    4110    1113.8355   -9025.8993   -8901.6493    1622.1141    17807.778    8.2210789 
    4120     1092.331   -9023.4252   -8901.5741    1298.7666    17813.989    8.2366148 
    4130    1131.4037   -9027.6675   -8901.4577    617.31999    17821.005    8.2580983 
    4140    1101.9803   -9024.2452   -8901.3176    1627.5918    17828.484    8.2821849 
    4150     1081.045   -9021.7276   -8901.1354    2431.9722    17837.003    8.2987088 
    4160    1144.8551   -9028.6045   -8900.8942    1731.7081    17847.036    8.3007053 
    4170    1142.5947   -9028.1011    -8900.643    1091.5363    17858.198    8.2910056 
    4180    1113.7546   -9024.6646   -8900.4236    497.69753    17869.993    8.2761065 
    4190    1136.5555   -9026.9803   -8900.1958   -179.65817    17882.001    8.2596435 
    4200    1152.1543   -9028.4989   -8899.9744   -358.57324    17893.787    8.2458656 
    4210     1126.516   -9025.4719   -8899.8073   -379.87531    17905.173     8.235962 
    4220    1082.9419    -9020.441   -8899.6372   -742.50667    17916.142    8.2263635 
    4230    1098.0714   -9021.8923   -8899.4008   -2250.8813    17926.378    8.2175674 
    4240    1105.3538   -9022.3935   -8899.0896   -3235.1396    17934.939    8.2120979 
    4250    1100.8917   -9021.5367   -8898.7306   -3074.7937    17941.184     8.205588 
    4260    1123.2025   -9023.6034   -8898.3084   -3623.9892    17945.118    8.1949599 
    4270    1158.3824   -9027.0859   -8897.8666   -4965.5358    17946.371    8.1879258 
    4280    1166.8606   -9027.6686   -8897.5035   -4873.5318    17944.159    8.1929104 
    4290    1122.6267   -9022.4656   -8897.2349    -3812.529    17938.544    8.2099787 
    4300     1087.718     -9018.31   -8896.9734   -2619.1904    17930.326    8.2312451 
    4310     1129.986   -9022.7156    -8896.664   -2313.7307    17920.284    8.2502072 
    4320    1159.6514   -9025.6725   -8896.3116   -1417.5219    17908.788    8.2714385 
    4330    1177.0826   -9027.3139   -8896.0086   -257.81274    17896.452    8.3012747 
    4340    1193.0663   -9028.9066   -8895.8183    1125.0309    17884.116    8.3309682 
    4350    1179.5349   -9027.3161   -8895.7372    2258.4119    17872.754    8.3524641 
    4360    1212.5719   -9031.0698   -8895.8056    1142.9248    17863.002    8.3737304 
    4370    1192.1075    -9029.068   -8896.0866    378.17645    17854.221     8.400437 
    4380    1122.1857   -9021.6714   -8896.4899    748.46264    17845.927    8.4299319 
    4390    1180.6322   -9028.6682   -8896.9669   -833.70383    17838.126    8.4515205 
    4400    1186.0445   -9029.8508   -8897.5458   -1078.0752    17829.952    8.4685168 
    4410    1178.7682   -9029.7651   -8898.2717    253.75191    17821.231    8.4854518 
    4420    1169.8638   -9029.6101   -8899.1101    943.84925    17812.758    8.4982552 
    4430    1176.8211   -9031.3199   -8900.0437    591.75336    17804.999    8.5020812 
    4440    1164.0862   -9030.9215    -8901.066    1453.2844     17797.86    8.5031527 
    4450    1127.6821     -9027.87   -8902.0753    2480.7229     17791.86    8.5121895 
    4460    1151.7646   -9031.5291    -8903.048    1565.0038    17787.554    8.5263364 
    4470    1168.2155   -9034.3316   -8904.0154   -229.10074    17784.354    8.5393337 
    4480    1187.8889   -9037.5458    -8905.035   -1648.4343     17781.04    8.5490148 
    4490    1148.4757   -9034.1823   -8906.0681   -1353.8265    17776.744    8.5649418 
    4500    1136.8956   -9033.8546   -8907.0322   -2036.8294    17771.476    8.5881184 
    4510     1157.558   -9037.0799   -8907.9526    -3181.424     17764.81    8.6116588 
    4520    1137.8153   -9035.7668   -8908.8418   -2424.3685    17756.126    8.6316951 
    4530    1114.6972    -9034.009   -8909.6628   -955.10916    17745.905    8.6559819 
    4540    1110.9089   -9034.3104   -8910.3868    398.99503     17735.13    8.6874038 
    4550    1141.8741   -9038.3962   -8911.0184    1362.4195    17724.752    8.7173163 
    4560    1168.5726   -9041.9993   -8911.6433    1835.7437    17715.437    8.7416521 
    4570    1151.9047   -9040.7935   -8912.2968    2897.7891    17707.574    8.7586336 
    4580    1158.9493   -9042.2656   -8912.9831    2772.3359     17701.74    8.7688393 
    4590    1160.5787   -9043.1705   -8913.7062    1604.1717    17697.837    8.7754788 
    4600    1156.1783   -9043.4471   -8914.4736    633.83234    17695.099    8.7775012 
    4610    1117.4869    -9039.883   -8915.2257    182.65156    17692.868    8.7831349 
    4620    1115.4438   -9040.3515   -8915.9221   -669.25945    17690.753    8.7956724 
    4630    1109.0252   -9040.2679   -8916.5545   -1004.2341    17688.227    8.8107966 
    4640    1078.9091   -9037.4421   -8917.0882    -848.4282     17685.07    8.8262659 
    4650    1132.5017   -9043.8815   -8917.5492   -1929.2318    17681.269    8.8438328 
    4660    1156.5828   -9047.0436   -8918.0251   -1947.0849    17676.235    8.8661286 
    4670    1094.5624   -9040.5965   -8918.4964    303.30425    17670.042    8.8928982 
    4680    1115.8167   -9043.3809   -8918.9099    982.39947     17664.02    8.9182939 
    4690    1141.7311   -9046.6574   -8919.2956    666.28729    17658.697    8.9389436 
    4700    1126.1665   -9045.3271   -8919.7015    937.30434     17653.91    8.9563669 
    4710    1127.5332    -9045.889    -8920.111    712.96323     17649.79    8.9742482 
    4720     1141.036    -9047.814   -8920.5297   -406.53702    17646.128    8.9966745 
    4730    1143.6129   -9048.5522   -8920.9805   -416.23438     17642.31    9.0195117 
    4740    1153.8397   -9050.2012   -8921.4887    34.549507    17638.266    9.0349774 
    4750    1148.5699    -9050.187   -8922.0623    1925.4828    17634.386    9.0457975 
    4760     1130.458   -9048.7866   -8922.6823    3378.0799    17631.838    9.0581975 
    4770    1107.9717   -9046.8953   -8923.2994    3771.6068     17631.58    9.0743024 
    4780    1120.3167   -9048.8581   -8923.8851    2733.6068    17633.811    9.0965392 
    4790    1143.4755   -9052.0173   -8924.4609    2104.9929    17637.963    9.1269737 
    4800     1149.723    -9053.306   -8925.0527    1632.1262    17643.558    9.1657325 
    4810     1175.746   -9056.8448   -8925.6886   -205.25314    17650.151    9.2108803 
    4820    1176.9193   -9057.7093   -8926.4222   -983.11993    17656.651    9.2591914 
    4830    1124.6599   -9052.6631   -8927.2056   -44.376652    17662.558    9.3061929 
    4840    1087.3176    -9049.223   -8927.9311    42.512848    17668.343    9.3508502 
    4850    1107.0079   -9052.0339   -8928.5455   -1621.9817    17674.016    9.3921802 
    4860    1122.8183   -9054.3401    -8929.088    -3478.119    17678.526    9.4339682 
    4870    1099.6644   -9052.2436   -8929.5744   -4096.0004    17680.684    9.4796511 
    4880    1086.5296   -9051.1788   -8929.9748   -4862.5378    17679.968    9.5259934 
    4890    1089.6877   -9051.8226   -8930.2663   -5225.5731    17675.921    9.5745592 
    4900    1111.2597    -9054.451   -8930.4883    -5646.932    17668.263    9.6285528 
    4910    1115.3068   -9055.0865   -8930.6724    -4874.812    17656.809    9.6857225 
    4920    1096.3629   -9053.1017   -8930.8007   -2749.5784    17642.142     9.737169 
    4930    1109.5464   -9054.6194   -8930.8478   -677.19865    17625.668    9.7778812 
    4940    1147.1776   -9058.8092   -8930.8398    1487.7997    17608.862    9.8093689 
    4950    1169.3032   -9061.3012   -8930.8637    3314.8163    17593.183    9.8336346 
    4960    1140.1997   -9058.1432   -8930.9522    5075.7134    17579.921    9.8518487 
    4970    1108.3486   -9054.7033   -8931.0653    5193.7065    17570.145    9.8649352 
    4980    1115.0641   -9055.5695   -8931.1824    3236.5941    17563.863    9.8695465 
    4990    1135.6879   -9057.9815   -8931.2938    1968.3592    17559.904    9.8607944 
    5000    1147.2177   -9059.4061   -8931.4322    1889.8649    17557.399    9.8453126 
Loop time of 2466.95 on 16 procs for 3000 steps with 864 atoms

Performance: 0.105 ns/day, 228.421 hours/ns, 1.216 timesteps/s
97.3% CPU use with 16 MPI tasks x 1 OpenMP threads

MPI task timing breakdown:
Section |  min time  |  avg time  |  max time  |%varavg| %total
---------------------------------------------------------------
Pair    | 712.6      | 1622.3     | 2410.4     |1460.3 | 65.76
Bond    | 0.00032496 | 0.00069979 | 0.0017734  |   0.0 |  0.00
Neigh   | 0.021624   | 0.053822   | 0.10153    |  11.3 |  0.00
Comm    | 29.152     | 667.62     | 1460.9     |1866.7 | 27.06
Output  | 0.25794    | 0.26096    | 0.30388    |   2.2 |  0.01
Modify  | 26.917     | 176.71     | 615.63     |1419.0 |  7.16
Other   |            | 0.01692    |            |       |  0.00

Nlocal:        54.0000 ave          89 max          25 min
Histogram: 4 2 0 1 3 0 1 1 1 3
Nghost:        540.438 ave         765 max         348 min
Histogram: 4 0 1 3 0 2 2 2 0 2
Neighs:         0.00000 ave           0 max           0 min
Histogram: 16 0 0 0 0 0 0 0 0 0
FullNghs:      3044.88 ave        6301 max         569 min
Histogram: 5 1 1 1 2 0 2 0 1 3

Total # of neighbors = 48718
Ave neighs/atom = 56.386574
Ave special neighs/atom = 0.0000000
Neighbor list builds = 300
Dangerous builds = 300
Setting up Verlet run ...
  Unit style    : metal
  Current step  : 5000
  Time step     : 0.001
Per MPI rank memory allocation (min/avg/max) = 8.895 | 8.912 | 8.921 Mbytes
Step Temp PotEng TotEng Press Volume c_msd[4] 
    5000    1147.2177   -9059.4061   -8931.4322    1889.8649    17557.399    9.8453126 
    5010    1144.6745   -9059.1459   -8931.4558    2374.7261    17558.087    9.8378536 
    5020    1166.0716   -9061.6143   -8931.5373    1958.4105    17560.344    9.8394105 
    5030    1174.9581   -9062.7924   -8931.7241    1270.1306    17563.945    9.8504702 
    5040    1111.9323   -9056.0316   -8931.9939    1726.1547    17568.529    9.8670309 
    5050    1104.3463   -9055.4528   -8932.2613     661.3378    17574.223    9.8787218 
    5060    1130.9632   -9058.6532   -8932.4925   -1067.8399    17580.353    9.8801843 
    5070    1134.0855   -9059.2368   -8932.7279   -1544.5246    17585.852    9.8727713 
    5080    1145.3275   -9060.7881   -8933.0251   -1621.4973     17590.31     9.859778 
    5090    1140.5512     -9060.63   -8933.3998   -1034.0948    17593.699    9.8395732 
    5100    1114.1531   -9058.1096   -8933.8242    129.19502    17596.435       9.8183 
    5110    1123.9008   -9059.6667   -8934.2938   -186.74304    17599.182    9.8032595 
    5120    1097.9221   -9057.2601   -8934.7852   -624.17776    17601.827    9.7975892 
    5130    1087.3996   -9056.5663   -8935.2653   -1555.9243    17604.022     9.798325 
    5140    1129.8764   -9061.7961   -8935.7567   -2940.4988    17605.132    9.8003541 
    5150    1103.7153   -9059.4141    -8936.293   -1956.8026    17604.387    9.8055742 
    5160    1072.5938   -9056.4859   -8936.8365   -1093.9002    17602.274     9.809927 
    5170    1113.1207   -9061.5518   -8937.3815   -2751.7123    17599.195     9.802509 
    5180    1132.0835   -9064.2798   -8937.9942   -3367.0147    17594.296    9.7923998 
    5190     1105.568   -9062.0337   -8938.7059   -3137.8932    17587.097    9.7898318 
    5200    1092.6416   -9061.3562   -8939.4704   -3094.9041    17577.695    9.7939537 
    5210    1100.2164   -9063.0001   -8940.2693   -3528.2428    17566.089    9.7964445 
    5220    1073.7363   -9060.8526   -8941.0757   -3091.8205    17552.056    9.7935029 
    5230    1097.1274   -9064.2523    -8941.866   -2650.7518    17535.834    9.7915887 
    5240    1133.7923   -9069.1482   -8942.6719   -2278.6892    17517.735    9.7966095 
    5250    1116.2571   -9068.0127   -8943.4926   -223.28509    17498.178    9.8117754 
    5260    1095.8693   -9066.5164   -8944.2706    2120.7094     17478.44    9.8384027 
    5270    1092.4676   -9066.8491   -8944.9827    4373.3525    17460.074    9.8720259 
    5280    1083.5458   -9066.4776   -8945.6064    7159.4444    17444.713    9.9057456 
    5290    1096.9149   -9068.5281   -8946.1656    8418.5456    17434.124    9.9300342 
    5300    1115.6741   -9071.1687   -8946.7136     7726.742     17429.13    9.9375747 
    5310    1118.1527   -9072.0113   -8947.2797    6261.9079    17429.318    9.9346047 
    5320    1105.1291   -9071.1217   -8947.8428    5617.0566    17433.837    9.9341852 
    5330    1104.9705   -9071.6313   -8948.3702    4373.1215    17442.167    9.9449768 
    5340    1092.0416   -9070.6525   -8948.8336    3188.6503    17453.487    9.9636448 
    5350    1055.6247   -9066.9361   -8949.1796    3522.1002    17467.129    9.9805483 
    5360    1068.7892   -9068.6255   -8949.4004     3047.792    17483.165    9.9928769 
    5370    1060.5657   -9067.7785   -8949.4708    1823.7012    17501.309    10.003307 
    5380    1099.0793   -9072.0162   -8949.4123   -874.35269    17520.665    10.017082 
    5390    1118.9636   -9074.0851    -8949.263    -2519.584    17539.578    10.040492 
    5400    1091.7936    -9070.882   -8949.0907   -2334.1929    17556.938    10.074175 
    5410     1096.151   -9071.1541   -8948.8768   -2590.1165    17572.693     10.10754 
    5420     1116.822   -9073.1915   -8948.6083   -2108.2951    17586.762    10.130415 
    5430    1095.1523   -9070.4706   -8948.3047   -752.95231    17599.455    10.140733 
    5440    1065.0753   -9066.7235   -8947.9128    679.25865    17611.677    10.145289 
    5450    1090.9102   -9069.0429   -8947.3503     723.0608    17624.323    10.152717 
    5460    1131.7367   -9072.8111   -8946.5642   -226.43662    17637.454    10.168485 
    5470    1127.0954   -9071.3087   -8945.5796   -1236.6222    17650.468    10.191966 
    5480    1137.1096   -9071.2808   -8944.4345   -2009.0059    17662.667    10.219481 
    5490    1139.0096   -9070.2113    -8943.153   -2796.5518    17673.495    10.247267 
    5500    1180.2741   -9073.4829   -8941.8216    -4603.521    17682.321    10.271988 
    5510    1162.9684   -9070.2789    -8940.548   -4850.9455    17688.049    10.296165 
    5520    1140.8984   -9066.6968   -8939.4278   -3764.0733    17690.459    10.323618 
    5530     1166.523   -9068.5376   -8938.4102   -3052.6055    17690.205    10.348825 
    5540    1204.7343   -9071.9525   -8937.5625   -1572.1364    17687.884    10.367139 
    5550    1195.9664   -9070.3738    -8936.962    932.90879    17684.551    10.382006 
    5560    1182.1377   -9068.4876   -8936.6183    2882.7588     17681.84    10.394722 
    5570    1174.3133    -9067.462   -8936.4656    4023.4981    17681.106    10.404674 
    5580    1165.8432   -9066.5191   -8936.4675    4563.8245    17683.163    10.415487 
    5590    1160.2565   -9066.0059   -8936.5776     4013.802     17688.35     10.43245 
    5600    1168.4957   -9067.1021   -8936.7546    3370.9651    17696.381    10.457391 
    5610    1175.8107   -9068.1422   -8936.9788    1930.3496    17706.706    10.484844 
    5620    1170.5229   -9067.8209   -8937.2473    551.63887    17718.385    10.506145 
    5630    1197.8435   -9071.2039   -8937.5827   -1262.1802    17730.406     10.51255 
    5640    1205.6551   -9072.5133   -8938.0206   -2034.0682    17741.619    10.503298 
    5650    1170.7756   -9069.1424   -8938.5406   -1997.8169     17751.44    10.482993 
    5660    1144.6189   -9066.7377   -8939.0537   -2073.1394    17759.838    10.457035 
    5670    1164.5487   -9069.4634   -8939.5563   -2877.1249    17766.703    10.434892 
    5680    1159.0951   -9069.3888     -8940.09   -2438.4013    17771.615    10.422998 
    5690    1133.5213   -9067.0727   -8940.6267   -284.15725    17774.908    10.430957 
    5700    1150.7926   -9069.5245   -8941.1518    1668.2076    17777.974    10.460044 
    5710     1127.141   -9067.3932   -8941.6589    2777.2254    17782.163    10.497043 
    5720    1137.0023   -9068.9914   -8942.1571    2073.6217    17788.169    10.522356 
    5730    1159.2169   -9071.9668   -8942.6544    1128.3168    17795.598    10.537577 
    5740    1157.3753   -9072.3002   -8943.1933    1803.3381    17803.909     10.55522 
    5750    1157.0479   -9072.8559   -8943.7855    2302.2747    17813.456    10.577174 
    5760    1144.3532   -9072.0709   -8944.4166    2205.9049    17824.578    10.596571 
    5770    1136.0535   -9071.7705    -8945.042    1422.8193    17837.185    10.607957 
    5780    1152.2056   -9074.1874   -8945.6571    960.35963    17850.797    10.609241 
    5790    1141.6787   -9073.6324   -8946.2764    42.073075    17865.009    10.605869 
    5800    1131.9709   -9073.1319   -8946.8588   -2350.8699    17879.098    10.606725 
    5810    1173.1202   -9078.3002   -8947.4369   -4604.8546    17891.461    10.616119 
    5820    1152.7362   -9076.6388   -8948.0493   -4807.6693     17900.63    10.632294 
    5830     1108.519   -9072.3085   -8948.6515   -3347.9052    17906.444    10.651915 
    5840    1135.3682   -9075.8686   -8949.2166   -2515.5873    17909.793    10.675519 
    5850    1176.1388    -9081.007    -8949.807   -3351.5015    17911.223    10.704638 
    5860    1162.4537   -9080.1484   -8950.4749    -3700.985    17910.318    10.736517 
    5870    1137.9747   -9078.1112   -8951.1684   -3605.6779    17906.798    10.766139 
    5880    1147.3106   -9079.8438   -8951.8596   -3764.3957    17900.699    10.788185 
    5890    1123.1157   -9077.8034   -8952.5182   -2813.7149    17892.019    10.798598 
    5900    1106.0355     -9076.47   -8953.0901   -399.42212    17881.488    10.796334 
    5910    1127.7459   -9079.3736   -8953.5719    1894.4882    17870.728    10.787062 
    5920    1138.8175   -9081.0391   -8954.0023    3504.8911    17861.336    10.779304 
    5930    1128.1304   -9080.2556    -8954.411    4232.5573    17854.435    10.780339 
    5940    1103.3964   -9077.8506   -8954.7651    4711.4423    17850.563    10.793855 
    5950    1101.9102   -9077.9747   -8955.0549    4414.0491     17850.01    10.818069 
    5960    1122.3136   -9080.4911   -8955.2953    3028.3632    17852.527    10.845498 
    5970    1120.4466   -9080.4926   -8955.5051    2521.5192    17857.277    10.871288 
    5980    1128.0138   -9081.5419   -8955.7103    1073.9295    17863.708    10.890168 
    5990    1146.5843   -9083.8292    -8955.926   -281.11379     17870.88    10.896798 
    6000    1108.5509   -9079.7973   -8956.1367     -46.8168    17877.939    10.896942 
    6010     1109.401   -9080.0719   -8956.3166    -1235.403    17884.846    10.895153 
    6020    1129.5853    -9082.454    -8956.447   -2902.6285    17890.847      10.8971 
    6030    1152.8345   -9085.2001   -8956.5997   -3991.1552     17894.79    10.909554 
    6040    1159.3483   -9086.1542   -8956.8271   -3538.0101    17895.968    10.936369 
    6050    1112.5834    -9081.223   -8957.1126   -1652.4186    17894.697    10.975825 
    6060    1094.9762   -9079.5178   -8957.3715   -879.83265    17892.189    11.019734 
    6070    1148.8745   -9085.7762   -8957.6175    -1467.643    17888.978    11.060986 
    6080    1130.8446   -9084.0409   -8957.8935    -253.9914    17884.868    11.094179 
    6090    1104.6453   -9081.4001   -8958.1753    529.92311    17880.568    11.112749 
    6100    1159.8711   -9087.8579   -8958.4726   -771.10521     17876.52    11.115195 
    6110    1161.5755   -9088.4315    -8958.856   -515.26973    17872.046    11.102919 
    6120    1117.5741   -9083.9564   -8959.2893    279.16264     17867.24    11.083614 
    6130    1149.3861   -9087.9687    -8959.753   -901.68669    17862.495    11.069177 
    6140    1143.9492     -9087.91   -8960.3007   -1529.0047    17857.157    11.068589 
    6150    1084.7527   -9081.8917   -8960.8859   -518.20356    17850.878    11.085828 
    6160    1080.3702   -9081.9847   -8961.4678    170.16397    17844.229    11.119526 
    6170    1091.2811   -9083.7746   -8962.0405    1143.4478    17837.759    11.162913 
    6180    1100.1852   -9085.3416   -8962.6143    1507.6179    17832.072    11.201637 
    6190    1098.8339   -9085.7745   -8963.1979    1236.0903    17827.435    11.227009 
    6200    1153.9547   -9092.5773   -8963.8519    1156.7156    17823.694    11.242246 
    6210    1169.4185    -9095.162   -8964.7116    2466.0403    17820.846    11.253093 
    6220    1083.0055   -9086.5408   -8965.7299    5312.4135    17819.866    11.267526 
    6230    1085.1451   -9087.8772   -8966.8276    6796.8144    17822.577    11.286932 
    6240     1082.104   -9088.6792   -8967.9689    6956.9605    17830.038     11.30481 
    6250    1093.2677   -9091.0561   -8969.1004    4955.8918    17842.289    11.319473 
    6260    1114.4081   -9094.5246   -8970.2107    2383.3429    17858.037    11.334089 
    6270     1074.279   -9091.0842   -8971.2468    1470.1473    17875.588    11.351502 
    6280    1041.6039   -9088.2704   -8972.0779    887.31019     17894.18    11.370414 
    6290    1057.2741   -9090.6329   -8972.6924   -269.39245    17913.324     11.38212 
    6300    1086.0562   -9094.2613   -8973.1101   -2052.4891      17932.2    11.387391 
    6310    1094.6319   -9095.4904   -8973.3826   -3596.2868    17949.588    11.393324 
    6320    1070.9036   -9092.9985   -8973.5376   -4162.7445    17964.438    11.398911 
    6330    1055.8164   -9091.3614   -8973.5835   -5384.0262    17976.194    11.401938 
    6340    1042.7072   -9089.7986    -8973.483    -6986.173    17984.023    11.408618 
    6350    1075.6414   -9093.2497   -8973.2603   -8562.8059    17986.795    11.422256 
    6360    1071.1905    -9092.459    -8972.966   -8749.0897    17983.479    11.440214 
    6370    1076.7644   -9092.7612   -8972.6465    -8744.093    17973.893    11.461778 
    6380    1092.8789   -9094.2282   -8972.3159   -7382.7591    17958.145    11.487838 
    6390    1055.5556   -9089.7111   -8971.9623   -3116.9679    17937.379    11.513032 
    6400     1072.284   -9091.1389    -8971.524   -1035.3944    17914.322    11.527922 
    6410    1090.8855   -9092.6942   -8971.0043   -119.37532    17890.624    11.532973 
    6420    1066.1636   -9089.3946   -8970.4625    1844.5364    17867.074    11.531628 
    6430    1069.5763   -9089.1789   -8969.8661    3918.2351    17845.019    11.524045 
    6440     1112.457   -9093.3402    -8969.244    4368.8988    17825.822    11.511546 
    6450    1149.3461   -9096.8855   -8968.6742    4496.5992    17809.855    11.499498 
    6460    1144.1651   -9095.8641   -8968.2307    6047.0181    17797.301    11.491239 
    6470    1116.1086   -9092.4079   -8967.9043    7739.8572    17789.141    11.484584 
    6480     1120.437   -9092.6295   -8967.6431    7278.9975    17786.337     11.48167 
    6490    1148.4434   -9095.5507   -8967.4402    6474.1949    17788.654    11.487603 
    6500    1128.4911   -9093.1823   -8967.2974     6933.936    17795.626    11.500904 
    6510    1101.9191   -9090.1306   -8967.2099    6602.3513    17807.403    11.517256 
    6520    1076.1388   -9087.1483   -8967.1034    5042.7957    17823.708    11.540222 
    6530    1090.9305   -9088.6139    -8966.919    2609.2445    17843.404    11.572266 
    6540    1111.9317   -9090.6857    -8966.648     926.5847    17864.849    11.609843 
    6550    1125.4238   -9091.8916   -8966.3489    397.14524    17886.838    11.649224 
    6560    1119.9478    -9090.987   -8966.0552    910.87205     17908.99    11.688891 
    6570    1116.6266   -9090.3095   -8965.7481    745.27718    17931.526    11.725567 
    6580    1148.7245   -9093.5713   -8965.4293    10.598212    17954.306     11.75314 
    6590    1118.0607   -9089.8314     -8965.11   -504.67663     17976.86    11.774488 
    6600    1113.4876   -9088.9841   -8964.7729   -2885.2223    17998.613    11.797527 
    6610    1151.1031   -9092.7955   -8964.3882   -5614.8066    18017.958    11.821757 
    6620    1109.6003   -9087.7726    -8963.995   -6648.5611    18033.091    11.847883 
    6630    1083.0143   -9084.4022   -8963.5903   -7270.6579    18043.206    11.878323 
    6640    1091.3032   -9084.8382   -8963.1017   -7972.2424    18047.911    11.909284 
    6650    1093.0421   -9084.4739   -8962.5434   -8271.1569    18046.818    11.939391 
    6660    1121.5754   -9087.0691   -8961.9557    -7881.229    18039.835     11.96896 
    6670     1121.875   -9086.5023   -8961.3554   -6350.9585     18027.41    11.992543 
    6680    1113.8375   -9084.9991   -8960.7489   -4753.3488    18010.699    12.006957 
    6690    1145.0543   -9087.8702   -8960.1377    -4054.815    17990.848    12.019536 
    6700    1124.9261   -9085.0259   -8959.5387   -1758.2731    17968.623     12.03754 
    6710    1118.2985   -9083.6751   -8958.9273    578.09804    17945.625     12.06009 
    6720     1159.165   -9087.6165   -8958.3099    794.83161    17923.392    12.079824 
    6730    1184.0833   -9089.8551   -8957.7688    1042.7627    17902.226    12.094297 
    6740    1186.4646   -9089.7143   -8957.3624    2602.3649    17882.353    12.109769 
    6750    1171.9841   -9087.8286    -8957.092    4775.3428    17864.804    12.129946 
    6760    1158.8557    -9086.207   -8956.9349    5389.3118    17850.896    12.141977 
    6770    1151.2225    -9085.306   -8956.8854    5958.3763    17841.118    12.139577 
    6780    1136.7436   -9083.7305   -8956.9251    6178.3942    17835.731    12.126572 
    6790    1147.4981   -9085.0175   -8957.0124    5545.5886    17834.763    12.103587 
    6800    1164.6181   -9087.0374   -8957.1225    4020.0962    17837.664    12.077581 
    6810    1197.0507   -9090.8559   -8957.3231    2756.2887    17843.325    12.059119 
    6820    1156.8025   -9086.6948   -8957.6517     2825.095    17850.889    12.047172 
    6830    1141.8696   -9085.4614   -8958.0842     1157.091    17860.146     12.02104 
    6840    1144.7985   -9086.2885   -8958.5845   -511.20701    17870.015    11.980071 
    6850    1147.2742   -9087.1673   -8959.1872   -943.13306    17879.367    11.950764 
    6860    1152.0348   -9088.4098   -8959.8985   -1830.0804    17887.822    11.944639 
    6870     1163.825   -9090.6055   -8960.7791   -3617.3648    17894.698    11.955304 
    6880    1119.1054   -9086.6545   -8961.8166   -3249.3041    17898.988    11.966597 
    6890    1103.3944   -9086.0278   -8962.9425   -2995.2676    17900.856    11.968777 
    6900    1132.0846   -9090.4202   -8964.1345   -3452.7051    17900.517    11.964018 
    6910    1155.1327    -9094.281   -8965.4242    -3375.225    17897.775    11.961438 
    6920    1137.4726   -9093.6402   -8966.7534    -2138.708    17892.801    11.967481 
    6930    1130.2453   -9094.0789   -8967.9983   -1563.4803    17886.393    11.971991 
    6940    1115.0997   -9093.4414   -8969.0503   -760.45415    17879.081    11.968678 
    6950    1125.3802   -9095.4062   -8969.8684   -332.03969     17871.38    11.966176 
    6960    1137.2553   -9097.3479   -8970.4854   -206.49237    17863.609    11.968034 
    6970    1095.6667   -9093.1376   -8970.9143    1298.5572    17855.996    11.974966 
    6980    1107.1994   -9094.6941   -8971.1844    2487.7647     17849.46     11.99323 
    6990    1138.1661    -9098.329   -8971.3649    3339.5629    17844.803     12.01771 
    7000    1099.8641   -9094.1845    -8971.493    4410.2027    17842.641    12.036911 
    7010    1129.1013   -9097.5347   -8971.5817    2530.2861     17843.43    12.045266 
    7020    1175.5118   -9102.8177   -8971.6876   -342.69024    17845.923     12.04554 
    7030     1104.324   -9095.0318   -8971.8428   -732.03524      17848.3    12.040935 
    7040    1099.7821   -9094.6683    -8971.986   -965.51428    17850.092    12.040451 
    7050    1131.7327   -9098.3223   -8972.0758   -787.97735    17851.201    12.056308 
    7060    1133.3389   -9098.5843   -8972.1586   -481.81479     17851.75    12.081881 
    7070    1133.4541   -9098.6933   -8972.2548   -490.62613    17851.927    12.107323 
    7080    1110.2874   -9096.2196   -8972.3654    266.32759     17851.78    12.133032 
    7090    1063.2195   -9091.0165   -8972.4128    2466.9077    17851.942    12.162383 
    7100    1084.5003   -9093.3372   -8972.3595    2986.4889     17853.73    12.191826 
    7110    1121.2151   -9097.2934   -8972.2202    2591.8537    17857.554    12.219275 
    7120    1135.0584   -9098.6847   -8972.0672    1599.6487    17863.096    12.241959 
    7130    1117.0933   -9096.5365   -8971.9231    280.76953    17869.634    12.253637 
    7140    1089.5124   -9093.2952   -8971.7584   -516.56384    17876.297    12.255213 
    7150    1102.8978   -9094.5757   -8971.5458   -2122.4499    17882.412    12.253101 
    7160    1118.5285   -9096.0546    -8971.281   -3031.1014    17886.967    12.254657 
    7170    1106.0688   -9094.3797    -8970.996   -2746.3078    17889.366    12.266662 
    7180    1083.3817   -9091.5188   -8970.6659    -1143.383    17889.886    12.294336 
    7190    1084.7011   -9091.2295   -8970.2295   -123.72367    17889.547     12.32759 
    7200    1108.7293   -9093.3335   -8969.6531   -650.30335    17889.042    12.350299 
    7210    1132.8203   -9095.3482   -8968.9804   -1420.1075    17888.062    12.357087 
    7220    1139.8464   -9095.4327   -8968.2811   -1398.9495    17886.147    12.356066 
    7230    1164.9548   -9097.5656   -8967.6131   -2333.4296    17883.228    12.358617 
    7240    1164.7947   -9096.9514   -8967.0168   -2148.6216    17878.809    12.369331 
    7250    1123.9161   -9091.8656   -8966.4911   -197.55662    17873.061    12.387356 
    7260    1139.9395   -9093.1692   -8966.0072    711.18973     17867.24    12.403854 
    7270    1144.6657   -9093.2467   -8965.5575    762.75642    17861.988    12.419396 
    7280    1113.9139   -9089.4182   -8965.1595     1667.374    17857.433     12.43979 
    7290    1131.2354   -9090.9621   -8964.7711     2103.046    17854.114    12.457061 
    7300    1147.3325   -9092.3685   -8964.3818    1887.9509    17852.317    12.461344 
    7310    1133.5913   -9090.4821   -8964.0283    1200.4577    17851.875    12.453461 
    7320    1133.2661   -9090.1088   -8963.6913   -317.92115    17852.258    12.446997 
    7330    1162.1904   -9093.0167   -8963.3726   -963.79244    17852.472    12.450111 
    7340    1112.3044   -9087.1714   -8963.0922    1897.0963    17852.243    12.452469 
    7350     1102.072   -9085.7609   -8962.8231      4691.99    17853.382    12.444898 
    7360    1167.2822   -9092.7425   -8962.5304    4297.6866    17857.613    12.431628 
    7370    1154.3372   -9091.0235   -8962.2554     4182.206    17864.848    12.418735 
    7380      1124.21   -9087.4192   -8962.0118    4751.2848    17875.008    12.400925 
    7390    1151.2833   -9090.1802   -8961.7528    4064.8976    17888.292    12.372619 
    7400    1138.7368   -9088.5297   -8961.5019    4279.5398    17904.359    12.342827 
    7410    1132.0828   -9087.5654   -8961.2798     3049.135    17923.165    12.317527 
    7420    1164.3211   -9090.9328   -8961.0511   -405.86069    17943.747    12.294497 
    7430     1154.411   -9089.6002   -8960.8239   -3086.4163    17963.802    12.267735 
    7440    1114.1317   -9084.9081   -8960.6251   -3405.3096    17981.553    12.234901 
    7450    1109.6755   -9084.1671   -8960.3811   -4494.6129     17996.57    12.194663 
    7460    1180.2873   -9091.7516   -8960.0887   -6760.4553    18008.048    12.148491 
    7470    1184.3796   -9091.9745   -8959.8552   -6038.9538    18014.689    12.107185 
    7480    1141.2572   -9087.0488   -8959.7399   -2996.3601    18017.041    12.074456 
    7490    1164.3559    -9089.572   -8959.6864   -2031.9095    18017.077    12.045209 
    7500    1177.7504    -9091.078   -8959.6981   -1557.5967    18015.664     12.02217 
    7510     1172.197   -9090.6047   -8959.8444   -453.53979    18013.213    12.005359 
    7520    1175.9487   -9091.3423   -8960.1635   -703.49375     18010.37    11.989485 
    7530    1143.4875   -9088.1961   -8960.6384   -1560.4289    18007.031     11.97037 
    7540    1136.3088   -9087.9923   -8961.2354   -2039.7119    18002.654    11.947187 
    7550    1120.5649   -9086.8954   -8961.8947    -2516.049    17996.877     11.92145 
    7560    1116.3399   -9087.1064    -8962.577   -3288.6229    17989.366    11.894167 
    7570    1149.7471   -9091.5601   -8963.3041   -4434.7271    17979.548    11.870424 
    7580    1162.0493   -9093.7888   -8964.1604   -3050.3829    17966.835    11.856846 
    7590    1105.7513   -9088.3852    -8965.037    -581.3312     17952.16    11.858502 
    7600    1137.2343   -9092.7513   -8965.8911   -317.73428    17937.101    11.874791 
    7610    1150.8514   -9095.1601   -8966.7809     234.4918    17921.996    11.904505 
    7620    1095.1009   -9089.7717   -8967.6116    1965.0139    17907.311    11.942108 
    7630    1127.1261   -9094.1122   -8968.3796    1340.5087    17894.039    11.977408 
    7640    1147.8451   -9097.1847   -8969.1408     306.7579    17881.829    12.009866 
    7650    1120.8815   -9094.9268   -8969.8908    1388.6898    17870.088    12.041134 
    7660    1109.8832   -9094.3787   -8970.5696    3632.5124    17859.541     12.07034 
    7670    1140.8665   -9098.4585   -8971.1931    5049.4379    17851.594    12.101275 
    7680    1147.8864   -9099.8444   -8971.7959    6849.9102    17847.358    12.137475 
    7690    1148.9982   -9100.5901   -8972.4176    6892.5161    17847.897    12.169756 
    7700    1145.1282    -9100.804   -8973.0632    6509.0998    17853.305    12.190165 
    7710    1134.1512   -9100.2326   -8973.7164    6076.0679    17863.287    12.196195 
    7720    1111.8828   -9098.3479   -8974.3157    5076.7145    17877.484    12.192302 
    7730    1114.7533   -9099.1975   -8974.8451    2508.8955    17895.099    12.190338 
    7740    1111.3592   -9099.2472   -8975.2734   -582.20453    17914.352    12.193872 
    7750    1119.5549   -9100.5215   -8975.6334   -3439.2107    17933.042    12.199287 
    7760    1085.5972   -9097.0193   -8975.9193   -5232.9738    17949.193    12.206123 
    7770    1075.7807   -9096.1252   -8976.1203   -6190.9148    17961.517     12.21265 
    7780    1100.1792    -9098.961   -8976.2344   -6706.4526    17969.326    12.216978 
    7790    1126.7825   -9102.0138   -8976.3195   -6506.4845    17972.289    12.218193 
    7800    1113.0441   -9100.5686   -8976.4069    -5789.797    17970.586     12.21534 
    7810    1106.4862   -9099.9236   -8976.4934   -5127.1613    17964.727    12.210466 
    7820    1111.1076   -9100.4906   -8976.5449   -3817.8168    17955.302     12.21071 
    7830    1128.1207   -9102.4072   -8976.5636    -2287.674    17943.244    12.214249 
    7840    1140.5747   -9103.8083   -8976.5755   -640.86227    17929.679    12.211842 
    7850    1103.1585   -9099.6373   -8976.5783    2300.4316    17915.877     12.20088 
    7860    1105.1641   -9099.8194   -8976.5367    4784.8229    17903.777    12.189648 
    7870    1114.3975   -9100.7646   -8976.4519    5590.8235    17895.069    12.186822 
    7880    1080.2358   -9096.8337   -8976.3318    4912.4896    17890.295    12.192961 
    7890    1087.2784   -9097.4332   -8976.1457    3693.7212    17889.009    12.210058 
    7900    1093.6933    -9097.863   -8975.8598      2557.77    17890.377    12.239613 
    7910    1114.5386   -9099.8106   -8975.4821     736.7878    17893.534    12.274457 
    7920    1122.0234   -9100.1657   -8975.0023   -846.17878    17897.238    12.309653 
    7930    1112.8126   -9098.5676   -8974.4317   -1757.8633    17900.378    12.350215 
    7940    1112.1958   -9097.8373   -8973.7702   -2203.8706    17902.269    12.393016 
    7950    1107.2791   -9096.5172   -8972.9986   -2622.1535    17902.563    12.427717 
    7960    1112.8239   -9096.2372   -8972.1001   -3520.4128    17900.955    12.457302 
    7970    1119.0878   -9095.9038   -8971.0679   -4026.8772    17896.882    12.485736 
    7980    1155.6537   -9098.8627   -8969.9478   -4533.7302    17889.968    12.514461 
    7990    1181.4591   -9100.6269   -8968.8333   -4537.1659    17879.884    12.551643 
    8000    1123.2489   -9093.1435   -8967.8434   -2745.5584    17866.731    12.601696 
    8010    1121.1523   -9092.0071   -8966.9408    -1500.092    17851.647    12.655036 
    8020    1192.5347   -9099.1272   -8966.0981   -1730.7778    17835.465    12.704448 
    8030    1191.4571   -9098.3412   -8965.4323   -149.81724    17818.288    12.753653 
    8040    1158.2472   -9094.1769   -8964.9727    1551.0973     17801.11    12.799085 
    8050    1142.5972   -9092.1007   -8964.6423    1805.1997    17785.018    12.839462 
    8060    1138.6474   -9091.3989    -8964.381    2939.5698    17770.382    12.875572 
    8070    1190.8778   -9097.0395   -8964.1953    3486.2525    17757.846    12.901552 
    8080    1209.2097   -9099.0524   -8964.1633    3490.2531    17747.788    12.915691 
    8090    1180.2741   -9095.9778   -8964.3164    3332.9395    17740.236    12.927195 
    8100    1171.6685   -9095.3254   -8964.6241    3065.9799    17735.072    12.946618 
    8110    1134.1114   -9091.5092   -8964.9974    2642.8088    17732.074    12.972687 
    8120    1140.1667   -9092.5499   -8965.3626    1632.7655    17730.904    13.006519 
    8130    1161.7273   -9095.3055   -8965.7131    1087.7393     17730.93    13.050439 
    8140    1145.9035   -9093.9026   -8966.0753    1136.8632     17731.79     13.09477 
    8150    1152.6322   -9095.0049   -8966.4271   -213.06728    17733.352    13.129107 
    8160    1207.1149   -9101.5014   -8966.8459   -1591.6199    17734.726     13.15326 
    8170    1173.9786   -9098.3132   -8967.3542   -862.71228    17735.178    13.174107 
    8180    1179.6061   -9099.5126   -8967.9258   -1871.2447    17734.906    13.194576 
    8190    1205.0834   -9103.0169   -8968.5881   -2189.6674    17733.384    13.214481 
    8200    1128.4849    -9095.163   -8969.2788    -429.2058    17730.485    13.227848 
    8210    1108.8417   -9093.5799   -8969.8869   -235.60042    17727.173    13.230576 
    8220      1165.16   -9100.4174    -8970.442   -823.63599    17723.666    13.226992 
    8230    1149.0156   -9099.1596   -8970.9852    188.28085    17719.729    13.219949 
    8240    1139.2299   -9098.5979   -8971.5151    279.58784    17715.841    13.207363 
    8250    1133.6487   -9098.4784   -8972.0182    752.79298    17712.198    13.194823 
    8260    1100.9634   -9095.2613   -8972.4471    1523.3751    17709.136    13.188546 
    8270    1120.8834   -9097.8344   -8972.7982   -141.54913    17706.974    13.185874 
    8280    1119.1575   -9097.9381   -8973.0944   -1193.1123    17704.776    13.188611 
    8290    1090.2885   -9094.9372   -8973.3139   -1509.8237    17701.777    13.197979 
    8300    1122.2967   -9098.6505   -8973.4567   -2371.7069    17697.693    13.207343 
    8310    1152.8727   -9102.2043   -8973.5996   -2491.3598    17691.997    13.214327 
    8320    1128.3901   -9099.6506    -8973.777    -1157.775    17684.678    13.222122 
    8330     1144.331   -9101.6314   -8973.9796   -817.33161    17676.495    13.234783 
    8340    1166.9042   -9104.3913   -8974.2214    -14.33197    17667.799    13.256049 
    8350    1162.2739   -9104.1916   -8974.5382    1816.8966     17659.19    13.283322 
    8360    1141.9591   -9102.2964   -8974.9091    3512.7338    17651.865    13.313472 
    8370    1154.8743   -9104.1628   -8975.3349    3446.4588     17646.87    13.340153 
    8380    1128.0764   -9101.6358   -8975.7972    2623.0852     17644.25    13.360679 
    8390    1102.0824   -9099.2017   -8976.2628    1884.3105    17643.446    13.374265 
    8400    1100.1057   -9099.3973   -8976.6789    2029.8407    17644.022    13.383083 
    8410    1120.8656   -9102.0916   -8977.0573    2049.9693    17646.004    13.396232 
    8420    1149.1879    -9105.628   -8977.4344    1510.8713    17649.379    13.419889 
    8430    1166.4291   -9107.9973   -8977.8804     402.5657    17653.759    13.450974 
    8440    1131.6832    -9104.627   -8978.3861    563.80885    17658.516    13.483494 
    8450    1089.0561   -9100.3412   -8978.8554    631.95112    17663.676    13.515677 
    8460    1102.0873   -9102.1797   -8979.2402   -1072.5246    17669.167    13.550184 
    8470    1144.6334   -9107.2819   -8979.5964   -2512.8446    17673.942    13.586816 
    8480    1124.6142   -9105.4078   -8979.9554   -2147.3689    17677.095    13.622856 
    8490    1121.5526   -9105.4422   -8980.3313   -2360.3855    17678.698    13.651198 
    8500    1126.7638   -9106.3966   -8980.7044   -2573.7315    17678.695    13.673739 
    8510    1142.9505   -9108.6165   -8981.1187   -2529.8329    17676.906    13.698115 
    8520    1109.7998   -9105.3657   -8981.5658   -1077.2653    17673.436    13.725089 
    8530    1073.8567   -9101.7685   -8981.9782    667.88066    17669.248    13.751399 
    8540     1115.144   -9106.7299   -8982.3339   -382.75706    17665.337     13.77315 
    8550    1158.5985   -9111.9696   -8982.7261   -1339.9397    17661.158    13.788156 
    8560     1071.847    -9102.712   -8983.1459    662.71564    17656.254    13.795821 
    8570    1056.3397   -9101.3451   -8983.5089    953.00494    17651.681    13.796637 
[...]
   22890    1105.3773   -9127.2345    -9003.928     1360.953    17466.163    66.217091 
   22900    1129.5986   -9129.3332   -9003.3248    557.69487    17455.159    66.282082 
   22910    1138.8102   -9129.7143   -9002.6783    714.83003    17444.524    66.342014 
   22920    1142.2798   -9129.4527   -9002.0297    823.95591    17434.286    66.403486 
   22930    1132.3202   -9127.6857   -9001.3737    849.95649    17424.504    66.472539 
   22940    1155.0877   -9129.5505   -9000.6987    1120.3122    17415.204    66.549076 
   22950    1165.3016   -9130.0059   -9000.0147    2513.0042    17406.685    66.622807 
   22960    1145.1499   -9127.1329   -8999.3897         4718    17399.862    66.689504 
   22970     1146.507   -9126.7114   -8998.8169      6170.32     17396.14    66.754091 
   22980     1156.765   -9127.3284   -8998.2895    6315.4656    17396.509    66.812133 
   22990    1158.2142   -9127.0145   -8997.8139    6131.1259    17401.155    66.859035 
   23000    1148.3544   -9125.4892   -8997.3885     5547.789    17409.995    66.900623 
   23010    1146.9424   -9124.9363   -8996.9931    3385.2659    17422.575    66.941371 
   23020    1142.6625   -9124.0569   -8996.5912    476.24968    17437.488     66.99564 
   23030     1162.466   -9125.8714   -8996.1966   -1567.0727     17452.86    67.062235 
   23040    1164.1235   -9125.6908   -8995.8311   -2461.7824    17467.308    67.131051 
   23050    1196.4128   -9129.0257    -8995.564   -2619.4016    17480.151    67.205703 
   23060    1201.0774   -9129.4688   -8995.4868   -977.57131    17491.366     67.29541 
   23070     1140.572    -9122.852   -8995.6195    150.40703    17501.919    67.402626 
   23080    1122.3129   -9121.0313   -8995.8357   -1437.3738    17512.467    67.527055 
   23090    1212.2269   -9131.3599   -8996.1342    -5488.501    17521.922    67.663665 
   23100    1203.0137   -9130.8457   -8996.6478   -7544.0418    17527.757    67.805273 
   23110    1146.0291    -9125.233   -8997.3918   -7166.0707    17528.574    67.950975 
   23120    1150.0029   -9126.5779   -8998.2933   -7401.5196    17524.396    68.097205 
   23130    1169.5507   -9129.8332    -8999.368   -5902.1954    17515.251    68.230105 
   23140    1147.2481   -9128.5584   -9000.5811   -3643.8272    17502.092    68.347694 
   23150    1141.6264   -9129.2217   -9001.8715   -2442.7205    17486.355    68.460996 
   23160    1133.8566   -9129.6432   -9003.1598   -1840.0568    17468.928    68.574676 
   23170    1115.5015   -9128.7899    -9004.354   -252.99195    17450.333    68.688966 
   23180    1120.3561   -9130.3069   -9005.3295    2094.2559    17431.651      68.8065 
   23190    1152.4025    -9134.697   -9006.1448    4246.4135    17414.412    68.913242 
   23200    1123.2219   -9132.1252   -9006.8281    5972.1789    17400.044    68.987898 
   23210    1065.1888   -9126.1321   -9007.3087    7180.5712    17389.741    69.039341 
   23220    1094.5376   -9129.7019   -9007.6046    5715.0402    17384.121    69.087283 
   23230    1128.3009   -9133.6582   -9007.7945    3554.8153    17382.336     69.12516 
   23240    1136.6636   -9134.7445   -9007.9479    1980.2295    17383.006    69.141212 
   23250    1150.9363   -9136.5043   -9008.1156    631.88856    17385.013    69.156271 
   23260    1133.8969   -9134.7931   -9008.3052    502.84166    17387.514    69.185085 
   23270     1086.553   -9129.6832   -9008.4766    565.85914    17390.367    69.220617 
   23280     1080.658   -9129.1267   -9008.5777   -714.97342    17393.498    69.233643 
   23290    1093.3032   -9130.5337    -9008.574   -2605.6719    17396.127    69.223756 
   23300     1151.541   -9136.9912    -9008.535    -5313.049    17396.926    69.221833 
   23310    1169.5844   -9139.0337   -9008.5648   -5964.8215     17394.25    69.232809 
   23320    1097.0959   -9131.0599   -9008.6772   -3315.1136    17387.766    69.246023 
   23330    1100.9812    -9131.554   -9008.7379   -1875.5011    17378.973    69.251478 
   23340    1174.2213   -9139.7621    -9008.776   -1235.2471    17368.892    69.257588 
   23350    1114.6437   -9133.1798   -9008.8396    1269.1315    17358.152    69.274199 
   23360    1103.5822    -9132.014   -9008.9077    1805.7805    17348.124    69.288843 
   23370    1109.1444   -9132.6486   -9008.9218    1263.5411    17339.266    69.305635 
   23380    1113.8765   -9133.1452   -9008.8906    918.26336    17331.289    69.333511 
   23390    1146.4516   -9136.7466   -9008.8582    434.13264     17323.92    69.365666 
   23400    1120.9825   -9133.8845   -9008.8372    283.02921    17316.887    69.396349 
   23410    1124.3458   -9134.2573   -9008.8348   -670.74464     17309.99    69.431972 
   23420    1129.2577   -9134.8228   -9008.8524     160.0856    17302.754    69.477298 
   23430    1080.1509   -9129.3514   -9008.8589    3359.6841    17295.784    69.528217 
   23440     1094.589   -9130.8977   -9008.7946    4047.5944    17290.887    69.577391 
   23450    1122.7705   -9133.8927    -9008.646    2832.8038     17288.58    69.638527 
   23460    1123.1607   -9133.7422   -9008.4519    3045.7806    17288.287    69.726248 
   23470    1134.5002   -9134.7921   -9008.2369     4600.048    17290.119    69.832581 
   23480    1129.2112   -9133.9792    -9008.014     4687.971    17294.932    69.941531 
   23490    1151.1346   -9136.2046   -9007.7938    2106.8983    17302.735    70.042351 
   23500    1140.0839   -9134.7511   -9007.5731    122.57284    17312.027    70.132411 
   23510     1109.121   -9131.0613   -9007.3372   -743.52528    17321.509    70.218604 
   23520    1135.8322   -9133.7484   -9007.0446   -2126.0278    17330.494    70.309932 
   23530    1137.6503   -9133.6153   -9006.7087   -2254.1628     17338.17     70.40969 
   23540    1133.2923   -9132.8021   -9006.3816   -1310.8026    17344.421    70.508302 
   23550     1130.284   -9132.1339    -9006.049    601.85771    17349.899    70.604029 
   23560    1106.6026   -9129.1216   -9005.6784    1878.3708    17355.767    70.692125 
   23570    1131.0437   -9131.4073   -9005.2376    462.41447     17362.78    70.772051 
   23580      1173.45   -9135.6259   -9004.7258   -2553.7578    17370.035    70.849851 
   23590     1138.053   -9131.1836    -9004.232   -3412.0001    17375.719    70.928294 
   23600    1094.5821   -9125.8505   -9003.7482   -2227.6229    17379.258    71.011381 
   23610    1115.7411   -9127.6511   -9003.1885   -2084.7008    17381.213    71.100525 
   23620    1119.0563   -9127.3688   -9002.5364   -2301.8655    17381.743     71.18265 
   23630    1139.9295   -9128.9934   -9001.8325   -2552.2396    17380.715    71.242888 
   23640    1197.4598    -9134.705   -9001.1266   -3189.4807    17377.922    71.287487 
   23650    1184.2887   -9132.6308   -9000.5216   -1980.5211    17373.094    71.331793 
   23660    1152.5172   -9128.6039   -9000.0388    -448.3526    17366.939    71.379276 
   23670     1167.449   -9129.8605   -8999.6298   -11.884706    17360.393    71.432821 
   23680    1147.0284   -9127.2205   -8999.2677    466.47418    17353.829    71.500599 
   23690    1196.9565   -9132.5071   -8998.9848   -52.705928    17347.489    71.579733 
   23700    1190.9194   -9131.6874   -8998.8386    350.97703    17341.121    71.656214 
   23710    1102.1081   -9121.7385   -8998.7967    2382.6861    17335.057    71.712758 
   23720    1137.8377   -9125.6935    -8998.766    2251.6491    17330.416    71.739792 
   23730    1169.2988   -9129.1883   -8998.7513    2075.9199    17327.277    71.752306 
   23740    1144.2882   -9126.4621   -8998.8151    2606.7409    17325.558    71.760065 
   23750    1141.6187   -9126.2884   -8998.9392    3134.6249    17325.597    71.771591 
   23760    1177.6626   -9130.5061    -8999.136    2927.0066    17327.702     71.80911 
   23770    1197.2899   -9133.0418   -8999.4823    1886.8067    17331.761    71.882149 
   23780    1200.2478   -9133.9516   -9000.0622    -413.1177     17337.04    71.977711 
   23790    1178.6117   -9132.3574   -9000.8815   -1673.4359    17342.174    72.076616 
   23800    1140.0246    -9129.065   -9001.8935   -1044.6711    17346.361    72.167141 
   23810    1101.1771   -9125.8067   -9002.9687   -118.11883      17349.9    72.258391 
   23820    1111.2064   -9127.9952   -9004.0384    267.54562    17353.367    72.364533 
   23830    1126.1945   -9130.7098   -9005.0811    1113.4825    17357.097    72.482844 
   23840    1132.7228   -9132.4324   -9006.0755    1791.6834    17361.642    72.601658 
   23850     1141.505   -9134.3618   -9007.0252    406.68888    17367.336    72.721688 
   23860    1139.1431   -9134.9898   -9007.9167   -180.68336    17373.454    72.839875 
   23870    1127.9196   -9134.5443   -9008.7232    565.00379    17379.596    72.952023 
   23880    1149.8638   -9137.7113   -9009.4423    251.01155    17386.107    73.059602 
   23890    1146.8545   -9138.0497   -9010.1164   -67.212543    17392.896    73.162563 
   23900    1086.5543   -9131.8815   -9010.6748    533.97538    17399.819     73.25382 
   23910    1131.2931   -9137.3122   -9011.1148   -647.91005    17407.106    73.320847 
   23920    1141.5551   -9138.8508   -9011.5087   -1645.7874    17414.098    73.380695 
   23930    1057.8134   -9129.8426    -9011.842   -442.30606    17420.246    73.450632 
   23940    1078.2409   -9132.3251   -9012.0457   -1067.5312    17426.058    73.529555 
   23950     1130.438   -9138.2381    -9012.136   -2373.7948      17431.2    73.610123 
   23960    1097.8143   -9134.6359   -9012.1731      -2334.5    17434.902     73.68376 
   23970    1086.5475    -9133.366     -9012.16   -2376.6466    17437.058    73.737814 
   23980    1102.1535   -9135.0231   -9012.0762   -2179.4644    17437.637    73.773419 
   23990    1091.3213   -9133.6688   -9011.9302   -923.14146    17436.816    73.800005 
   24000    1064.1874   -9130.4104   -9011.6987   -70.294882    17435.344    73.827232 
   24010     1090.017   -9132.9667   -9011.3736   -1215.2489    17433.661    73.851109 
   24020    1104.7594   -9134.2197   -9010.9822   -2116.8241    17431.144    73.864509 
   24030    1097.7896   -9133.0243   -9010.5642   -1356.0318    17427.235    73.867821 
   24040    1096.7878   -9132.4389   -9010.0906     250.2415    17422.401    73.864686 
   24050    1135.6317   -9136.2519   -9009.5705     1001.335    17417.578    73.849173 
   24060    1129.5422   -9135.0571    -9009.055     2422.153    17413.382    73.828667 
   24070    1081.2337   -9129.1571   -9008.5438    3454.1183    17410.733    73.819741 
   24080    1117.0416   -9132.6058   -9007.9981    2872.3971    17410.294      73.8218 
   24090    1144.5356    -9135.105   -9007.4304     2509.347    17411.817    73.825231 
   24100    1091.2554   -9128.6217   -9006.8906    4504.0329    17415.275    73.823609 
   24110    1112.8525   -9130.4885   -9006.3481    4631.3781    17421.761    73.821822 
   24120    1140.4664   -9132.9892   -9005.7684    3551.7504    17431.487     73.83504 
   24130    1139.6174   -9132.3654   -9005.2393    3798.3181     17443.97     73.86987 
   24140    1119.6711   -9129.6751   -9004.7741    3678.2931    17459.337    73.917625 
   24150    1125.6731   -9129.9116   -9004.3411    1612.2867    17477.465    73.963524 
   24160    1126.2761   -9129.5311   -9003.8933   -1037.8771    17497.111    74.004072 
   24170    1151.4171   -9131.9058   -9003.4634   -3689.2779    17516.448    74.045312 
   24180    1103.1671   -9126.1182   -9003.0583   -3926.8798    17533.833    74.080514 
   24190    1138.6739    -9129.708   -9002.6872    -4376.907    17548.856    74.101489 
   24200    1159.5048   -9131.6834   -9002.3389   -4421.0588    17561.191    74.112376 
   24210    1145.4075   -9129.8567   -9002.0848   -4274.7743    17570.727    74.123725 
   24220    1127.8602   -9127.7033   -9001.8888   -5370.7977    17577.417    74.152591 
   24230    1123.8874   -9127.0961   -9001.7248   -5822.8547    17580.577    74.212372 
   24240    1145.5672   -9129.3747    -9001.585   -5605.6502    17579.791    74.298226 
   24250    1153.4864   -9130.1816   -9001.5084   -4152.8336    17575.139     74.39557 
   24260    1147.1403   -9129.4597   -9001.4945   -1049.8084    17567.613     74.48294 
   24270    1158.0452   -9130.7201   -9001.5384    1138.4605    17559.126    74.547493 
   24280    1142.0289   -9129.0241    -9001.629    2512.9784    17551.207    74.595244 
   24290     1115.608   -9126.1966   -9001.7488     2688.664    17544.785    74.644206 
   24300    1103.4363   -9124.9279    -9001.838    2662.9367    17540.092    74.701288 
   24310    1156.5285   -9130.9233   -9001.9108    1451.1106    17537.069    74.762962 
   24320    1178.2347   -9133.4849   -9002.0511    523.47452     17535.01    74.829091 
   24330    1139.5464   -9129.3993   -9002.2812    871.40472    17533.349    74.901484 
   24340    1132.3379   -9128.8619   -9002.5479    488.81027    17532.211    74.970462 
   24350    1151.3722   -9131.2674   -9002.8301   -975.21013    17531.321    75.027271 
   24360    1151.8511   -9131.6288    -9003.138   -1431.4323    17529.801    75.074084 
   24370    1143.3142   -9130.9891   -9003.4507   -82.853366    17527.358    75.110053 
   24380      1163.03   -9133.5096   -9003.7719     1891.821     17524.84    75.141483 
   24390    1167.7578   -9134.3854   -9004.1202    3439.3761     17523.56    75.186436 
   24400    1164.3498   -9134.3975   -9004.5126    3636.3027     17524.56    75.252235 
   24410     1152.742    -9133.509   -9004.9189    2381.5065    17528.024    75.313232 
   24420     1163.644   -9135.1452   -9005.3389    1194.4898    17533.226    75.341149 
   24430    1125.7856   -9131.3303   -9005.7472    1617.9875    17539.513    75.348587 
   24440    1091.7163   -9127.8404   -9006.0578    1238.5881    17547.035    75.350261 
   24450    1148.1083   -9134.3423   -9006.2691   -1158.4963     17555.47    75.351256 
   24460    1129.3429   -9132.3933   -9006.4134   -1672.6506     17563.44     75.35329 
   24470    1126.5343   -9132.1927   -9006.5261   -1709.5448    17570.441     75.34678 
   24480    1161.2346   -9136.1602   -9006.6228   -2770.0637     17576.34    75.329779 
   24490    1148.5236   -9134.8886   -9006.7691   -2115.1146    17580.536    75.313422 
   24500    1120.6145    -9131.975   -9006.9688   -19.206812    17583.425     75.30244 
   24510    1122.4143   -9132.3908   -9007.1838    1128.1086    17586.317    75.294547 
   24520    1130.8386   -9133.5375   -9007.3907    2231.9239    17590.082    75.278275 
   24530    1136.2747   -9134.3463   -9007.5932    2951.9375    17595.446     75.24637 
   24540     1111.163   -9131.7266   -9007.7747    2986.0239    17602.927    75.212667 
   24550    1092.9687    -9129.812   -9007.8897    2025.6444    17612.593     75.19058 
   24560    1105.8467   -9131.2844   -9007.9256    278.98831    17623.792    75.181339 
   24570    1104.1573   -9131.0515   -9007.8811   -67.551079    17635.492     75.18086 
   24580    1139.4432   -9134.9259   -9007.8193   -22.239216    17647.369    75.184194 
   24590    1140.5034   -9135.0208    -9007.796   -443.04032    17659.402    75.207463 
   24600     1116.561   -9132.3635   -9007.8094   -928.39326    17671.344     75.26422 
   24610    1158.5326   -9137.1022   -9007.8661   -1567.6902    17682.822    75.353378 
   24620    1138.2056   -9134.9441   -9007.9755   -1535.4879    17693.444    75.459687 
   24630    1100.6764   -9130.8968   -9008.1147    -1270.577     17703.19    75.574528 
   24640    1140.9673   -9135.5194   -9008.2428   -3145.1086    17712.031    75.699621 
   24650    1140.7578   -9135.6436   -9008.3903   -3524.5144    17718.895    75.833817 
   24660    1110.8409   -9132.4955   -9008.5795   -1090.4354    17723.585    75.970351 
   24670     1138.581   -9135.7955   -9008.7851    185.81108    17727.472    76.094449 
   24680    1111.1425   -9132.9384   -9008.9888    1794.6941    17731.586     76.19583 
   24690     1087.635   -9130.5107   -9009.1833    3463.1051    17737.032    76.283224 
   24700     1095.389   -9131.5178   -9009.3255    4556.4017    17744.988    76.366893 
   24710    1124.4754   -9134.8743   -9009.4374    3360.3479    17756.148    76.456735 
   24720    1146.0674   -9137.4035   -9009.5579     1391.521    17769.808    76.556195 
   24730    1117.3473   -9134.3478   -9009.7061    1896.7236    17784.838    76.663243 
   24740    1112.4856   -9133.9751   -9009.8756    2931.4439    17801.472    76.765457 
   24750    1149.2484   -9138.2716   -9010.0712    2172.7206    17820.325    76.846799 
   24760    1106.0936   -9133.6935   -9010.3071    1929.8251    17841.061    76.901708 
   24770    1087.5671   -9131.8767   -9010.5569    2339.8211    17863.526     76.93521 
   24780    1143.8459   -9138.4014   -9010.8036    1258.9993    17887.881    76.956269 
   24790    1151.8753   -9139.5771   -9011.0837    -972.9004    17913.417    76.976446 
   24800    1142.9479   -9138.9218   -9011.4243   -3823.9322    17938.546     77.00075 
   24810    1108.2981   -9135.4629   -9011.8306   -5033.1594    17961.349    77.026353 
   24820    1055.4615   -9129.9534   -9012.2151   -5818.5218    17980.797    77.042831 
   24830    1096.1679   -9134.8142    -9012.535   -8062.3253    17996.147    77.047894 
   24840    1090.5984   -9134.4697   -9012.8118   -9402.4281    18005.867    77.049137 
   24850     1062.727   -9131.6058    -9013.057   -9107.9516    18008.936    77.048243 
   24860    1106.6043   -9136.6984    -9013.255   -8217.6473    18005.424    77.038574 
   24870    1102.6598   -9136.4045   -9013.4011   -5404.9902    17996.076    77.004986 
   24880    1103.5883   -9136.6042   -9013.4972   -3726.8409    17982.673    76.942685 
   24890    1109.9188   -9137.3419   -9013.5288   -2888.2494     17966.43    76.868011 
   24900    1073.5156   -9133.2266   -9013.4743   -824.78689    17948.134     76.80842 
   24910    1085.1913   -9134.3679   -9013.3132    1574.1016    17929.218    76.764464 
   24920    1095.3555   -9135.2351   -9013.0466    4371.7446    17911.414    76.725116 
   24930    1079.7017   -9133.1145   -9012.6722    6439.6603    17896.669    76.685085 
   24940    1155.4595    -9141.127   -9012.2338    7188.9465    17886.417    76.644485 
   24950    1136.6743   -9138.5709   -9011.7732    8221.5013    17881.316    76.601534 
   24960    1096.1649   -9133.6036   -9011.3247    8101.5522    17882.015    76.555979 
   24970    1134.1565   -9137.3121   -9010.7952    7576.7124    17888.477    76.514889 
   24980    1164.2253    -9140.092   -9010.2209    8278.7396    17900.439    76.488514 
   24990    1153.5512    -9138.387   -9009.7066    7842.2858    17918.272    76.473824 
   25000    1126.9724   -9134.9615   -9009.2461    5400.5987    17941.667    76.478601 
Loop time of 14706.7 on 16 procs for 20000 steps with 864 atoms

Performance: 0.117 ns/day, 204.260 hours/ns, 1.360 timesteps/s
96.8% CPU use with 16 MPI tasks x 1 OpenMP threads

MPI task timing breakdown:
Section |  min time  |  avg time  |  max time  |%varavg| %total
---------------------------------------------------------------
Pair    | 2280.2     | 8340.8     | 14436      |4774.4 | 56.71
Bond    | 0.0018239  | 0.0039953  | 0.0060833  |   2.0 |  0.00
Neigh   | 0.10851    | 0.35376    | 0.65439    |  33.8 |  0.00
Comm    | 215.22     | 4840.4     | 10125      |4966.7 | 32.91
Output  | 4.4078     | 4.4444     | 4.713      |   3.6 |  0.03
Modify  | 32.599     | 1520.6     | 3833.5     |3445.6 | 10.34
Other   |            | 0.09603    |            |       |  0.00

Nlocal:        54.0000 ave          91 max           9 min
Histogram: 1 3 1 1 0 1 3 2 0 4
Nghost:        538.938 ave         844 max         257 min
Histogram: 2 0 3 1 2 2 4 0 0 2
Neighs:         0.00000 ave           0 max           0 min
Histogram: 16 0 0 0 0 0 0 0 0 0
FullNghs:      3093.88 ave        6279 max         280 min
Histogram: 5 1 0 0 2 2 1 1 2 2

Total # of neighbors = 49502
Ave neighs/atom = 57.293981
Ave special neighs/atom = 0.0000000
Neighbor list builds = 2000
Dangerous builds = 2000
Total wall time: 5:15:12
