LAMMPS (29 Sep 2021 - Update 3)
OMP_NUM_THREADS environment is not set. Defaulting to 1 thread. (src/comm.cpp:98)
  using 1 OpenMP thread(s) per MPI task
units	metal
atom_style	full

read_data	mixed.data
Reading data file ...
  orthogonal box = (0.0000000 0.0000000 0.0000000) to (18.492711 18.368364 83.044081)
  2 by 1 by 8 MPI processor grid
  reading atoms ...
  864 atoms
Finding 1-2 1-3 1-4 neighbors ...
  special bond factors lj:    0        0        0       
  special bond factors coul:  0        0        0       
     0 = max # of 1-2 neighbors
     0 = max # of 1-3 neighbors
     0 = max # of 1-4 neighbors
     1 = max # of special neighbors
  special bonds CPU = 0.001 seconds
  read_data CPU = 0.009 seconds

pair_style	quip
pair_coeff	* * /ocean/projects/cts180021p/wuziqi/clease/mint-PD/PhaseDiagram-Clease/Liquid/GAP_potential/gap_LiKCl.xml "Potential xml_label=GAP_2021_9_27_0_1_17_37_618" 17 19 3

neighbor	0.3 bin
neigh_modify	delay 10

timestep	0.001
compute	msd all msd
thermo_style	custom step temp pe etotal press vol c_msd[4]
thermo	10
dump	1 all custom 10 xyz-mix.dump type id x y z
dump	2 all custom 10 force-mix.dump type id fx fy fz

fix     1 all nve
run     2000
Neighbor list info ...
  update every 1 steps, delay 10 steps, check yes
  max neighbors/atom: 2000, page size: 100000
  master list distance cutoff = 6.22
  ghost atom cutoff = 6.22
  binsize = 3.11, bins = 6 6 27
  1 neighbor lists, perpetual/occasional/extra = 1 0 0
  (1) pair quip, perpetual
      attributes: full, newton on
      pair build: full/bin
      stencil: full/bin/3d
      bin: standard
Per MPI rank memory allocation (min/avg/max) = 8.888 | 8.895 | 8.900 Mbytes
Step Temp PotEng TotEng Press Volume c_msd[4] 
       0            0   -7973.6696   -7973.6696   -2874.2394    28208.484            0 
      10    41.278351   -7978.2784   -7973.6737   -2959.4518    28208.484 0.00023887099 
      20    117.01377   -7986.7312   -7973.6782   -2971.9336    28208.484 0.0029537371 
      30    174.81925   -7993.1785   -7973.6771   -2824.2466    28208.484  0.010160551 
      40    218.44962    -7998.045   -7973.6766   -2720.6333    28208.484  0.020641735 
      50    256.00476   -8002.2349   -7973.6771   -2700.3711    28208.484  0.032489043 
      60    281.23595   -8005.0509   -7973.6786   -2720.3164    28208.484  0.045481137 
      70    279.84796   -8004.8936   -7973.6762   -2497.2427    28208.484  0.060875411 
      80    275.57271   -8004.4166   -7973.6761   -2346.6282    28208.484  0.078472831 
      90    275.14134   -8004.3684    -7973.676   -2375.5075    28208.484  0.097756432 
     100    277.97329   -8004.6843   -7973.6759   -2450.2098    28208.484   0.11838341 
     110    284.32121   -8005.3929   -7973.6764   -2585.3887    28208.484    0.1397563 
     120    288.42818   -8005.8514   -7973.6768   -2555.7238    28208.484   0.16133553 
     130    287.27066   -8005.7216   -7973.6761   -2379.8786    28208.484   0.18293983 
     140    286.58177   -8005.6454   -7973.6767   -2199.4073    28208.484   0.20440576 
     150    283.09159    -8005.256   -7973.6767   -2058.8623    28208.484   0.22545748 
     160    281.87093     -8005.12   -7973.6769   -2002.9487    28208.484   0.24504756 
     170    281.00839    -8005.024   -7973.6771   -2057.3307    28208.484   0.26222423 
     180    282.68046     -8005.21   -7973.6765   -2118.7926    28208.484   0.27648184 
     190    291.53832   -8006.1995   -7973.6779   -2237.0667    28208.484   0.28923786 
     200    293.64302   -8006.4325   -7973.6762   -2373.3356    28208.484   0.30372277 
     210    298.64228   -8006.9936   -7973.6796   -2435.1957    28208.484   0.32052492 
     220    292.65421   -8006.3221   -7973.6761   -2273.8456    28208.484   0.33666335 
     230    296.18967   -8006.7198   -7973.6794   -2277.4624    28208.484   0.34931106 
     240    282.07352   -8005.1401   -7973.6743   -2198.7147    28208.484   0.36070053 
     250    293.47873    -8006.417    -7973.679   -2346.9356    28208.484   0.37209929 
     260    294.86866   -8006.5718   -7973.6788   -2406.0825    28208.484   0.38456478 
     270    292.66954   -8006.3399   -7973.6921   -2371.6679    28208.484   0.39632792 
     280    288.22645   -8005.8424   -7973.6903   -2343.9303    28208.484   0.40740341 
     290    280.03766   -8004.9272   -7973.6886   -2399.6918    28208.484   0.41930862 
     300    280.42672   -8004.9707   -7973.6886   -2493.7264    28208.484   0.43203295 
     310    287.66524   -8005.7795     -7973.69   -2540.7382    28208.484   0.44617059 
     320    287.59248   -8005.7709   -7973.6895   -2479.6365    28208.484   0.46153129 
     330    287.30367   -8005.7384   -7973.6892   -2430.7941    28208.484   0.47558463 
     340      291.107   -8006.1632   -7973.6897   -2433.3574    28208.484   0.48761679 
     350    290.07985   -8006.0486   -7973.6898   -2407.8749    28208.484   0.49931209 
     360    283.46216   -8005.3096    -7973.689    -2324.857    28208.484   0.51138392 
     370    283.31611   -8005.2933    -7973.689   -2223.9029    28208.484   0.52363749 
     380    293.81781   -8006.4657   -7973.6899   -2201.7975    28208.484   0.53571675 
     390    300.79692   -8007.2454   -7973.6911   -2203.1603    28208.484   0.54763687 
     400    296.63974     -8006.78   -7973.6894   -2207.2978    28208.484   0.55946952 
     410     295.9675   -8006.7055   -7973.6899    -2389.454    28208.484   0.57119336 
     420    296.34311   -8006.7466   -7973.6891   -2528.2941    28208.484   0.58115249 
     430    302.08464   -8007.3879   -7973.6899   -2546.6384    28208.484   0.58802692 
     440    300.89773   -8007.2566    -7973.691   -2408.1467    28208.484   0.59313659 
     450    295.75798   -8006.6815   -7973.6893   -2201.4544    28208.484   0.59704421 
     460    298.71554   -8007.0127   -7973.6905   -2097.6901    28208.484   0.60034051 
     470    293.57038   -8006.4367   -7973.6885   -1853.8963    28208.484   0.60455383 
     480    299.68957   -8007.1205   -7973.6897   -1687.1392    28208.484   0.60898733 
     490    304.28303    -8007.634   -7973.6908   -1569.5251    28208.484   0.61372446 
     500    297.76534   -8006.9049   -7973.6887   -1520.9163    28208.484   0.61909997 
     510     298.0343    -8006.936   -7973.6898   -1578.3555    28208.484     0.624484 
     520    298.51386   -8006.9892   -7973.6895   -1617.2528    28208.484   0.63055005 
     530    299.67651    -8007.119   -7973.6896   -1583.6011    28208.484   0.63765456 
     540    301.93935   -8007.3714   -7973.6896    -1486.536    28208.484   0.64551302 
     550    304.04909   -8007.6074   -7973.6903   -1392.2763    28208.484    0.6536082 
     560    304.32541   -8007.6381   -7973.6901   -1287.1967    28208.484   0.66116979 
     570    303.65289   -8007.5627   -7973.6898   -1155.3607    28208.484   0.66831766 
     580    306.61685   -8007.8931   -7973.6895   -1197.3354    28208.484   0.67540713 
     590    314.13334   -8008.7329   -7973.6909   -1349.2051    28208.484   0.68183493 
     600    314.58012   -8008.7816   -7973.6897   -1383.1623    28208.484   0.68848067 
     610    313.36382   -8008.6461   -7973.6899   -1339.6031    28208.484   0.69624527 
     620     312.9428   -8008.5985   -7973.6893   -1300.0364    28208.484   0.70606469 
     630    317.72028    -8009.132   -7973.6899   -1341.7477    28208.484   0.71807814 
     640    322.57063   -8009.6733   -7973.6901   -1410.5145    28208.484   0.73069429 
     650    323.60168   -8009.7886   -7973.6903   -1540.2113    28208.484   0.74223138 
     660    318.39172   -8009.2068   -7973.6897   -1568.6259    28208.484   0.75263353 
     670    316.27474   -8008.9702   -7973.6892   -1586.0839    28208.484    0.7619451 
     680    320.95534   -8009.4935   -7973.6904   -1558.4885    28208.484   0.77150239 
     690    319.85933   -8009.3708     -7973.69    -1459.468    28208.484   0.78296875 
     700    315.81982   -8008.9199   -7973.6897   -1330.2989    28208.484   0.79605918 
     710    316.18394   -8008.9601   -7973.6893   -1285.6029    28208.484   0.80930055 
     720    321.99795   -8009.6098   -7973.6904   -1374.2337    28208.484   0.82124899 
     730    320.60154   -8009.4538   -7973.6902   -1440.5044    28208.484   0.83277534 
     740    316.58517   -8009.0043   -7973.6888   -1452.0725    28208.484    0.8439361 
     750    321.27163   -8009.5293    -7973.691   -1655.1798    28208.484     0.854338 
     760    314.38368   -8008.7598   -7973.6899   -1838.5562    28208.484   0.86584884 
     770     305.9368   -8007.8166   -7973.6889   -1999.9526    28208.484   0.87941766 
     780    305.71483   -8007.7927   -7973.6897   -2140.7584    28208.484   0.89394007 
     790    305.84031   -8007.8065   -7973.6896   -2209.2571    28208.484   0.90782838 
     800    306.48205   -8007.8784   -7973.6899   -2275.1918    28208.484   0.92026204 
     810    304.33355   -8007.6388   -7973.6899   -2343.4421    28208.484   0.93178116 
     820    297.82924   -8006.9125   -7973.6892   -2314.2529    28208.484    0.9431626 
     830    296.11711   -8006.7216   -7973.6893   -2340.1192    28208.484   0.95457823 
     840    299.50491   -8007.0998   -7973.6896   -2406.4366    28208.484   0.96506277 
     850    304.52466   -8007.6597   -7973.6895   -2460.7845    28208.484   0.97329313 
     860     310.8399   -8008.3649   -7973.6902   -2449.0401    28208.484   0.97916609 
     870    310.67413   -8008.3459   -7973.6897   -2327.6881    28208.484   0.98350092 
     880    309.42712   -8008.2065   -7973.6894   -2225.4629    28208.484   0.98651824 
     890    311.26126   -8008.4116   -7973.6899    -2248.854    28208.484   0.98981853 
     900    313.26109   -8008.6341   -7973.6893   -2271.1415    28208.484     0.995508 
     910    320.18937   -8009.4082   -7973.6906   -2399.0494    28208.484    1.0049166 
     920    319.06768   -8009.2826   -7973.6901    -2517.896    28208.484    1.0179539 
     930    311.48412   -8008.4358   -7973.6893   -2630.8665    28208.484    1.0322955 
     940    307.33364   -8007.9728   -7973.6893   -2692.4224    28208.484    1.0452919 
     950    306.79072   -8007.9125   -7973.6895   -2690.0291    28208.484    1.0559933 
     960    307.40028   -8007.9805   -7973.6895    -2685.778    28208.484    1.0648912 
     970    308.12458   -8008.0613   -7973.6895   -2650.3957    28208.484    1.0729687 
     980    308.40186   -8008.0924   -7973.6897   -2580.8757    28208.484    1.0808973 
     990    307.35297   -8007.9752   -7973.6895    -2481.356    28208.484    1.0887898 
    1000    307.21435     -8007.96   -7973.6898   -2353.6684    28208.484    1.0961224 
    1010    306.76152   -8007.9091   -7973.6894   -2248.7956    28208.484    1.1027335 
    1020    309.26646    -8008.189   -7973.6898   -2286.0041    28208.484    1.1099454 
    1030    310.25342   -8008.2989   -7973.6897   -2305.1256    28208.484    1.1183111 
    1040    307.62812   -8008.0062   -7973.6898    -2294.831    28208.484    1.1271276 
    1050    300.85261   -8007.2498   -7973.6892   -2274.7356    28208.484    1.1353455 
    1060    298.03491   -8006.9356   -7973.6894   -2274.0022    28208.484    1.1412949 
    1070     298.1827   -8006.9525   -7973.6898   -2240.2755    28208.484    1.1449307 
    1080    298.32389   -8006.9674   -7973.6889   -2186.0158    28208.484    1.1478628 
    1090    304.12167   -8007.6156   -7973.6903   -2224.5843    28208.484    1.1507358 
    1100    303.21342   -8007.5135   -7973.6896   -2273.1413    28208.484    1.1542182 
    1110    302.55349   -8007.4391   -7973.6888   -2350.8777    28208.484    1.1583885 
    1120    311.89752   -8008.4827   -7973.6901   -2437.4889    28208.484     1.162828 
    1130    317.78566     -8009.14   -7973.6905   -2446.8483    28208.484     1.167408 
    1140    311.56568   -8008.4454   -7973.6898   -2410.0182    28208.484    1.1717043 
    1150    303.07264   -8007.4971   -7973.6889   -2380.3816    28208.484    1.1751291 
    1160    303.70308   -8007.5677   -7973.6892    -2470.872    28208.484    1.1775178 
    1170    310.51899   -8008.3284   -7973.6895   -2617.7569    28208.484    1.1788381 
    1180    316.91994   -8009.0426   -7973.6898   -2682.3818    28208.484    1.1790698 
    1190    320.34041   -8009.4241   -7973.6896   -2666.8258    28208.484    1.1789053 
    1200    321.06279   -8009.5055   -7973.6905   -2603.0061    28208.484    1.1796194 
    1210    314.26027   -8008.7456   -7973.6894   -2485.4053    28208.484    1.1821764 
    1220    309.32884    -8008.196   -7973.6899    -2464.998    28208.484    1.1865082 
    1230    306.19371   -8007.8458   -7973.6895   -2530.8384    28208.484    1.1911967 
    1240    306.63151   -8007.8948   -7973.6896   -2616.4378    28208.484    1.1944331 
    1250    309.06475   -8008.1663   -7973.6897   -2607.8093    28208.484    1.1957913 
    1260    312.48643   -8008.5482   -7973.6898    -2462.899    28208.484    1.1957707 
    1270    312.94072   -8008.5995   -7973.6905   -2234.5909    28208.484    1.1949586 
    1280    309.44145   -8008.2076   -7973.6889   -2027.1289    28208.484    1.1941489 
    1290    314.87458   -8008.8149   -7973.6902   -1974.2087    28208.484    1.1943163 
    1300    319.36818   -8009.3159   -7973.6899   -1982.4404    28208.484     1.195877 
    1310    321.84143   -8009.5922   -7973.6903   -1943.5386    28208.484    1.1987306 
    1320    321.73486     -8009.58     -7973.69    -1845.706    28208.484    1.2036004 
    1330    320.53672   -8009.4466   -7973.6902   -1700.8294    28208.484    1.2106875 
    1340    314.45984   -8008.7682   -7973.6898   -1509.1942    28208.484    1.2186301 
    1350    308.88407   -8008.1459   -7973.6894   -1443.5528    28208.484    1.2257175 
    1360    308.85021   -8008.1421   -7973.6894   -1546.3935    28208.484    1.2310073 
    1370    314.64585   -8008.7893   -7973.6901   -1721.3694    28208.484     1.234708 
    1380    316.29012   -8008.9734   -7973.6908   -1817.9195    28208.484    1.2377498 
    1390    307.32275   -8007.9718   -7973.6895   -1803.5548    28208.484    1.2409119 
    1400    301.76471   -8007.3515   -7973.6892   -1859.1426    28208.484    1.2443267 
    1410    303.86241   -8007.5861   -7973.6897   -1936.9087    28208.484    1.2481193 
    1420    306.88628   -8007.9231   -7973.6894   -1917.1497    28208.484    1.2526965 
    1430    311.21927   -8008.4068   -7973.6898   -1887.7633    28208.484    1.2583105 
    1440    313.42496   -8008.6528   -7973.6898   -1851.4527    28208.484    1.2642026 
    1450     313.3569   -8008.6451   -7973.6897   -1798.7574    28208.484     1.269636 
    1460    313.21275   -8008.6295   -7973.6901   -1825.1156    28208.484    1.2754342 
    1470    309.64761   -8008.2313   -7973.6896   -1804.0626    28208.484    1.2823313 
    1480    309.40126   -8008.2029   -7973.6887   -1783.0935    28208.484    1.2890305 
    1490    320.42565   -8009.4341   -7973.6901   -1893.3186    28208.484    1.2938055 
    1500    328.10175   -8010.2905   -7973.6903   -1974.4184    28208.484    1.2976917 
    1510    327.81197   -8010.2577   -7973.6898    -1937.058    28208.484    1.3022885 
    1520     324.2243   -8009.8576   -7973.6899   -1828.5619    28208.484    1.3070588 
    1530    318.99753   -8009.2739   -7973.6893   -1744.3097    28208.484    1.3111416 
    1540    315.99968   -8008.9401   -7973.6899   -1679.5222    28208.484    1.3147163 
    1550    311.82694   -8008.4737   -7973.6889   -1676.3191    28208.484     1.318865 
    1560    315.99733   -8008.9396   -7973.6896   -1782.1266    28208.484    1.3245612 
    1570    321.70035   -8009.5765   -7973.6904   -1943.6277    28208.484    1.3315419 
    1580    318.91113   -8009.2648   -7973.6898   -1980.5418    28208.484     1.338424 
    1590    316.40503   -8008.9842   -7973.6888   -1871.1257    28208.484    1.3448929 
    1600    323.69059   -8009.7984   -7973.6903   -1863.2593    28208.484    1.3517889 
    1610    324.55521    -8009.895   -7973.6903   -1926.3043    28208.484    1.3589892 
    1620    317.22283   -8009.0757    -7973.689    -2033.451    28208.484    1.3640281 
    1630    315.56944   -8008.8917   -7973.6895   -2189.5743    28208.484    1.3650114 
    1640          316   -8008.9396   -7973.6894   -2246.5115    28208.484     1.363698 
    1650     317.3618   -8009.0917   -7973.6895   -2167.3771    28208.484    1.3628757 
    1660    317.92845   -8009.1553   -7973.6899   -2101.0814    28208.484    1.3639966 
    1670    314.61233   -8008.7852   -7973.6897   -2010.9785    28208.484    1.3669961 
    1680    312.18324   -8008.5133   -7973.6888   -2055.2147    28208.484     1.371293 
    1690    317.45918   -8009.1028   -7973.6897    -2191.224    28208.484    1.3761955 
    1700    321.08797   -8009.5076   -7973.6898   -2266.1824    28208.484    1.3813209 
    1710    322.36089   -8009.6492   -7973.6893   -2262.0514    28208.484    1.3861808 
    1720    325.18317   -8009.9643   -7973.6896   -2258.3202    28208.484    1.3904451 
    1730    326.15411   -8010.0728   -7973.6898    -2317.316    28208.484     1.394947 
    1740     323.8725   -8009.8181   -7973.6896   -2287.8062    28208.484    1.4007384 
    1750    320.41839   -8009.4325   -7973.6894   -2200.4994    28208.484    1.4075406 
    1760     319.2517   -8009.3028   -7973.6898   -2148.7833    28208.484     1.414045 
    1770    317.70647   -8009.1306     -7973.69    -2060.265    28208.484    1.4199919 
    1780    313.91842   -8008.7076   -7973.6895   -1900.1987    28208.484    1.4259827 
    1790    313.00692   -8008.6058   -7973.6894   -1752.6987    28208.484    1.4322179 
    1800     316.3606   -8008.9805     -7973.69   -1656.4741    28208.484    1.4376798 
    1810    317.06323    -8009.059   -7973.6901   -1611.9912    28208.484    1.4414287 
    1820    314.75826    -8008.801   -7973.6892    -1594.078    28208.484    1.4434919 
    1830    319.39788   -8009.3191   -7973.6898   -1580.2478    28208.484    1.4448335 
    1840    326.94741   -8010.1618   -7973.6903   -1586.0007    28208.484    1.4478206 
    1850     328.2751   -8010.3099   -7973.6903   -1510.9657    28208.484    1.4534245 
    1860    325.54844   -8010.0044    -7973.689   -1434.8489    28208.484    1.4597334 
    1870    330.22766   -8010.5276   -7973.6902   -1485.8246    28208.484    1.4649668 
    1880    331.47708   -8010.6665   -7973.6897   -1548.2944    28208.484    1.4702024 
    1890    330.21474   -8010.5256   -7973.6896   -1516.0861    28208.484    1.4764703 
    1900    331.58833   -8010.6782    -7973.689   -1442.8287    28208.484    1.4834549 
    1910    337.92691   -8011.3872    -7973.691   -1475.0881    28208.484    1.4904186 
    1920     332.3277   -8010.7614   -7973.6897   -1417.3686    28208.484    1.4973123 
    1930    326.40875   -8010.1005   -7973.6891    -1294.946    28208.484    1.5028962 
    1940    327.61985   -8010.2367   -7973.6902   -1344.4187    28208.484    1.5071937 
    1950    326.33555   -8010.0933   -7973.6901   -1454.2005    28208.484    1.5117741 
    1960    320.98412   -8009.4961   -7973.6898    -1539.947    28208.484    1.5179832 
    1970    316.38994    -8008.983   -7973.6892   -1494.5471    28208.484    1.5266599 
    1980    318.66568   -8009.2379   -7973.6903    -1430.619    28208.484     1.537506 
    1990    319.09324   -8009.2848   -7973.6895   -1383.3475    28208.484     1.548395 
    2000    324.20331   -8009.8559   -7973.6905   -1553.3118    28208.484     1.556546 
Loop time of 1549.83 on 16 procs for 2000 steps with 864 atoms

Performance: 0.111 ns/day, 215.255 hours/ns, 1.290 timesteps/s
97.9% CPU use with 16 MPI tasks x 1 OpenMP threads

MPI task timing breakdown:
Section |  min time  |  avg time  |  max time  |%varavg| %total
---------------------------------------------------------------
Pair    | 1158.6     | 1387.3     | 1527.3     | 294.9 | 89.51
Bond    | 0.00024986 | 0.00078818 | 0.0017288  |   0.0 |  0.00
Neigh   | 0.020338   | 0.024302   | 0.028279   |   1.7 |  0.00
Comm    | 22.161     | 157.93     | 390.08     | 861.8 | 10.19
Output  | 0.20498    | 4.5114     | 13.322     | 203.6 |  0.29
Modify  | 0.009712   | 0.011514   | 0.017523   |   1.7 |  0.00
Other   |            | 0.07772    |            |       |  0.01

Nlocal:        54.0000 ave          63 max          48 min
Histogram: 5 0 1 2 2 1 1 2 0 2
Nghost:        409.688 ave         449 max         386 min
Histogram: 3 3 1 3 2 1 1 0 0 2
Neighs:         0.00000 ave           0 max           0 min
Histogram: 16 0 0 0 0 0 0 0 0 0
FullNghs:      1604.62 ave        2106 max        1301 min
Histogram: 5 0 2 2 2 0 2 1 1 1

Total # of neighbors = 25674
Ave neighs/atom = 29.715278
Ave special neighs/atom = 0.0000000
Neighbor list builds = 199
Dangerous builds = 198
unfix   1

velocity    all create 562.5 1312343 dist gaussian
fix     2 all npt temp 562.5 562.5 $(100.0*dt) aniso 0.0 1.01325 $(1000.0*dt)
fix     2 all npt temp 562.5 562.5 0.10000000000000000555 aniso 0.0 1.01325 $(1000.0*dt)
fix     2 all npt temp 562.5 562.5 0.10000000000000000555 aniso 0.0 1.01325 1
run     3000
Per MPI rank memory allocation (min/avg/max) = 8.893 | 8.897 | 8.900 Mbytes
Step Temp PotEng TotEng Press Volume c_msd[4] 
    2000        562.5   -8009.8559   -7947.1082    -546.7678    28208.484     1.556546 
    2010    536.83344   -8006.9849   -7947.1003   -442.25436    28207.562    1.5571503 
    2020     497.6175   -8002.5504   -7947.0404   -278.89792    28205.094    1.5582892 
    2030     472.5111   -7999.5719   -7946.8626   -15.220608    28201.687    1.5593083 
    2040    458.28016   -7997.6448    -7946.523    299.14562    28198.257    1.5618745 
    2050    450.95308   -7996.3103   -7946.0058    468.12164    28195.843    1.5681336 
    2060    450.51045     -7995.59   -7945.3349    530.23262     28195.07    1.5785699 
    2070    449.08161   -7994.6851   -7944.5893    432.07033    28196.142    1.5914871 
    2080    454.72441    -7994.594   -7943.8688    96.644865    28198.692    1.6042333 
    2090    455.10291   -7993.9883   -7943.2209   -242.28159    28201.607    1.6163056 
    2100     445.6306   -7992.3463   -7942.6356   -399.06819    28203.728     1.628686 
    2110    440.70973   -7991.2206   -7942.0588   -333.90551    28204.511    1.6408008 
    2120    440.78295   -7990.6108   -7941.4408   -168.84817    28204.151    1.6517558 
    2130    444.67459   -7990.3674   -7940.7632   -120.60441    28203.167    1.6614591 
    2140    450.76818   -7990.3086   -7940.0248   -226.80164    28201.715    1.6696074 
    2150    463.31818    -7990.921   -7939.2372   -346.20304    28199.455    1.6754807 
    2160    477.17947   -7991.6466   -7938.4165   -403.76319     28195.97     1.679412 
    2170    488.49115   -7992.0832   -7937.5913   -463.33824     28191.03    1.6827808 
    2180     497.6993   -7992.2932   -7936.7741   -546.38704    28184.404    1.6873756 
    2190    497.24764   -7991.4395   -7935.9708   -467.84693    28175.878    1.6949006 
    2200    491.32134   -7989.9843   -7935.1767   -388.18175    28165.669    1.7051224 
    2210     487.4689   -7988.7542   -7934.3764   -342.96779    28154.056    1.7153685 
    2220    488.78901   -7988.0822   -7933.5571   -337.42074    28141.184    1.7225954 
    2230    494.57952   -7987.8892   -7932.7181   -299.98912    28127.101    1.7257257 
    2240    502.06464   -7987.8738   -7931.8678   -109.16184    28111.976    1.7272017 
    2250    504.45407   -7987.2915   -7931.0189    194.38177    28096.457    1.7311116 
    2260    509.57967   -7987.0222   -7930.1779    488.05343    28081.587    1.7391985 
    2270    508.04201    -7986.018   -7929.3451    681.34437    28068.377    1.7514666 
    2280    504.65409   -7984.8176   -7928.5227    752.48749    28057.509    1.7674808 
    2290    509.43722   -7984.5283   -7927.6998    844.76594    28049.277    1.7858994 
    2300    519.83486    -7984.859   -7926.8707     970.4457    28044.014     1.803273 
    2310    530.86966   -7985.2658   -7926.0465    1029.1113    28042.149    1.8162594 
    2320     531.1463   -7984.4944   -7925.2443    1039.3787    28043.904    1.8241053 
    2330    538.03515   -7984.4879   -7924.4692    863.18774    28049.269     1.827375 
    2340    545.38009   -7984.5505   -7923.7125    590.59705    28057.694    1.8281635 
    2350    544.92059   -7983.7713   -7922.9846    282.29081    28068.243    1.8285922 
    2360    547.95265   -7983.4083   -7922.2834    112.24355    28079.893     1.830281 
    2370    550.91372   -7983.0581   -7921.6029    107.32982    28092.052    1.8350545 
    2380    548.27447   -7982.1088    -7920.948     212.1456    28104.704    1.8433831 
    2390    536.05973   -7980.1115   -7920.3132    283.79453    28118.182    1.8537902 
    2400    533.68961   -7979.2141   -7919.6802    247.48653    28132.709    1.8627874 
    2410    543.57428    -7979.664   -7919.0275    325.78347    28148.279    1.8680232 
    2420    560.31013   -7980.8708   -7918.3673    367.63057    28165.098     1.870588 
    2430    561.31231   -7980.3453   -7917.7301    486.46056    28183.385    1.8738577 
    2440    558.51615   -7979.4383    -7917.135    525.02179     28203.52    1.8795859 
    2450    558.83536    -7978.906   -7916.5671    417.33103    28225.635    1.8876489 
    2460    562.71418   -7978.7911   -7916.0195    250.10266    28249.405     1.897482 
    2470    566.51487   -7978.6878   -7915.4922    2.7898876    28274.228    1.9089474 
    2480    572.20593   -7978.8225   -7914.9921   -109.77737    28299.322     1.921115 
    2490    576.13447   -7978.7943   -7914.5256   -114.42515     28324.28    1.9319607 
    2500     582.4323   -7979.0702    -7914.099   -249.07488    28348.977    1.9411885 
    2510    583.14471   -7978.7699   -7913.7192   -277.25936    28373.029    1.9515868 
    2520    579.87099   -7978.0792   -7913.3938   -103.80893    28396.358    1.9657255 
    2530    581.14678   -7977.9438    -7913.116   -45.316611    28419.471    1.9840017 
    2540    587.69372   -7978.4401    -7912.882   -206.35443    28442.544    2.0053249 
    2550    583.07366   -7977.7413   -7912.6986   -467.04597    28465.027    2.0270904 
    2560    574.75038   -7976.6752   -7912.5609   -685.06396    28486.022    2.0448021 
    2570    576.52423   -7976.7677   -7912.4555   -850.58041    28504.717    2.0559067 
    2580    578.44345   -7976.9093    -7912.383   -845.41331    28520.513    2.0624942 
    2590    572.67384   -7976.2319   -7912.3492   -594.86539    28533.462    2.0683072 
    2600    568.74776   -7975.7939   -7912.3492   -483.57052    28544.321    2.0756352 
    2610    560.70996   -7974.9133   -7912.3653    -486.1323    28553.497    2.0847468 
    2620    560.59949   -7974.9217    -7912.386   -631.35056    28560.935    2.0942616 
    2630    560.49104   -7974.9274   -7912.4038   -874.68511    28566.105    2.1034706 
    2640    562.60392   -7975.1827   -7912.4234   -1091.6155    28568.128    2.1119315 
    2650    557.10879   -7974.5858   -7912.4394   -1126.0101    28566.253    2.1188514 
    2660     554.3728   -7974.2842    -7912.443   -1138.7797    28560.255    2.1224835 
    2670    555.02787   -7974.3348   -7912.4206   -1275.4285     28550.01    2.1221684 
    2680    561.89245   -7975.0625   -7912.3825   -1550.9514    28534.983     2.121068 
    2690    560.42032   -7974.8574   -7912.3416    -1559.023    28514.303     2.123018 
    2700     554.7692   -7974.1802   -7912.2949   -1346.9179    28487.898      2.12811 
    2710    560.17748   -7974.7207   -7912.2321   -1009.9265    28456.496    2.1338724 
    2720    558.33214   -7974.4328     -7912.15   -479.78813    28421.355    2.1394719 
    2730    549.35574   -7973.3209   -7912.0394    56.549061     28384.36    2.1444943 
    2740    562.48177   -7974.6464   -7911.9007     131.6073    28347.288    2.1492804 
    2750     576.9918   -7976.1206   -7911.7562    30.898641    28310.563    2.1567935 
    2760    587.46187   -7977.1755   -7911.6432    128.21363    28273.967    2.1676015 
    2770    595.43833   -7978.0034   -7911.5814    248.41547    28237.789    2.1792748 
    2780    601.55352   -7978.6998   -7911.5956    390.37363    28202.475    2.1892575 
    2790    593.60382   -7977.9153   -7911.6979     643.0451    28168.561    2.1971332 
    2800    575.70297   -7976.0867   -7911.8662    971.97581    28136.962    2.2032804 
    2810    568.24544   -7975.4521   -7912.0635     1111.786    28108.759    2.2073752 
    2820    575.28546   -7976.4594   -7912.2854    995.80117    28084.416     2.210212 
    2830    577.70346   -7976.9848   -7912.5411    785.83371    28063.553    2.2130871 
    2840    581.44137      -7977.7   -7912.8394    566.01192    28045.459    2.2171742 
    2850    582.49208   -7978.1613   -7913.1835    446.03028    28029.395    2.2233652 
    2860     584.6507    -7978.793   -7913.5743    385.88883    28014.925    2.2308766 
    2870    582.40685   -7978.9795   -7914.0112    382.14708    28001.815    2.2382583 
    2880      570.468   -7978.1096   -7914.4731    578.82139    27990.095    2.2444924 
    2890    555.32505   -7976.8719   -7914.9245    788.59295    27980.389    2.2497862 
    2900    548.48647   -7976.5229   -7915.3384       781.03    27973.358    2.2543665 
    2910    547.89459   -7976.8258   -7915.7073    674.85303    27969.024    2.2581449 
    2920    546.39231   -7976.9827   -7916.0318    552.08705    27967.033    2.2615412 
    2930    545.17498   -7977.1278   -7916.3127      454.383    27966.974     2.264601 
    2940    547.61871   -7977.6408   -7916.5531    444.35939     27968.54    2.2670799 
    2950     550.1654    -7978.132   -7916.7603    519.77421    27971.698    2.2693493 
    2960    551.17772   -7978.4243   -7916.9396     659.4937    27976.719    2.2709079 
    2970    557.39564    -7979.275   -7917.0966    704.10045    27984.049    2.2708781 
    2980    570.81057   -7980.9259   -7917.2511    590.42045    27993.842    2.2700507 
    2990    574.30276   -7981.4904    -7917.426    467.79448    28005.784    2.2708413 
    3000    567.59402   -7980.9411   -7917.6251    263.64821    28019.434    2.2742582 
    3010    567.23522   -7981.1158   -7917.8399   -43.940218    28034.072    2.2794448 
    3020    563.43458   -7980.9162   -7918.0642   -207.10584    28048.702    2.2864026 
    3030    552.96341   -7979.9714   -7918.2875   -179.89892    28062.769    2.2955788 
    3040    542.13486   -7978.9659     -7918.49    -46.84027    28076.325    2.3057758 
    3050    530.78156   -7977.8558   -7918.6463    217.06743    28089.864    2.3139965 
    3060    528.70386    -7977.719   -7918.7413    314.49208    28104.216    2.3188486 
    3070    536.09947   -7978.5719   -7918.7692    222.86598    28119.734    2.3222916 
    3080    548.16638   -7979.8896   -7918.7408    15.408791    28136.116    2.3262291 
    3090    552.22096   -7980.2716   -7918.6706   -112.25782    28152.698    2.3321099 
    3100    552.85442   -7980.2433   -7918.5715   -158.02842     28169.03    2.3409023 
    3110    555.88486   -7980.4545   -7918.4448   -191.93856    28184.926    2.3517574 
    3120    569.03302   -7981.7754   -7918.2989   -342.20394    28200.197    2.3630274 
    3130    570.47366   -7981.7894   -7918.1522   -358.73534    28214.385    2.3742746 
    3140    558.12641   -7980.2733   -7918.0135   -104.03311    28227.462    2.3836283 
    3150    550.86934   -7979.3159   -7917.8656    160.22533    28240.233    2.3882425 
    3160    550.79101   -7979.1341   -7917.6926     285.2305     28253.61    2.3879243 
    3170    549.76717     -7978.82   -7917.4926    216.11804     28268.02    2.3842375 
    3180    545.88033   -7978.1557   -7917.2619    48.901391    28283.253    2.3789672 
    3190    547.59967   -7978.0798   -7916.9942    -98.50551    28298.743    2.3741167 
    3200    551.29724   -7978.1887   -7916.6907   -51.752764    28314.043     2.371424 
    3210    556.66488   -7978.4584   -7916.3616    2.6101348    28329.251    2.3708826 
    3220    559.88492    -7978.472    -7916.016   -47.288586    28344.533    2.3706618 
    3230    568.47815   -7979.0837   -7915.6691   -125.50932    28359.733    2.3693859 
    3240    574.53677   -7979.4255   -7915.3351   -72.044932    28374.643    2.3678857 
    3250    576.52201   -7979.3437   -7915.0318   -182.77425    28389.319    2.3670432 
    3260    578.10353   -7979.2503    -7914.762   -278.47477    28403.431    2.3670626 
    3270    586.46841   -7979.9535   -7914.5321   -210.67769    28416.686    2.3685442 
    3280    581.07398   -7979.1727    -7914.353    5.0808215    28429.319    2.3729905 
    3290    565.84137   -7977.3393   -7914.2189     233.7685    28442.067    2.3797772 
    3300    562.46744   -7976.8436   -7914.0995    255.61662    28455.698    2.3863777 
    3310    577.01973   -7978.3551   -7913.9877    79.536023    28470.302     2.391774 
    3320    579.43386   -7978.5369   -7913.9002   -120.99957    28485.302    2.3982893 
    3330    569.00729   -7977.3206    -7913.847    -130.7816    28500.043    2.4081346 
    3340    563.58617   -7976.6807   -7913.8119     -34.4602    28514.463    2.4220822 
    3350    562.69443     -7976.55   -7913.7806   -22.783195    28528.847    2.4401606 
    3360    561.97167    -7976.437   -7913.7482   -164.83032    28543.225    2.4611505 
    3370    563.50584   -7976.5728   -7913.7128   -413.94751    28557.098    2.4831436 
    3380    561.66097   -7976.3292    -7913.675   -585.93038     28569.62    2.5040078 
    3390     560.4954    -7976.157   -7913.6329   -769.15203    28580.127    2.5216282 
    3400    565.66133   -7976.6869   -7913.5865   -1068.3066     28587.87    2.5358287 
    3410    563.86383   -7976.4403   -7913.5404   -1152.1212    28591.853    2.5485803 
    3420    557.41134   -7975.6744   -7913.4943   -1010.7338    28591.728    2.5611649 
    3430     553.0753   -7975.1339   -7913.4375   -841.95557    28587.899    2.5736075 
    3440    545.98793    -7974.258   -7913.3522   -747.10056    28580.926    2.5849762 
    3450    551.60104   -7974.7572   -7913.2253   -830.09152    28571.088    2.5938526 
    3460    561.60283   -7975.7023   -7913.0547   -863.40074    28558.128    2.5997476 
    3470    571.90481   -7976.6533   -7912.8565   -868.30758    28541.855    2.6026024 
    3480    586.07169   -7978.0307   -7912.6535   -731.13167    28522.257     2.603188 
    3490     595.6504   -7978.9194   -7912.4737   -348.41869    28499.843    2.6032835 
    3500     600.6345   -7979.3502   -7912.3485   -114.76059    28475.825    2.6044578 
    3510    594.55863   -7978.6248   -7912.3009   -82.287651     28451.03    2.6082741 
    3520    580.65502   -7977.0998   -7912.3269   -79.599015    28425.628    2.6146892 
    3530     576.4868   -7976.7135   -7912.4055   -91.475122    28399.607    2.6222352 
    3540    578.48825   -7977.0568   -7912.5256    18.790817    28372.962    2.6302246 
    3550    581.48574   -7977.5581   -7912.6925    178.09997    28346.055    2.6383531 
    3560    588.02118   -7978.5171   -7912.9224    312.46695    28319.435    2.6453473 
    3570    596.24106    -7979.755   -7913.2434    462.21245    28293.596    2.6497851 
    3580    602.66556    -7980.917   -7913.6888     709.5785    28269.131    2.6518045 
    3590    593.10253   -7980.4214   -7914.2599    953.33218    28246.902    2.6536347 
    3600    571.79664   -7978.6833   -7914.8986    1060.4911    28227.756    2.6564871 
    3610    558.80869    -7977.861    -7915.525    917.20984    28212.075    2.6608477 
    3620    555.46455   -7978.0534   -7916.0905    681.51865    28199.433    2.6664865 
    3630    557.17384   -7978.7352   -7916.5816    463.82057    28189.041    2.6717055 
    3640    557.64385   -7979.2024   -7916.9963    355.58119    28180.195    2.6749766 
    3650    568.95307   -7980.8199   -7917.3524    293.50639    28172.502    2.6758689 
    3660    569.40518   -7981.1905   -7917.6725    315.47617    28165.764    2.6765126 
    3670    554.78591   -7979.8415   -7917.9543    351.91572    28160.053    2.6783524 
    3680     547.1379   -7979.2201    -7918.186    312.41669    28155.481    2.6803502 
    3690    538.82319   -7978.4623   -7918.3557    409.05097        28152    2.6817088 
    3700    538.31282   -7978.5109   -7918.4613    569.19086    28149.943    2.6821542 
    3710    548.11589   -7979.6554   -7918.5123    600.36127     28149.83    2.6829278 
    3720     557.2239   -7980.6885   -7918.5293    676.98297    28151.883    2.6849841 
    3730    568.45521   -7981.9491   -7918.5371    736.89787    28156.412    2.6873515 
    3740    575.55707   -7982.7633    -7918.559     714.3949    28163.648    2.6907753 
    3750    568.72807   -7982.0496   -7918.6071    847.13278     28173.68    2.6968201 
    3760    562.15057   -7981.3826   -7918.6739    808.84876    28186.905    2.7043404 
    3770    552.91838   -7980.4174   -7918.7386    872.64378    28203.377    2.7115301 
    3780    552.50821   -7980.4212   -7918.7881     914.5101    28223.345    2.7169517 
    3790    554.22232   -7980.6454   -7918.8211    894.48119     28247.06    2.7207085 
    3800    541.93758   -7979.2866   -7918.8327    933.67737    28274.591    2.7239671 
    3810    536.38845   -7978.6408   -7918.8059    958.45254    28306.172    2.7272235 
    3820    539.32921   -7978.8843   -7918.7214    847.83509    28341.963    2.7321104 
    3830    552.62034   -7980.2267   -7918.5811    678.21015    28381.699    2.7404191 
    3840    559.31055   -7980.7895   -7918.3976     502.2845    28424.874    2.7529578 
    3850    569.02666   -7981.6651   -7918.1894    212.65568    28470.884    2.7687117 
    3860     578.3246   -7982.4817   -7917.9688   -128.48798    28518.763    2.7870624 
    3870    575.51195   -7981.9543   -7917.7551   -364.68572    28567.338    2.8071243 
    3880    571.81006   -7981.3407   -7917.5544   -528.33555    28615.693    2.8268172 
    3890    566.09294   -7980.5075   -7917.3589   -645.28877    28663.192    2.8454486 
    3900    559.59441   -7979.5845   -7917.1609   -619.93698    28709.387    2.8635637 
    3910    548.38805   -7978.1213   -7916.9478   -415.19195    28754.317    2.8805301 
    3920     543.8388   -7977.3632   -7916.6971   -379.04677    28798.556    2.8940445 
    3930    549.69117   -7977.7012   -7916.3823   -599.66177    28842.163    2.9039574 
    3940    554.59502   -7977.8645   -7915.9986   -849.62843    28884.354    2.9130511 
    3950    558.90785   -7977.9023   -7915.5553   -1041.3926    28924.157    2.9223028 
    3960    561.50293   -7977.7015    -7915.065   -1022.0564    28960.818    2.9301688 
    3970    565.08527   -7977.5883   -7914.5522   -893.35946    28994.271    2.9358032 
    3980    569.01295     -7977.51   -7914.0357   -840.34582    29024.853    2.9398971 
    3990    566.74345   -7976.7578   -7913.5367   -960.46347    29052.655      2.94296 
    4000    558.81223   -7975.4034   -7913.0671   -1157.1555    29077.205    2.9465964 
    4010    557.36902   -7974.8047   -7912.6294   -1390.5787    29097.684    2.9517322 
    4020    570.59422   -7975.8753   -7912.2246   -1501.5408     29113.19    2.9574951 
    4030    576.95342   -7976.2389   -7911.8788   -1226.9552    29123.348    2.9651153 
    4040    576.97554   -7975.9739   -7911.6114   -1015.2161    29128.951    2.9743456 
    4050    589.37128   -7977.1627   -7911.4175    -1146.035    29130.665    2.9826511 
    4060    600.90271   -7978.3429   -7911.3113   -1375.9541    29128.009    2.9904897 
    4070    591.65471    -7977.302    -7911.302   -1390.7034    29120.147    2.9983216 
    4080    580.34475   -7976.1014    -7911.363   -1224.3778    29106.952    3.0043183 
    4090    582.47417   -7976.4386   -7911.4627   -1137.2158    29088.896    3.0064855 
    4100     586.2467   -7976.9941   -7911.5974   -1175.0876    29066.228    3.0052877 
    4110     581.6933   -7976.6571   -7911.7683   -1104.4905    29038.848    3.0022762 
    4120    576.86834   -7976.3126    -7911.962   -825.61661     29007.03    2.9976191 
    4130    580.30093   -7976.9066   -7912.1732    -555.9295    28971.715    2.9923785 
    4140    576.04041   -7976.6597   -7912.4015    -432.1699    28933.839    2.9898234 
    4150    566.13552   -7975.7864   -7912.6331   -307.54897    28893.915    2.9917319 
    4160    563.81678   -7975.7471   -7912.8525   -196.42232      28852.4    2.9964389 
    4170    562.25078   -7975.7703   -7913.0504   -64.434687    28809.738    3.0006155 
    4180     563.0901   -7976.0404   -7913.2268    146.00961    28766.453    3.0023225 
    4190    569.46148   -7976.9144   -7913.3901    478.72261     28723.36    3.0017236 
    4200    573.55055   -7977.5351   -7913.5546    763.84626    28681.646    2.9994882 
    4210    577.38067   -7978.1404   -7913.7327     824.0424    28642.317    2.9949226 
    4220    580.37867   -7978.6765   -7913.9344    814.67222    28605.703    2.9878088 
    4230     580.5295   -7978.9215   -7914.1626    768.61512    28571.809    2.9810052 
    4240    571.79126   -7978.1863   -7914.4021    814.99024    28540.533    2.9786872 
    4250    562.50535   -7977.3823    -7914.634    992.50062    28512.088    2.9819645 
    4260    553.94034   -7976.6354   -7914.8426    1159.1907    28487.097    2.9891188 
    4270    546.05011   -7975.9265   -7915.0138    1174.0741    28466.141    2.9979831 
    4280    543.07241   -7975.7218   -7915.1412    1043.4085    28449.309    3.0055048 
    4290    545.84847   -7976.1118   -7915.2215    933.45424    28436.191    3.0076737 
    4300    552.51806   -7976.8949   -7915.2607     844.8423    28426.389    3.0032588 
    4310    561.34344    -7977.897   -7915.2783    766.83809    28419.597    2.9960672 
    4320     563.2339   -7978.1222   -7915.2926    665.91766    28415.527    2.9906024 
    4330    564.23985   -7978.2548    -7915.313    579.13638    28413.869    2.9871217 
    4340    569.39843   -7978.8635   -7915.3462    501.11364    28414.308    2.9843508 
    4350     565.4442   -7978.4705   -7915.3943    594.75856    28416.634    2.9822332 
    4360    561.69124   -7978.1117   -7915.4542    534.77217    28421.075    2.9807101 
    4370    555.38409   -7977.4649   -7915.5109    539.55023    28427.516    2.9787433 
    4380    555.14202   -7977.4833   -7915.5564    660.59793    28435.999    2.9737147 
    4390    559.59101   -7978.0145   -7915.5913    606.01122     28446.89    2.9648517 
    4400    557.97217   -7977.8617   -7915.6191    562.58363    28460.092    2.9545663 
    4410    559.16095   -7978.0162   -7915.6409    399.47229    28475.379    2.9462043 
    4420     549.8876    -7976.989   -7915.6482    384.64071    28492.316     2.941101 
    4430    547.33074   -7976.6837   -7915.6281     214.7579    28510.757    2.9380403 
    4440    560.18035   -7978.0598   -7915.5708   -334.36635    28529.997    2.9367168 
    4450    561.58177   -7978.1274   -7915.4821   -729.22488    28548.245    2.9375378 
    4460    564.67895   -7978.3661   -7915.3753   -966.31268    28564.029    2.9383353 
    4470    568.14565   -7978.6291   -7915.2516   -971.38602    28576.485    2.9371888 
    4480    559.11339   -7977.4797   -7915.1097   -665.48288    28585.596     2.933877 
    4490    546.96831   -7975.9422   -7914.9271   -360.16147    28592.336    2.9281373 
    4500    544.84292   -7975.4416   -7914.6636   -182.77705    28597.766    2.9196126 
    4510     556.5387   -7976.3705   -7914.2878   -59.480112    28602.559    2.9091652 
    4520    571.69418   -7977.5736   -7913.8002    15.864333    28607.164    2.8999212 
    4530    569.15993   -7976.7296    -7913.239    254.06551    28611.943    2.8956155 
    4540     557.0525   -7974.7835   -7912.6435    514.59627    28617.709    2.8971278 
    4550    552.36941   -7973.6435   -7912.0258    600.10651    28625.363    2.9022578 
    4560    562.36829   -7974.1318   -7911.3987    528.32199     28635.24    2.9088298 
    4570    580.12343   -7975.5105   -7910.7969    483.18406     28647.17    2.9159637 
    4580    593.24412     -7976.45   -7910.2727    428.25214    28660.981    2.9225523 
    4590    591.28592   -7975.8225   -7909.8636    331.87855     28676.49    2.9257546 
    4600    585.91131   -7974.9257   -7909.5664    159.23349    28693.339    2.9228256 
    4610    583.95943   -7974.4976    -7909.356   -32.219465    28710.911    2.9147076 
    4620    577.26636   -7973.6058   -7909.2108   -214.85878    28728.519    2.9059521 
    4630    583.09353   -7974.1604   -7909.1155    -483.1211    28745.449    2.9005179 
    4640    594.48516   -7975.3873   -7909.0715   -782.10006    28760.703    2.9004121 
    4650    592.20496   -7975.1595   -7909.0981   -686.09055    28773.337    2.9055225 
    4660    586.69195   -7974.6392   -7909.1929   -552.10947    28783.537    2.9133549 
    4670    598.12796   -7976.0834   -7909.3614   -663.75049    28791.687    2.9215318 
    4680    594.49728   -7975.9253   -7909.6082   -620.39646    28797.509    2.9294613 
    4690    588.93081   -7975.6168   -7909.9206   -565.63953    28801.048     2.935425 
    4700    590.72488   -7976.1845   -7910.2883   -640.03113    28802.458    2.9384103 
    4710    583.69396   -7975.8193   -7910.7073   -689.42665    28801.535    2.9402798 
    4720    575.35187   -7975.3374    -7911.156   -841.88129    28798.014     2.943834 
    4730    573.76495   -7975.6145   -7911.6101   -1056.3144    28791.341    2.9484252 
    4740    574.94905   -7976.1961   -7912.0597   -1252.9102    28780.725    2.9528694 
    4750    573.74257   -7976.5008    -7912.499   -1240.3773     28765.48    2.9575833 
    4760    569.54427   -7976.4499   -7912.9164   -884.59515    28745.701    2.9627566 
    4770    564.53063   -7976.2681   -7913.2939   -450.02841     28722.59    2.9678143 
    4780    561.51013    -7976.259   -7913.6217   -205.66834     28697.68    2.9718401 
    4790     561.6769   -7976.5647   -7913.9088   -150.57104     28671.87    2.9739425 
    4800    559.48825   -7976.5686   -7914.1569   -57.402935    28645.467    2.9733129 
    4810    565.75953    -7977.486   -7914.3746   -86.558518    28618.732    2.9691797 
    4820    575.66836   -7978.7981   -7914.5814   -221.50156    28591.579    2.9630339 
    4830     579.7024   -7979.4677    -7914.801   -435.11495    28563.521    2.9561827 
    4840    574.73817   -7979.1546   -7915.0417   -529.06063    28533.852    2.9480491 
    4850    562.70311   -7978.0543   -7915.2839   -449.20401    28502.296    2.9390607 
    4860    562.91915   -7978.3079   -7915.5134   -458.31679    28469.035    2.9307315 
    4870    560.06814   -7978.2024    -7915.726    -381.7756    28434.106    2.9245134 
    4880    553.13042     -7977.61   -7915.9075   -149.37147    28397.853    2.9188186 
    4890    564.89932   -7979.0802   -7916.0649   -130.06146    28360.993    2.9115899 
    4900    570.24034   -7979.8284   -7916.2172   -35.571039    28323.719    2.9044433 
    4910    561.08464   -7978.9605   -7916.3707    256.11246    28286.407    2.8994168 
    4920    553.10313   -7978.2054   -7916.5059    624.14889    28250.079    2.8975989 
    4930    555.36653   -7978.5659   -7916.6139    955.92201    28216.005    2.8988819 
    4940    557.95969   -7978.9397   -7916.6985    1247.1694    28185.373    2.9012611 
    4950    567.95097   -7980.1336   -7916.7778    1404.3855    28159.185    2.9011213 
    4960    567.45137   -7980.1722   -7916.8721     1485.279    28137.977    2.8978542 
    4970    555.36197   -7978.9281   -7916.9766    1484.7706    28122.019     2.893423 
    4980    554.28911   -7978.9094   -7917.0776    1312.5419    28111.267    2.8896616 
    4990    555.44335   -7979.1264   -7917.1659    1260.9778    28105.201    2.8887187 
    5000    555.66864   -7979.2296    -7917.244    1407.5472    28103.664     2.891652 
Loop time of 2435.01 on 16 procs for 3000 steps with 864 atoms

Performance: 0.106 ns/day, 225.464 hours/ns, 1.232 timesteps/s
97.9% CPU use with 16 MPI tasks x 1 OpenMP threads

MPI task timing breakdown:
Section |  min time  |  avg time  |  max time  |%varavg| %total
---------------------------------------------------------------
Pair    | 2043.5     | 2266.4     | 2399       | 226.0 | 93.07
Bond    | 0.0002532  | 0.001048   | 0.0027335  |   2.4 |  0.00
Neigh   | 0.031247   | 0.035383   | 0.04021    |   1.4 |  0.00
Comm    | 5.6223     | 137.8      | 385.82     | 917.5 |  5.66
Output  | 0.18677    | 0.18982    | 0.23293    |   2.6 |  0.01
Modify  | 5.4621     | 30.604     | 73.052     | 406.2 |  1.26
Other   |            | 0.017      |            |       |  0.00

Nlocal:        54.0000 ave          65 max          46 min
Histogram: 2 1 3 2 2 3 0 1 1 1
Nghost:        410.000 ave         442 max         390 min
Histogram: 3 2 1 4 1 1 2 1 0 1
Neighs:         0.00000 ave           0 max           0 min
Histogram: 16 0 0 0 0 0 0 0 0 0
FullNghs:      1618.00 ave        2089 max        1291 min
Histogram: 3 2 2 2 1 2 1 0 2 1

Total # of neighbors = 25888
Ave neighs/atom = 29.962963
Ave special neighs/atom = 0.0000000
Neighbor list builds = 300
Dangerous builds = 300
unfix   2

fix     3 all npt temp 562.5 562.5 $(100.0*dt) aniso 1.01325 1.01325 $(1000.0*dt)
fix     3 all npt temp 562.5 562.5 0.10000000000000000555 aniso 1.01325 1.01325 $(1000.0*dt)
fix     3 all npt temp 562.5 562.5 0.10000000000000000555 aniso 1.01325 1.01325 1
run     20000
Per MPI rank memory allocation (min/avg/max) = 8.894 | 8.899 | 8.901 Mbytes
Step Temp PotEng TotEng Press Volume c_msd[4] 
    5000    555.66864   -7979.2296    -7917.244    1407.5472    28103.664     2.891652 
    5010    556.77296   -7979.3484   -7917.2395    1621.3732    28106.277    2.8985986 
    5020      560.681   -7979.7755   -7917.2307    1728.6492    28114.574    2.9080318 
    5030     561.0956   -7979.8169   -7917.2259     1800.601    28128.968    2.9172767 
    5040    554.37504   -7979.0642   -7917.2228    1771.9024    28149.724    2.9226082 
    5050    549.32471   -7978.4866   -7917.2086    1527.8956     28176.73    2.9239948 
    5060    552.41532   -7978.7906   -7917.1678    1139.2877    28209.175    2.9261354 
    5070     565.6794   -7980.1978   -7917.0955    684.54567    28245.716    2.9315169 
    5080    571.91357   -7980.8072   -7917.0093    454.40981    28284.842    2.9407419 
    5090    565.03173   -7979.9565   -7916.9264    417.36438    28325.715    2.9529215 
    5100    560.51762   -7979.3709   -7916.8443    487.46248    28368.177    2.9660466 
    5110    557.63017   -7978.9489   -7916.7444    365.90495    28412.339    2.9789542 
    5120     559.8647    -7979.068   -7916.6143    189.55469    28457.796    2.9912646 
    5130    559.35697   -7978.8435   -7916.4464     66.93549    28503.904    3.0038852 
    5140     559.8447    -7978.686   -7916.2345   -25.795795    28550.171    3.0183411 
    5150     558.4041   -7978.2605   -7915.9696   -246.91089     28596.15     3.036223 
    5160    553.12795   -7977.3454   -7915.6431   -446.78831    28641.043    3.0575051 
    5170    535.91501   -7975.0213   -7915.2392   -491.06215    28684.119     3.079808 
    5180    527.17647   -7973.5407   -7914.7334   -485.83103    28725.153    3.0983152 
    5190    543.96297   -7974.7864   -7914.1065   -606.20847    28764.073    3.1086415 
    5200    563.67857   -7976.2694   -7913.3902   -701.00377    28800.488    3.1101171 
    5210    576.97202   -7977.0411    -7912.679    -736.1802    28834.026     3.105714 
    5220    579.09383   -7976.6497    -7912.051   -715.33101     28864.57     3.100932 
    5230    585.74129   -7976.8834    -7911.543   -843.53952    28892.116    3.0989869 
    5240    588.00293   -7976.7514   -7911.1588   -997.45141    28916.244    3.1003713 
    5250    579.62669   -7975.5464   -7910.8882   -1011.2137    28936.471    3.1049747 
    5260    578.40704   -7975.2233   -7910.7012   -961.44145    28952.741    3.1119268 
    5270    583.46014   -7975.6583   -7910.5724   -866.16601    28965.272    3.1207111 
    5280    593.06916   -7976.6648    -7910.507   -759.38412    28974.435    3.1315995 
    5290    592.43653   -7976.6017   -7910.5145    -667.0483    28980.674    3.1446217 
    5300    590.03624   -7976.4102   -7910.5908   -729.82408    28984.314    3.1585411 
    5310    589.00719   -7976.4333   -7910.7286   -687.41926    28985.246    3.1718406 
    5320    587.56492   -7976.4636   -7910.9198   -472.28513    28983.682    3.1838266 
    5330    597.43755   -7977.8152   -7911.1702   -366.94371    28980.341    3.1955675 
    5340    595.27463   -7977.8921   -7911.4883   -330.93286    28975.648    3.2084324 
    5350    589.57267    -7977.629   -7911.8613   -363.34071    28969.754    3.2214257 
    5360    593.73142   -7978.5154   -7912.2838   -508.78573    28962.538    3.2338058 
    5370     583.3102   -7977.8129   -7912.7437   -584.34763     28953.55    3.2469811 
    5380    566.76978   -7976.4238   -7913.1998   -652.02099    28942.506    3.2603741 
    5390    559.71143   -7976.0529   -7913.6162   -715.75821    28929.174    3.2721922 
    5400    553.98059   -7975.7752   -7913.9779   -732.40348    28913.345    3.2815463 
    5410    548.24571   -7975.4376     -7914.28   -633.36632    28895.028    3.2887092 
    5420    538.77712   -7974.6153   -7914.5139   -446.67897    28874.614    3.2957827 
    5430    529.55956    -7973.742   -7914.6688   -265.28788    28852.781    3.3033209 
    5440    529.96809   -7973.8588   -7914.7401   -90.102453    28830.244    3.3115583 
    5450    543.31904   -7975.3506   -7914.7426   -152.19644    28807.574    3.3211853 
    5460    554.95339   -7976.6133   -7914.7074   -270.30305    28784.592    3.3315806 
    5470    556.41328   -7976.7231   -7914.6543   -182.80752     28760.96    3.3399314 
    5480    564.45384   -7977.5621   -7914.5964   -153.37124    28736.917    3.3444146 
    5490    564.40925    -7977.503   -7914.5422    -114.7605    28712.596    3.3472389 
    5500      560.652   -7977.0325   -7914.4909    55.405564      28688.2    3.3527709 
    5510    563.76283   -7977.3245   -7914.4359     192.2202    28664.291    3.3633666 
    5520    571.74073   -7978.1623   -7914.3838     262.2849    28641.331    3.3782162 
    5530    576.45032   -7978.6533   -7914.3494    289.40776    28619.576    3.3962918 
    5540    579.77729   -7979.0239   -7914.3488    198.97778    28599.095    3.4165999 
    5550    574.27805   -7978.4484   -7914.3868      70.7026    28579.563    3.4363063 
    5560    560.60426   -7976.9864   -7914.4502    104.94995    28560.574    3.4514222 
    5570    549.96475    -7975.859   -7914.5096    188.11432    28542.198    3.4605864 
    5580    547.15082   -7975.5803   -7914.5448    301.39367    28524.728    3.4652316 
    5590     552.2329   -7976.1517   -7914.5493    349.89483    28508.528     3.466661 
    5600    560.37853   -7977.0448   -7914.5337    275.46819    28493.727    3.4659988 
    5610    562.80522   -7977.2904   -7914.5087     255.8824    28480.111    3.4666865 
    5620    570.15316   -7978.0875   -7914.4861    254.73086    28467.567    3.4707876 
    5630    574.29844   -7978.5406   -7914.4768    251.39542    28456.062    3.4768918 
    5640     572.6156   -7978.3707   -7914.4946    358.96368    28445.604    3.4830743 
    5650    565.13295   -7977.5778   -7914.5364    662.77693    28436.607    3.4906484 
    5660    564.22198   -7977.5347   -7914.5949    817.13018    28430.043    3.5019137 
    5670    569.68291   -7978.2247   -7914.6757    860.64083    28426.453    3.5173777 
    5680    565.31539   -7977.8509   -7914.7891     951.7598    28426.014    3.5356163 
    5690    559.52205   -7977.3526    -7914.937    928.75197    28428.969    3.5525808 
    5700    558.97391   -7977.4653   -7915.1109     835.4684    28435.241    3.5652281 
    5710     563.6404   -7978.1897   -7915.3147     590.7172    28444.429    3.5747676 
    5720    560.02855   -7978.0227   -7915.5507    264.53141    28455.659    3.5844032 
    5730    556.00775   -7977.8347   -7915.8112   -39.142621     28467.77    3.5959215 
    5740    554.54952   -7977.9458    -7916.085   -200.29873    28479.698    3.6097706 
    5750    540.44856   -7976.6449    -7916.357   -169.20037    28490.866    3.6260188 
    5760    520.58512   -7974.6579   -7916.5859   -84.891268    28501.368    3.6425542 
    5770    526.40662   -7975.4676   -7916.7461   -372.59197    28511.355    3.6555844 
    5780    540.32744   -7977.1112   -7916.8369   -595.55116    28519.955    3.6649052 
    5790      557.627   -7979.0889   -7916.8848   -477.31005    28526.453    3.6727098 
    5800    574.08135   -7980.9662   -7916.9265   -387.99837    28531.175    3.6817511 
    5810    572.32388   -7980.8331   -7916.9895   -322.63612    28534.465    3.6932956 
    5820    567.03576   -7980.3343   -7917.0806   -217.56053    28536.575    3.7045315 
    5830    567.39634   -7980.4878   -7917.1939   -143.35767    28537.874    3.7135009 
    5840    561.29057   -7979.9401   -7917.3273   -58.252163    28538.647    3.7221537 
    5850    543.26214   -7978.0621   -7917.4604    75.545471    28539.228    3.7325313 
    5860    531.19932   -7976.8167   -7917.5606    288.62672    28540.116    3.7449081 
    5870    533.51909   -7977.1178    -7917.603    410.98381     28542.02    3.7587826 
    5880    548.10846   -7978.7374   -7917.5951    418.51167    28545.375    3.7726793 
    5890    549.87261   -7978.8895   -7917.5503    406.66363    28550.224    3.7847294 
    5900    556.91702    -7979.606   -7917.4811    378.37796    28556.536     3.794006 
    5910    563.70217   -7980.2735   -7917.3917    303.51816    28564.174    3.8025087 
    5920    558.89556   -7979.6364   -7917.2907    242.61952    28572.881    3.8118323 
    5930    558.57975   -7979.4858   -7917.1754    80.766224    28582.396    3.8221563 
    5940    558.98969   -7979.3967   -7917.0406   -88.371403    28592.155    3.8337122 
    5950    551.31781    -7978.382   -7916.8816    -1.633835     28601.64     3.845186 
    5960    551.44044   -7978.1992   -7916.6852    75.063945    28611.074    3.8542282 
    5970    560.00852     -7978.91   -7916.4402   -26.951208    28620.701     3.860423 
    5980    567.20485   -7979.4325     -7916.16   -288.09837    28630.145     3.865842 
    5990    564.66183   -7978.8501   -7915.8612   -484.45424    28638.529    3.8727793 
    6000    557.97281   -7977.7907   -7915.5479     -548.183    28645.164    3.8823108 
    6010    558.23699   -7977.4833   -7915.2111   -629.81882     28649.77    3.8953885 
    6020    569.25789   -7978.3506    -7914.849   -699.75622    28652.065     3.912241 
    6030    576.67531   -7978.8081   -7914.4791   -594.08413    28651.844     3.930278 
    6040    573.19169   -7978.0658   -7914.1254   -314.78373    28649.525     3.944612 
    6050    573.86021   -7977.8124   -7913.7974   -204.22968    28646.009    3.9517275 
    6060     567.3393    -7976.781   -7913.4934   -153.48807    28641.748    3.9532893 
    6070    560.91584   -7975.7777   -7913.2067   -203.15825    28636.914    3.9531252 
    6080    557.23095   -7975.0792   -7912.9193   -228.88553    28631.376    3.9542815 
    6090    554.49071   -7974.4766   -7912.6223   -135.36145    28625.082    3.9571421 
    6100    561.06361    -7974.899   -7912.3115    16.542343    28618.333    3.9611542 
    6110    573.57426   -7975.9802   -7911.9972     264.3435     28611.71    3.9659525 
    6120    578.26429   -7976.2134   -7911.7071    563.20726    28606.101    3.9715254 
    6130    566.82393   -7974.6856   -7911.4556    853.32152    28602.587    3.9788135 
    6140    573.94727   -7975.2577    -7911.233    961.53404    28602.144    3.9871732 
    6150    596.79993   -7977.6192   -7911.0452    938.20154    28605.172    3.9966195 
    6160    606.28225    -7978.567   -7910.9353    971.79679    28611.663    4.0083273 
    6170    602.77488   -7978.1745    -7910.934    1009.3066    28621.708    4.0201544 
    6180    587.09249   -7976.5207   -7911.0296    1071.2103    28635.442    4.0296174 
    6190    581.95064   -7976.1043   -7911.1868     1038.483    28653.043    4.0375066 
    6200    589.78062   -7977.1888   -7911.3978    794.54255    28674.369      4.04805 
    6210    580.60016   -7976.4261   -7911.6593    388.45979    28698.525    4.0639928 
    6220    571.75513    -7975.735   -7911.9549   -5.5106064    28724.086    4.0829111 
    6230    566.40313   -7975.4419   -7912.2588   -277.90622    28749.618    4.1017744 
    6240    565.58092   -7975.6576   -7912.5662   -252.66193    28774.186    4.1199541 
    6250    567.36762   -7976.1721   -7912.8814   -69.500276    28797.827    4.1372482 
    6260    563.16936   -7976.0264    -7913.204    169.14529    28821.193    4.1525983 
    6270    562.84106   -7976.3114   -7913.5257     294.6376    28845.101    4.1656461 
    6280    569.29472   -7977.3492   -7913.8435    249.96713    28869.999    4.1787488 
    6290    572.93514   -7978.0745   -7914.1627    181.25083    28895.801    4.1945558 
    6300    572.73932   -7978.3712   -7914.4813    38.619278    28922.223    4.2125203 
    6310    573.08298   -7978.7218   -7914.7935   -172.94486    28948.727    4.2289435 
    6320    573.96444    -7979.116   -7915.0894   -421.97853    28974.531    4.2417837 
    6330    575.19669   -7979.5288   -7915.3647   -694.96431    28998.683    4.2541771 
    6340    565.97201   -7978.7447   -7915.6097   -801.29057    29020.236    4.2694271 
    6350    553.20805    -7977.518   -7915.8068   -810.87344    29038.764    4.2875931 
    6360    551.45875   -7977.4571    -7915.941   -734.91984    29054.247    4.3077523 
    6370    561.32865   -7978.6463   -7916.0293   -695.42521    29066.919    4.3293658 
    6380     563.8331   -7978.9913   -7916.0949   -551.44584    29077.006    4.3507453 
    6390    562.53162   -7978.9012     -7916.15   -430.90635    29084.994    4.3689889 
    6400    563.51866    -7979.056   -7916.1946     -383.834    29091.331    4.3836564 
    6410    566.72399   -7979.4547   -7916.2358   -336.03612    29096.211    4.3971771 
    6420     560.2098   -7978.7694   -7916.2771   -275.58928    29099.808    4.4116149 
    6430     546.9951   -7977.3233   -7916.3052   -305.90609    29102.315    4.4260971 
    6440    542.09928   -7976.7682   -7916.2962   -300.82013    29103.682    4.4383959 
    6450    550.47223   -7977.6514   -7916.2454   -240.62659    29103.935    4.4479857 
    6460    564.15357   -7979.0995   -7916.1673   -280.63786    29103.247    4.4557764 
    6470     573.2672   -7980.0403   -7916.0914   -362.13385    29101.497    4.4646194 
    6480    566.10184   -7979.1838   -7916.0343   -357.80604     29098.41    4.4765329 
    6490    558.76893   -7978.3221   -7915.9906   -369.75428    29093.989    4.4883404 
    6500    554.02003   -7977.7423   -7915.9405   -530.27272    29088.137    4.4957733 
    6510    554.69479   -7977.7509   -7915.8738   -663.25985    29080.312    4.4990391 
    6520    563.88857   -7978.6953   -7915.7927   -832.17974    29069.994    4.5009377 
    6530    574.92062   -7979.8478   -7915.7145   -1004.2882     29056.56     4.502923 
    6540    576.22206   -7979.9418   -7915.6634   -1027.4019    29039.444    4.5056409 
    6550    569.47491   -7979.1709   -7915.6451   -929.32368    29018.555    4.5098013 
    6560    562.68766    -7978.412   -7915.6433    -743.3193    28994.257    4.5145363 
    6570    562.38754   -7978.3792    -7915.644   -521.50246     28967.24     4.518126 
    6580    563.73512   -7978.5274   -7915.6419   -292.43406    28938.348    4.5201067 
    6590    563.46363   -7978.4928   -7915.6375   -30.550198    28908.465    4.5210707 
    6600    560.73791   -7978.1784   -7915.6272    229.73942    28878.541    4.5211165 
    6610    568.73688   -7979.0559   -7915.6124    409.52758    28849.531    4.5186578 
    6620     574.5531   -7979.6981   -7915.6058    595.64769    28822.146    4.5142621 
    6630    569.66297    -7979.167   -7915.6202    879.29137    28797.098    4.5097162 
    6640    570.04588    -7979.241   -7915.6516      1042.73    28775.351    4.5041524 
    6650    578.63252   -7980.2593    -7915.712    928.75416    28757.419    4.4967835 
    6660    567.54172   -7979.1202     -7915.81     839.6901    28742.981    4.4883433 
    6670    560.74217   -7978.4856    -7915.934    725.26189    28731.686    4.4780367 
    6680    570.68976   -7979.7418   -7916.0805     500.0368    28723.048     4.467569 
    6690    567.59054   -7979.5775   -7916.2619    511.99583    28716.361    4.4605828 
    6700    552.43818   -7978.0958   -7916.4705     676.9096    28711.629    4.4586584 
    6710    548.84072   -7977.9063   -7916.6823    690.35092    28709.355    4.4608844 
    6720    554.23221   -7978.7178   -7916.8923     553.8126     28709.58    4.4662119 
    6730    551.69838   -7978.6422   -7917.0994    419.10076    28711.864    4.4734551 
    6740    555.51836     -7979.28   -7917.3111    165.02732    28715.643    4.4801187 
    6750    551.39821    -7979.032   -7917.5227     166.4515     28720.14    4.4845677 
    6760     552.0465   -7979.3139   -7917.7323    127.57472    28725.214    4.4846412 
    6770    558.85845   -7980.2832   -7917.9417    12.372702    28730.725    4.4795076 
    6780    562.71807   -7980.9351   -7918.1631  -0.76702149    28736.315    4.4711106 
    6790    559.57391   -7980.8242   -7918.4029    88.716433     28741.95    4.4629712 
    6800    557.20245   -7980.8133   -7918.6565    -9.683603    28747.859    4.4581648 
    6810    555.65749   -7980.9019   -7918.9175   -233.78402    28753.704    4.4591262 
    6820    553.50492   -7980.9245   -7919.1802   -465.55534    28758.689    4.4659154 
    6830    551.61883    -7980.976   -7919.4421   -515.00937    28762.033    4.4760137 
    6840    541.00112   -7980.0409   -7919.6914   -330.07418    28763.556    4.4862743 
    6850    532.70633   -7979.3298   -7919.9056   -135.05656     28763.87    4.4930559 
    6860    537.09796   -7979.9872   -7920.0731   -86.335849    28763.641    4.4929187 
    6870    545.57274   -7981.0587   -7920.1992   -71.277616    28763.077    4.4861952 
    6880    548.70807   -7981.5045   -7920.2953    -38.94818    28762.266    4.4772956 
    6890    546.81605   -7981.3644   -7920.3662    -81.58909    28761.301    4.4703821 
    6900    543.04033   -7980.9838   -7920.4068   -173.09968    28760.026    4.4678217 
    6910    540.82484   -7980.7363   -7920.4064   -272.99549    28758.119     4.470056 
    6920    539.33242   -7980.5205   -7920.3572   -468.67004    28755.158    4.4754637 
    6930    535.56105   -7979.9937    -7920.251   -589.45715    28750.481    4.4810421 
    6940    531.40429   -7979.3523   -7920.0734   -598.78423    28743.628     4.484298 
    6950    526.04207   -7978.4842   -7919.8034   -358.04897     28734.61    4.4836954 
    6960    521.16125   -7977.5539   -7919.4176   -34.272411    28724.235    4.4781448 
    6970    528.01391   -7977.8022   -7918.9014    231.50088    28713.644    4.4685881 
    6980    543.47401   -7978.8915   -7918.2662    446.35139    28703.818    4.4598154 
    6990    559.96123   -7980.0397   -7917.5752    518.90291    28695.528    4.4571535 
    7000    565.75888   -7980.0195   -7916.9083    554.82745    28689.092    4.4611122 
    7010    574.36937    -7980.401   -7916.3292      512.026    28684.619    4.4685021 
    7020    586.37807    -7981.273   -7915.8616    428.41647    28681.989    4.4765144 
    7030    583.60995   -7980.6213   -7915.5188    572.23358    28681.013    4.4822753 
    7040    578.61429   -7979.8305   -7915.2852     741.0327    28682.149    4.4830589 
    7050    570.19354   -7978.7321   -7915.1262    670.78977    28685.962    4.4796183 
    7060    559.24915   -7977.3938   -7915.0087    395.09718    28692.236    4.4747318 
    7070     555.2181   -7976.8352   -7914.8998    70.456658    28700.039    4.4709595 
    7080     561.0773   -7977.3781   -7914.7891   -239.97049    28708.209    4.4703672 
    7090    560.26598   -7977.1766   -7914.6781   -273.46923    28715.688     4.472976 
    7100    565.86417   -7977.6979   -7914.5749   -141.22162    28722.281    4.4783801 
    7110    567.85559   -7977.8252   -7914.4801   -4.7081637    28728.436     4.486873 
    7120    573.08068   -7978.3288   -7914.4008    42.097565    28734.633    4.4957476 
    7130    579.88952   -7979.0321   -7914.3446    26.790184    28741.062      4.50309 
    7140    580.54429   -7979.0846    -7914.324   -65.342557    28747.679     4.508104 
    7150    579.48168   -7978.9864   -7914.3443   -243.83128    28754.129    4.5104576 
    7160    575.99611   -7978.6557   -7914.4025   -310.05344    28759.809    4.5121811 
    7170    573.30815   -7978.4473    -7914.494   -241.00426    28764.477    4.5156409 
    7180    563.82147   -7977.5013   -7914.6062    18.780065    28768.414    4.5219488 
    7190     554.4735   -7976.5746   -7914.7222    275.51225    28772.498    4.5304241 
    7200    548.25667   -7975.9839    -7914.825    310.30593      28777.6    4.5389723 
    7210    541.04221   -7975.2549   -7914.9008    231.15294    28783.917    4.5453269 
    7220    535.89449    -7974.714   -7914.9342    235.03508    28791.261    4.5475851 
    7230     542.7844   -7975.4661   -7914.9177    230.83018    28799.628    4.5459246 
    7240    549.42463   -7976.1449   -7914.8558    126.21862    28808.998    4.5433563 
    7250    549.07845   -7976.0073   -7914.7568    77.425136    28819.076    4.5418897 
    7260    554.11144   -7976.4323   -7914.6203   -104.31692    28829.618     4.540333 
    7270     562.6766   -7977.2159   -7914.4485   -439.12419     28839.95    4.5350074 
    7280     566.4359     -7977.44   -7914.2532    -823.1362    28848.832    4.5229506 
    7290    568.65393   -7977.4788   -7914.0446   -1094.2702    28854.859     4.506626 
    7300    569.89051   -7977.4023   -7913.8302   -1061.3265    28857.014    4.4904296 
    7310    569.17697   -7977.1014   -7913.6088   -845.79877    28855.303    4.4770436 
    7320    571.71305   -7977.1547   -7913.3792   -646.99921    28850.364    4.4684121 
    7330    569.02673   -7976.6142   -7913.1385   -357.78977    28842.917    4.4652088 
    7340    568.54009   -7976.3061   -7912.8846   -125.19972    28833.915    4.4672378 
    7350    564.71045   -7975.6042   -7912.6099   -50.290326    28824.159    4.4750968 
    7360    564.34689   -7975.2624   -7912.3087   -72.508232    28813.934    4.4870619 
    7370    571.06988   -7975.6837     -7911.98   -129.33651    28803.161    4.4983582 
    7380    578.06325   -7976.1193   -7911.6354   -113.62334    28791.637    4.5054301 
    7390    580.18282   -7976.0145   -7911.2942   -15.739281    28779.401    4.5075532 
    7400    577.69952   -7975.4098   -7910.9666     94.53387    28766.772    4.5074301 
    7410    577.79684   -7975.1067   -7910.6526     171.0158    28754.139    4.5087642 
    7420    586.54853   -7975.7841   -7910.3537     82.63548    28741.738     4.513036 
    7430    597.04603   -7976.6907   -7910.0894    54.840636    28729.327     4.519873 
    7440    592.20114    -7975.945   -7909.8841    128.23071    28716.775    4.5284669 
    7450     585.8943   -7975.0967   -7909.7393    145.42367    28704.298    4.5380361 
    7460    594.24789   -7975.9373   -7909.6481    16.469121    28691.945    4.5470919 
    7470    599.02376   -7976.4489   -7909.6269   -86.302373    28679.283    4.5546599 
    7480    579.13236    -7974.286   -7909.6829    53.837592        28666    4.5606515 
    7490    563.13145   -7972.6038   -7909.7856    229.93902    28652.513     4.565251 
    7500    564.29927   -7972.8563   -7909.9079    261.65373    28639.393    4.5700128 
    7510    565.36188   -7973.1175   -7910.0505    359.11858    28626.849    4.5761009 
    7520    569.06309    -7973.702   -7910.2221    533.62349    28615.273    4.5835758 
    7530    580.35195   -7975.1825   -7910.4434    637.29073    28605.287    4.5931863 
    7540    581.11668   -7975.5605    -7910.736    756.13227     28597.35    4.6049759 
    7550    583.54584   -7976.2156   -7911.1202     909.8257    28591.993    4.6186763 
    7560    583.25793    -7976.672   -7911.6087    986.10102    28589.819    4.6346473 
    7570    580.16357   -7976.9084   -7912.1903    992.37577    28591.212    4.6510845 
    7580    583.92332   -7977.9857   -7912.8482    953.17707    28596.316    4.6658561 
    7590    578.92509    -7978.124    -7913.544    951.15134    28605.129     4.678157 
    7600    574.01687   -7978.2574    -7914.225    950.67775    28617.738    4.6874745 
    7610    563.17946   -7977.6588   -7914.8353    940.68188    28634.271    4.6957264 
    7620     556.0231   -7977.3648   -7915.3396    679.71842     28654.72    4.7040338 
    7630    553.58665   -7977.4887   -7915.7352    285.02814     28678.28    4.7123877 
    7640    547.87039   -7977.1499   -7916.0342    25.598617    28703.643    4.7214338 
    7650    542.46894   -7976.7609   -7916.2477   -81.689017    28729.899    4.7315183 
    7660    541.56337      -7976.8   -7916.3878   -183.72033    28756.611    4.7430152 
    7670    541.01187   -7976.8155   -7916.4649   -338.01139    28783.354    4.7560195 
    7680    538.58987   -7976.5666   -7916.4861   -528.00603    28809.528    4.7690408 
    7690    532.29157   -7975.8269    -7916.449   -639.66142    28834.438    4.7797549 
    7700    535.32581    -7976.069   -7916.3526   -701.99894    28857.597    4.7866941 
    7710    541.49342   -7976.6047   -7916.2003   -663.35761    28878.727    4.7909332 
    7720    547.82717     -7977.12    -7916.009   -521.50132    28897.906    4.7944111 
    7730    549.00648   -7977.0291   -7915.7866   -366.71287    28915.598    4.7983954 
    7740    548.22311   -7976.6972   -7915.5421    -278.6569     28932.31    4.8031492 
    7750    548.21599   -7976.4268   -7915.2724   -357.32693    28948.313    4.8084994 
    7760    552.89775   -7976.6562   -7914.9796   -463.04345     28963.34    4.8131522 
    7770    547.00901   -7975.6876   -7914.6679    -351.5359    28977.051    4.8157843 
    7780    543.40108   -7974.9555   -7914.3383   -314.39303    28989.722    4.8140479 
    7790    549.11527    -7975.235   -7913.9803   -497.19838    29001.409    4.8078542 
    7800    560.87677   -7976.1696    -7913.603   -631.32776    29011.501    4.7990856 
    7810    564.24844   -7976.1755   -7913.2327   -688.83072    29019.445    4.7904402 
    7820    559.07097   -7975.2528   -7912.8876   -657.24695    29024.995    4.7856864 
    7830    552.45888     -7974.19   -7912.5624   -712.68652    29028.138    4.7868127 
    7840    548.37152   -7973.4131   -7912.2414   -816.80953    29028.645    4.7918171 
    7850    557.60631   -7974.1219   -7911.9201   -1002.6852    29026.038    4.7986162 
    7860    562.35589   -7974.3409   -7911.6093   -1148.1825    29019.597    4.8071863 
    7870    559.46743   -7973.7347   -7911.3253   -1369.6246    29008.638    4.8158328 
    7880    558.11722   -7973.3272   -7911.0684   -1575.9604    28992.273    4.8195193 
    7890    559.83751    -7973.285   -7910.8343   -1607.0338    28969.667    4.8159018 
    7900    556.48139   -7972.6943   -7910.6179    -1397.653    28940.621    4.8078535 
    7910    555.86057   -7972.4185   -7910.4114   -1122.3252    28905.769    4.8003868 
    7920    556.63768   -7972.3013   -7910.2076   -857.85607    28866.052    4.7980083 
    7930    549.81158   -7971.3341   -7910.0018   -550.48172    28822.445    4.8014391 
    7940    551.41697   -7971.2919   -7909.7805   -265.55145    28776.072    4.8066237 
    7950    574.29339   -7973.6126   -7909.5493    -144.7235    28727.919    4.8091107 
    7960    595.02933   -7975.7218   -7909.3454    66.681107    28678.564    4.8099526 
    7970    603.24951     -7976.51   -7909.2166    322.17834      28628.8    4.8130235 
    7980    598.15763   -7975.9019   -7909.1766    828.47776     28579.68    4.8212327 
    7990    585.48497   -7974.5111   -7909.1993    1523.2326    28533.069    4.8346215 
    8000    584.16211     -7974.43   -7909.2658    1870.9998    28491.368    4.8509388 
    8010    582.27887   -7974.3321    -7909.378    1962.9176    28455.975    4.8687806 
    8020    574.59691   -7973.6308   -7909.5336    1825.3187    28427.264    4.8864547 
    8030    570.58484   -7973.3704   -7909.7208    1490.4389    28404.802     4.900583 
    8040    570.21618   -7973.5388   -7909.9303    1279.3214    28387.549    4.9084535 
    8050    566.83342   -7973.3828   -7910.1517    1228.0763    28374.805    4.9102811 
    8060    574.97204   -7974.5273   -7910.3883    1081.8849    28366.321    4.9067207 
    8070     579.3858   -7975.2821   -7910.6507     1051.983    28361.711    4.8994593 
    8080    577.14639   -7975.3273   -7910.9457    1113.9483    28360.883    4.8899862 
    8090    569.06707   -7974.7389   -7911.2586    1129.9002    28364.058    4.8787132 
    8100    561.62944   -7974.2152   -7911.5646    872.22965    28371.273    4.8661116 
    8110    565.56176   -7974.9402    -7911.851     445.3171    28381.687    4.8528357 
    8120      565.281   -7975.1792   -7912.1213    263.27673    28393.934    4.8398832 
    8130    549.37013   -7973.6444   -7912.3614    290.86293    28407.345    4.8267145 
    8140    545.71975   -7973.4236   -7912.5477     102.6703    28421.887    4.8107982 
    8150    557.96495   -7974.9265   -7912.6847   -261.14918    28436.919    4.7926742 
    8160    562.91389   -7975.5907   -7912.7968   -400.11454    28451.253    4.7767439 
    8170    565.58607   -7975.9939   -7912.9019   -314.16611    28464.351    4.7647431 
    8180    568.23669   -7976.3908   -7913.0031   -137.63527    28476.481    4.7558134 
    8190    566.29817   -7976.2725   -7913.1011    2.1771671    28488.221    4.7485975 
    8200    559.93979   -7975.6537   -7913.1916    113.28957    28500.066    4.7425025 
    8210    553.96447   -7975.0595   -7913.2639    230.92037    28512.441    4.7385441 
    8220     556.8732   -7975.4312   -7913.3112    178.39164    28525.713    4.7365522 
    8230    557.52108   -7975.5263    -7913.334    76.973043    28539.747    4.7366189 
    8240    557.43083   -7975.5187   -7913.3365   -135.65026    28554.142    4.7394894 
    8250    570.59865     -7976.98   -7913.3288   -460.45308    28568.115    4.7424636 
    8260    581.31153   -7978.1815   -7913.3354   -524.60206    28580.614    4.7425345 
    8270    583.30352   -7978.4471   -7913.3787   -473.75191    28591.324     4.741033 
    8280    580.02151   -7978.1648   -7913.4625   -594.70257    28600.308    4.7408983 
    8290     573.1231   -7977.5018   -7913.5691   -734.20439    28607.181    4.7421086 
    8300    579.97823   -7978.3925    -7913.695   -862.75174    28611.409    4.7425725 
    8310    577.77529   -7978.2935   -7913.8418   -815.26269    28612.555    4.7436281 
    8320    566.01128   -7977.1458   -7914.0063   -627.87242     28610.76    4.7455807 
    8330    548.14745   -7975.3033   -7914.1567   -366.85688    28606.694    4.7478144 
    8340    538.11925   -7974.2884   -7914.2604   -236.35495    28601.223    4.7506389 
    8350    541.08107   -7974.6673   -7914.3089   -271.57372    28594.799    4.7551125 
    8360    545.98596   -7975.2159   -7914.3104   -184.61463    28587.406    4.7606454 
    8370    552.52337    -7975.914   -7914.2792   -3.2449534     28579.34    4.7658466 
    8380    561.35977   -7976.8499   -7914.2294    112.80595    28571.198    4.7715844 
    8390    569.08814   -7977.6646   -7914.1819    209.92667     28563.42    4.7771899 
    8400    564.98466   -7977.1723   -7914.1474    373.73365     28556.39    4.7804541 
    8410    554.45587   -7975.9674    -7914.117    504.04013     28550.67    4.7804816 
    8420    554.98082   -7975.9846   -7914.0756    529.23079    28546.719    4.7777531 
    8430    561.05288   -7976.6033    -7914.017    502.31847    28544.671    4.7745739 
    8440    573.18045   -7977.9011   -7913.9619    344.70199    28544.408    4.7723719 
    8450    574.89623   -7978.0592   -7913.9286    118.69824    28545.382    4.7712327 
    8460      570.486    -7977.561   -7913.9224   -4.7354734    28546.839    4.7702724 
    8470    566.92889    -7977.176   -7913.9342   -13.260929    28548.336    4.7706697 
[...]
   22890     552.1657   -7979.2369    -7917.642   -738.83039    28067.478    9.9098463 
   22900    566.99518   -7980.7554   -7917.5063   -772.38984    28063.785    9.9028968 
   22910    577.40441   -7981.8074   -7917.3971   -635.32409    28057.394    9.8920759 
   22920    576.37905   -7981.6266   -7917.3306   -465.64581    28048.713    9.8810461 
   22930    571.31449   -7981.0314   -7917.3004   -390.16893    28038.296    9.8710326 
   22940    570.08006   -7980.8863    -7917.293    -402.5654    28026.391    9.8625831 
   22950    570.84804   -7980.9857   -7917.3068   -462.87696    28012.939    9.8567394 
   22960    566.26479   -7980.5079   -7917.3402   -521.92853    27997.736    9.8555558 
   22970    570.66542   -7981.0498   -7917.3912    -663.7542    27980.523    9.8622041 
   22980    578.12088   -7981.9576   -7917.4673   -721.24146    27960.853    9.8763358 
   22990    574.31348   -7981.6401   -7917.5745   -718.05861    27938.455    9.8924881 
   23000    574.99894   -7981.8542   -7917.7122   -709.90071    27913.297    9.9063742 
   23010    579.24885   -7982.4981    -7917.882   -586.44955    27885.442    9.9179683 
   23020    573.63233   -7982.0755    -7918.086   -272.68755    27855.321    9.9297204 
   23030    563.95602   -7981.2155   -7918.3053    149.33089    27823.964    9.9435155 
   23040    563.66998    -7981.401   -7918.5228    565.32493    27792.814    9.9594265 
   23050     575.5115   -7982.9442   -7918.7451    775.36464    27763.248    9.9751584 
   23060    585.28755    -7984.293   -7919.0033     875.7071    27736.035    9.9888598 
   23070    582.85802    -7984.335   -7919.3163    966.89473    27711.569    10.001904 
   23080    575.73326    -7983.898   -7919.6741    946.86386    27690.137    10.013418 
   23090    578.38597   -7984.5879    -7920.068    817.49814    27671.695    10.020632 
   23100     578.5699   -7985.0306   -7920.4903    713.31658    27655.876    10.023888 
   23110    573.34768   -7984.8918    -7920.934    538.76285    27642.288    10.025736 
   23120    555.72066   -7983.3508   -7921.3594    380.86688    27630.425    10.026844 
   23130    552.71986   -7983.3983   -7921.7416    24.196366    27619.663    10.025269 
   23140    552.38163   -7983.6923   -7922.0733   -160.61875    27608.922    10.020639 
   23150     546.2783    -7983.287   -7922.3489   -139.19459    27597.558    10.017337 
   23160     545.3677   -7983.3997   -7922.5631   -219.31266    27585.522    10.019658 
   23170    551.24077    -7984.213   -7922.7212   -358.40383    27572.557    10.028627 
   23180    555.89367   -7984.8496   -7922.8388   -302.06701    27558.261    10.041759 
   23190    556.72668   -7985.0265   -7922.9228     -6.92176    27542.838    10.056494 
   23200    563.11076   -7985.8038    -7922.988    212.83876    27527.179    10.072197 
   23210    557.29184   -7985.2097    -7923.043    333.25705    27512.023    10.088147 
   23220    556.71542   -7985.1898   -7923.0873    384.11335    27497.795    10.104716 
   23230    560.71841   -7985.6678   -7923.1189    418.73986    27484.691    10.123174 
   23240    558.95146   -7985.4961   -7923.1443    591.74549    27472.876    10.142712 
   23250    556.94967   -7985.2901   -7923.1615    860.54905    27462.936    10.161125 
   23260    560.40473   -7985.6821   -7923.1682    1044.3367    27455.753    10.176502 
   23270    562.59266   -7985.9287   -7923.1707    1247.4344    27452.029    10.189467 
   23280    550.28746   -7984.5534    -7923.168    1567.4326     27452.53    10.200351 
   23290    545.94638   -7984.0498   -7923.1486    1752.4049    27458.313    10.208213 
   23300    555.65647   -7985.0897   -7923.1054    1695.5702    27470.066    10.215674 
   23310    560.69712   -7985.5951   -7923.0485    1572.9626    27487.753    10.224182 
   23320    551.98255   -7984.5564   -7922.9819    1565.5124    27511.134    10.232818 
   23330    549.55819   -7984.1984   -7922.8944    1536.4326    27540.238    10.241386 
   23340    561.10508   -7985.3705   -7922.7784    1287.3222    27574.992    10.247812 
   23350    562.89116   -7985.4334   -7922.6421    1025.8493    27614.731    10.247078 
   23360      559.721     -7984.93   -7922.4923    855.65336    27658.697    10.235721 
   23370    565.87111   -7985.4458    -7922.322    562.84246    27706.295    10.215987 
   23380    561.92207   -7984.8059   -7922.1227    123.30194    27756.558    10.193449 
   23390    552.74029   -7983.5366   -7921.8776   -401.31739    27808.021    10.175646 
   23400    564.51673   -7984.5361   -7921.5634   -1040.9702    27858.798     10.16862 
   23410    564.00411   -7984.0912   -7921.1757   -1336.8101    27906.801    10.171949 
   23420    560.67454   -7983.2733   -7920.7292    -1442.587    27950.842    10.181172 
   23430    563.90919   -7983.1143   -7920.2094   -1400.0543    27990.451    10.189997 
   23440    564.20875   -7982.5577   -7919.6194   -1256.6415    28025.679    10.190471 
   23450    565.28833   -7982.0319   -7918.9731   -1168.7452    28056.904    10.178786 
   23460     575.8747   -7982.5355   -7918.2958   -1097.1096    28084.376    10.160462 
   23470    577.97514   -7982.1127   -7917.6387   -987.56707    28108.304    10.145511 
   23480    571.91767   -7980.8513    -7917.053   -895.85607     28129.01    10.138183 
   23490    570.31558   -7980.1702   -7916.5506   -768.72259    28146.824    10.139564 
   23500    578.13612    -7980.624    -7916.132   -661.04923    28162.116    10.149496 
   23510    579.95816    -7980.499   -7915.8038   -407.52536    28175.307    10.165401 
   23520    583.14583   -7980.6178    -7915.567   -211.18892    28187.211    10.179763 
   23530    588.17023   -7981.0234   -7915.4121   -301.59818    28198.417    10.185128 
   23540    584.60565   -7980.5451   -7915.3314   -454.35979    28208.683    10.180322 
   23550    575.09369   -7979.4584   -7915.3059   -596.10486    28217.469     10.16947 
   23560    574.49173      -7979.4   -7915.3145   -648.62308    28224.287    10.159056 
   23570    573.92185   -7979.3676   -7915.3457   -580.13277    28228.925    10.155564 
   23580    579.20507   -7980.0119   -7915.4007   -599.91519    28231.528    10.161463 
   23590    587.23138   -7980.9981   -7915.4916    -666.8028    28232.019    10.174131 
   23600    584.24299   -7980.7993   -7915.6262   -591.32216    28230.187    10.189321 
   23610    589.83582   -7981.6034   -7915.8064   -635.30708    28226.159    10.203248 
   23620    587.78044    -7981.605   -7916.0372   -633.07682    28219.823    10.214815 
   23630    565.33567   -7979.3631   -7916.2991   -510.61254    28211.176    10.226222 
   23640    546.83543   -7977.5446   -7916.5443   -535.78562    28200.513     10.24098 
   23650    539.59896   -7976.9379   -7916.7448   -643.90351    28187.728    10.262493 
   23660    537.27281   -7976.8229   -7916.8893   -698.65344    28172.457    10.291417 
   23670    549.98545   -7978.3373   -7916.9856   -731.45958    28154.443    10.323775 
   23680    574.14292   -7981.1108   -7917.0643   -648.64462     28133.56    10.353649 
   23690     585.6505   -7982.4967   -7917.1665   -465.25676    28110.056    10.376028 
   23700    579.93777   -7982.0027   -7917.3098   -143.57848    28084.565      10.3889 
   23710    578.36616   -7981.9999   -7917.4822    105.03381    28058.126    10.394954 
   23720    588.56256   -7983.3434   -7917.6883    375.54844    28031.646    10.401462 
   23730    587.90214   -7983.5204   -7917.9391    826.40434    28006.148    10.417533 
   23740    585.93094   -7983.6037   -7918.2422    1014.2931    27983.081    10.443742 
   23750     585.8202   -7983.9499   -7918.6008    930.78118    27963.153    10.470775 
   23760    581.29365   -7983.8484   -7919.0043     714.4682    27946.165    10.488183 
   23770     577.1032   -7983.8099   -7919.4332    488.19319    27931.433    10.491661 
   23780    574.96079    -7984.004   -7919.8662    345.45815    27918.213    10.486693 
   23790    574.37823   -7984.3603   -7920.2875    239.39807    27906.007    10.481146 
   23800    566.26387   -7983.8483   -7920.6807     313.8023    27894.505    10.476448 
   23810    556.36117   -7983.0816   -7921.0186    401.41056    27883.919    10.471078 
   23820    553.52369   -7983.0366   -7921.2902     310.7205    27874.516    10.466747 
   23830    548.81839   -7982.7174   -7921.4958    308.38037    27866.078    10.468754 
   23840     548.8845   -7982.8699    -7921.641     434.4998    27858.634     10.48139 
   23850     554.2533   -7983.5681   -7921.7403    351.58625    27852.505    10.505959 
   23860    552.63273   -7983.4529   -7921.8059    253.59706    27847.501    10.536909 
   23870    553.13948   -7983.5478   -7921.8442    205.28153    27843.319    10.564671 
   23880    558.76044   -7984.1907   -7921.8601    257.17754    27839.817    10.583847 
   23890    563.12876   -7984.6845   -7921.8666    395.34134    27837.193    10.596317 
   23900     559.0234   -7984.2297   -7921.8698    506.31814      27835.9    10.607463 
   23910    555.53617    -7983.836   -7921.8651    629.18149    27836.371    10.624194 
   23920    552.97304   -7983.5281   -7921.8432    664.22252    27839.033    10.651526 
   23930    551.01505   -7983.2633   -7921.7968    576.63117    27844.036    10.688542 
   23940    559.79997   -7984.1755    -7921.729    274.18056    27851.077    10.728887 
   23950    566.83069   -7984.8848    -7921.654   -7.8999396    27859.229    10.766673 
   23960    565.41915   -7984.6626   -7921.5892   -120.32123    27867.569    10.799589 
   23970    566.83336   -7984.7666   -7921.5355   -107.87019    27875.687    10.826597 
   23980    577.91952    -7985.967   -7921.4992   -97.501217    27883.579    10.845967 
   23990    579.50519   -7986.1406   -7921.4959    81.429327    27891.343    10.857255 
   24000    572.23786   -7985.3659    -7921.532    306.94174    27899.564     10.86282 
   24010    564.85984   -7984.6038   -7921.5928    385.95071    27908.991    10.865014 
   24020     557.0617   -7983.7977   -7921.6567    448.93743    27919.982    10.866801 
   24030     553.8541   -7983.4947   -7921.7114    402.70232    27932.742    10.873668 
   24040    550.60276   -7983.1673   -7921.7467    231.78495    27947.135    10.888259 
   24050    549.58828   -7983.0625   -7921.7551    51.456546    27962.628     10.90581 
   24060    554.53072   -7983.5948   -7921.7361    39.476713    27978.682    10.918753 
   24070     552.1414   -7983.2854   -7921.6932     198.6257    27995.255    10.922342 
   24080    551.47601   -7983.1466   -7921.6286    284.61371    28012.838    10.916976 
   24090     552.9596   -7983.2151   -7921.5316    246.02701    28031.769    10.908765 
   24100     550.8738    -7982.849   -7921.3982     202.7875    28051.958    10.901326 
   24110    544.30393   -7981.9334   -7921.2155     173.1714    28073.286    10.893582 
   24120    545.21049   -7981.7832   -7920.9642    33.993757    28095.652    10.883366 
   24130    548.59898   -7981.8229   -7920.6259   -95.824086    28118.621    10.868483 
   24140    553.36069   -7981.9271   -7920.1989   -165.50375     28141.75    10.846812 
   24150    565.77516   -7982.8038   -7919.6907   -307.77843    28164.749    10.818356 
   24160    570.90554   -7982.8137   -7919.1283    -449.2596     28187.13     10.78582 
   24170    574.61881   -7982.6556    -7918.556   -442.89728    28208.438    10.752417 
   24180    584.89638   -7983.2543   -7918.0082   -437.63213      28228.6    10.720454 
   24190    586.48057   -7982.9424   -7917.5196   -354.46316    28247.626    10.692973 
   24200     581.7078   -7982.0058   -7917.1154   -197.43155    28265.772     10.67152 
   24210    574.17352   -7980.8374   -7916.7875   -131.94993    28283.541    10.652535 
   24220    565.01466   -7979.5434   -7916.5151   -175.79048    28301.166    10.630143 
   24230    569.42674   -7979.8004     -7916.28   -316.64661    28318.483    10.599209 
   24240    585.32068   -7981.3779   -7916.0845   -496.53456    28335.012    10.560079 
   24250    589.49721   -7981.7129   -7915.9536   -678.58652    28350.081    10.520608 
   24260    582.81142   -7980.9011   -7915.8876   -865.80181    28362.987    10.488192 
   24270    584.32374   -7981.0523   -7915.8701   -1075.9716    28372.996    10.464054 
   24280    584.39662   -7981.0932   -7915.9029   -1173.6642    28379.312    10.446156 
   24290    569.65046   -7979.5241   -7915.9787   -1115.4079    28381.524    10.431303 
   24300    561.80009   -7978.7419   -7916.0723   -1110.5957    28379.711    10.416213 
   24310    562.71843   -7978.9347   -7916.1626   -1115.8734    28373.845    10.400283 
   24320    566.32219   -7979.4292   -7916.2551   -972.44312    28363.904    10.385107 
   24330    558.73701   -7978.6794   -7916.3514   -767.72837    28350.315    10.374426 
   24340    549.89516   -7977.7755   -7916.4338   -518.55727    28333.797    10.369563 
   24350    551.91553   -7978.0469   -7916.4799   -308.47154    28315.208    10.370373 
   24360    563.95709   -7979.4087   -7916.4984   -192.97017    28295.284    10.377473 
   24370    569.07534   -7979.9913   -7916.5101   -148.59029    28274.444    10.388458 
   24380    574.15473   -7980.5824   -7916.5346   -84.423036     28252.91    10.395977 
   24390    575.76996   -7980.8134   -7916.5854   -32.947106    28230.908    10.395525 
   24400    568.15201   -7980.0424   -7916.6642    113.03276    28208.688    10.387881 
   24410    560.73734   -7979.3091    -7916.758    187.35543    28186.719    10.373121 
   24420    561.99913   -7979.5512   -7916.8594    204.20732    28165.292    10.351925 
   24430    565.46139   -7980.0462   -7916.9681     289.9116    28144.545    10.328168 
   24440    569.30141   -7980.6066   -7917.1002    266.75016    28124.721    10.305524 
   24450    568.92591   -7980.7376   -7917.2731    212.42291    28105.766    10.286042 
   24460    566.19857   -7980.6567   -7917.4964    257.69903    28087.548    10.270514 
   24470    566.22234   -7980.9444   -7917.7814     237.1926    28070.174    10.260215 
   24480    553.02881   -7979.8172    -7918.126    192.31662      28053.6    10.255857 
   24490    546.87219   -7979.5251   -7918.5207    2.0628065    28037.612    10.254746 
   24500    548.64249   -7980.1698   -7918.9679   -132.82684    28021.627    10.252364 
   24510    543.11672   -7980.0525    -7919.467   -121.74113    28005.178    10.244468 
   24520    531.87572   -7979.3132   -7919.9816   -42.130131    27988.285    10.228113 
   24530    537.44746   -7980.4396   -7920.4865   -94.259722     27971.16    10.205987 
   24540    540.46691   -7981.2594   -7920.9695   -81.923249    27953.693    10.184963 
   24550    542.80309   -7981.9681   -7921.4176    1.2299867    27935.905    10.169233 
   24560    556.03433   -7983.8582   -7921.8317    153.34995    27918.112    10.158588 
   24570    572.84605   -7986.1371   -7922.2352    279.75751    27900.802    10.150382 
   24580    574.52881   -7986.7367   -7922.6471    430.19815    27884.444     10.14209 
   24590    560.22875   -7985.5446   -7923.0502    609.56421    27869.562    10.132243 
   24600    549.72491   -7984.7306   -7923.4079     696.5476    27856.724    10.120566 
   24610    548.26571   -7984.8668    -7923.707    658.13321    27846.231    10.109038 
   24620    545.26248    -7984.766   -7923.9412    626.88876    27838.007    10.098929 
   24630    549.08775   -7985.3718   -7924.1202    577.25515    27831.924    10.089538 
   24640    541.69795   -7984.6734   -7924.2461    699.42116    27827.889    10.081568 
   24650    535.60918   -7984.0633   -7924.3153     741.6978    27826.248    10.074468 
   24660    543.32104   -7984.9384   -7924.3301    480.19441    27827.077    10.066641 
   24670    550.48557   -7985.7112   -7924.3037     198.9822    27829.587    10.058141 
   24680    549.32019   -7985.5306   -7924.2531    62.231908    27832.849    10.052881 
   24690    543.02411   -7984.7509   -7924.1758    83.005037    27836.405    10.055198 
   24700    548.25185   -7985.2271   -7924.0688   0.28335345    27840.239    10.063528 
   24710    551.61676   -7985.4694   -7923.9358   -52.459424    27844.118    10.074661 
   24720    551.70281   -7985.3323    -7923.789   -40.143424    27847.854    10.084891 
   24730    550.39395   -7985.0287   -7923.6314   0.65231614    27851.488    10.091883 
   24740    544.54138   -7984.2034    -7923.459   -21.985439    27855.141    10.095648 
   24750    538.18167      -7983.3    -7923.265    16.073897    27858.781    10.097148 
   24760       535.21   -7982.7407   -7923.0372    74.489641    27862.526    10.099226 
   24770     545.8854   -7983.6689   -7922.7745   -75.650692    27866.494    10.104301 
   24780    556.68134   -7984.5921   -7922.4935     -170.901     27870.27      10.1137 
   24790    556.75826   -7984.3286   -7922.2214   -186.63426    27873.515    10.126576 
   24800    555.06947   -7983.8867   -7921.9679   -268.57675    27876.114    10.141235 
   24810    554.00267   -7983.5301   -7921.7303   -333.83894      27877.8    10.157191 
   24820    549.69579   -7982.8222   -7921.5028    -232.4998    27878.392    10.173026 
   24830    547.04823   -7982.3021    -7921.278   -63.552242    27878.202    10.185755 
   24840    546.52066   -7982.0157   -7921.0505     112.1439    27877.796    10.193823 
   24850    547.39073    -7981.884   -7920.8218    357.80577    27877.809    10.200661 
   24860    544.49299   -7981.3314   -7920.5924     538.6001    27879.046    10.212494 
   24870    543.97923   -7981.0381   -7920.3564     430.5438    27882.083    10.232233 
   24880    558.66558   -7982.4381   -7920.1181    64.011012    27886.594    10.258072 
   24890    567.61593   -7983.2151   -7919.8967   -299.18274     27891.38     10.28695 
   24900    565.28417   -7982.7716   -7919.7133   -389.81345    27895.241    10.315175 
   24910    552.41618   -7981.1807   -7919.5578   -154.23807    27897.882    10.339988 
   24920    551.70446   -7980.9492   -7919.4058    113.07639    27900.014    10.360686 
   24930    557.99394   -7981.4908   -7919.2457    230.16113    27902.496    10.381114 
   24940    561.89607   -7981.7668   -7919.0864    210.25163    27905.753    10.405459 
   24950    566.78111   -7982.1627   -7918.9374    79.276485    27909.732    10.432782 
   24960    567.83426   -7982.1486   -7918.8058    92.675412    27914.074    10.460098 
   24970    566.06749   -7981.8383   -7918.6927    159.99907    27918.791    10.482581 
   24980    573.73895   -7982.6014      -7918.6    186.17967    27924.082     10.49703 
   24990    572.12594   -7982.3541   -7918.5326    390.35694     27930.11    10.506836 
   25000     563.4909   -7981.3504   -7918.4921    625.99538    27937.547    10.516393 
Loop time of 16135.6 on 16 procs for 20000 steps with 864 atoms

Performance: 0.107 ns/day, 224.106 hours/ns, 1.239 timesteps/s
97.8% CPU use with 16 MPI tasks x 1 OpenMP threads

MPI task timing breakdown:
Section |  min time  |  avg time  |  max time  |%varavg| %total
---------------------------------------------------------------
Pair    | 13717      | 15112      | 15732      | 431.3 | 93.65
Bond    | 0.0018852  | 0.0073723  | 0.018475   |   5.7 |  0.00
Neigh   | 0.22148    | 0.24019    | 0.25655    |   2.1 |  0.00
Comm    | 369.05     | 811.31     | 1959.3     |1556.5 |  5.03
Output  | 1.2535     | 1.2734     | 1.5574     |   6.5 |  0.01
Modify  | 9.6367     | 211        | 457.18     |1078.4 |  1.31
Other   |            | 0.1145     |            |       |  0.00

Nlocal:        54.0000 ave          60 max          45 min
Histogram: 2 0 0 0 2 1 6 1 2 2
Nghost:        414.000 ave         432 max         392 min
Histogram: 1 2 0 2 1 2 1 5 1 1
Neighs:         0.00000 ave           0 max           0 min
Histogram: 16 0 0 0 0 0 0 0 0 0
FullNghs:      1628.00 ave        1950 max        1290 min
Histogram: 2 0 0 2 4 4 0 1 2 1

Total # of neighbors = 26048
Ave neighs/atom = 30.148148
Ave special neighs/atom = 0.0000000
Neighbor list builds = 2000
Dangerous builds = 2000
unfix   3
                
Total wall time: 5:35:26
