LiKCl-CHGNET-layered-diffSpacing-GAP/0.00x-LiKCl-CHGNET-layered-diffSpacing-GAP/initial-solid.data (written by ASE) 

4096 	 atoms 
2  atom types
0.0      78.719999999999999  xlo xhi
0.0                   19.68  ylo yhi
0.0      39.359999999999999  zlo zhi


Masses

1 35.45
2 6.94


Atoms 

     1   0   2   1.0                       0                       0                       0
     2   0   2   1.0 -9.3024238315877362e-33                    2.46                    2.46
     3   0   2   1.0                    2.46                       0                    2.46
     4   0   2   1.0                    2.46                    2.46 -5.1047554667597712e-32
     5   0   1  -1.0                    2.46                       0 -2.5523777333798856e-32
     6   0   1  -1.0                    2.46                    2.46      2.4600000000000004
     7   0   1  -1.0                       0                       0                    2.46
     8   0   1  -1.0 -9.3024238315877362e-33                    2.46 -2.5523777333798856e-32
     9   0   2   1.0                       0                       0      4.9199999999999999
    10   0   2   1.0 -9.3024238315877362e-33                    2.46      7.3799999999999999
    11   0   2   1.0                    2.46                       0      7.3799999999999999
    12   0   2   1.0                    2.46                    2.46      4.9199999999999999
    13   0   1  -1.0                    2.46                       0      4.9199999999999999
    14   0   1  -1.0                    2.46                    2.46      7.3800000000000008
    15   0   1  -1.0                       0                       0      7.3799999999999999
    16   0   1  -1.0 -9.3024238315877362e-33                    2.46      4.9199999999999999
    17   0   2   1.0                       0                       0      9.8399999999999999
    18   0   2   1.0 -9.3024238315877362e-33                    2.46      12.300000000000001
    19   0   2   1.0                    2.46                       0      12.300000000000001
    20   0   2   1.0                    2.46                    2.46      9.8399999999999999
    21   0   1  -1.0                    2.46                       0      9.8399999999999999
    22   0   1  -1.0                    2.46                    2.46      12.300000000000001
    23   0   1  -1.0                       0                       0      12.300000000000001
    24   0   1  -1.0 -9.3024238315877362e-33                    2.46      9.8399999999999999
    25   0   2   1.0                       0                       0                   14.76
    26   0   2   1.0 -9.3024238315877362e-33                    2.46      17.219999999999999
    27   0   2   1.0                    2.46                       0      17.219999999999999
    28   0   2   1.0                    2.46                    2.46                   14.76
    29   0   1  -1.0                    2.46                       0                   14.76
    30   0   1  -1.0                    2.46                    2.46      17.219999999999999
    31   0   1  -1.0                       0                       0      17.219999999999999
    32   0   1  -1.0 -9.3024238315877362e-33                    2.46                   14.76
    33   0   2   1.0                       0                       0                   19.68
    34   0   2   1.0 -9.3024238315877362e-33                    2.46      22.140000000000001
    35   0   2   1.0                    2.46                       0      22.140000000000001
    36   0   2   1.0                    2.46                    2.46                   19.68
    37   0   1  -1.0                    2.46                       0                   19.68
    38   0   1  -1.0                    2.46                    2.46      22.140000000000001
    39   0   1  -1.0                       0                       0      22.140000000000001
    40   0   1  -1.0 -9.3024238315877362e-33                    2.46                   19.68
    41   0   2   1.0                       0                       0      24.600000000000001
    42   0   2   1.0 -9.3024238315877362e-33                    2.46      27.060000000000002
    43   0   2   1.0                    2.46                       0      27.060000000000002
    44   0   2   1.0                    2.46                    2.46      24.600000000000001
    45   0   1  -1.0                    2.46                       0      24.600000000000001
    46   0   1  -1.0                    2.46                    2.46      27.060000000000002
    47   0   1  -1.0                       0                       0      27.060000000000002
    48   0   1  -1.0 -9.3024238315877362e-33                    2.46      24.600000000000001
    49   0   2   1.0                       0                       0                   29.52
    50   0   2   1.0 -9.3024238315877362e-33                    2.46                   31.98
    51   0   2   1.0                    2.46                       0                   31.98
    52   0   2   1.0                    2.46                    2.46                   29.52
    53   0   1  -1.0                    2.46                       0                   29.52
    54   0   1  -1.0                    2.46                    2.46                   31.98
    55   0   1  -1.0                       0                       0                   31.98
    56   0   1  -1.0 -9.3024238315877362e-33                    2.46                   29.52
    57   0   2   1.0                       0                       0      34.439999999999998
    58   0   2   1.0 -9.3024238315877362e-33                    2.46      36.899999999999999
    59   0   2   1.0                    2.46                       0      36.899999999999999
    60   0   2   1.0                    2.46                    2.46      34.439999999999998
    61   0   1  -1.0                    2.46                       0      34.439999999999998
    62   0   1  -1.0                    2.46                    2.46      36.899999999999999
    63   0   1  -1.0                       0                       0      36.899999999999999
    64   0   1  -1.0 -9.3024238315877362e-33                    2.46      34.439999999999998
    65   0   2   1.0                       0      4.9199999999999999                       0
    66   0   2   1.0 -9.3024238315877362e-33      7.3799999999999999                    2.46
    67   0   2   1.0                    2.46      4.9199999999999999                    2.46
    68   0   2   1.0                    2.46      7.3799999999999999 -5.1047554667597712e-32
    69   0   1  -1.0                    2.46      4.9199999999999999 -2.5523777333798856e-32
    70   0   1  -1.0                    2.46      7.3799999999999999      2.4600000000000004
    71   0   1  -1.0                       0      4.9199999999999999                    2.46
    72   0   1  -1.0 -9.3024238315877362e-33      7.3799999999999999 -2.5523777333798856e-32
    73   0   2   1.0                       0      4.9199999999999999      4.9199999999999999
    74   0   2   1.0 -9.3024238315877362e-33      7.3799999999999999      7.3799999999999999
    75   0   2   1.0                    2.46      4.9199999999999999      7.3799999999999999
    76   0   2   1.0                    2.46      7.3799999999999999      4.9199999999999999
    77   0   1  -1.0                    2.46      4.9199999999999999      4.9199999999999999
    78   0   1  -1.0                    2.46      7.3799999999999999      7.3800000000000008
    79   0   1  -1.0                       0      4.9199999999999999      7.3799999999999999
    80   0   1  -1.0 -9.3024238315877362e-33      7.3799999999999999      4.9199999999999999
    81   0   2   1.0                       0      4.9199999999999999      9.8399999999999999
    82   0   2   1.0 -9.3024238315877362e-33      7.3799999999999999      12.300000000000001
    83   0   2   1.0                    2.46      4.9199999999999999      12.300000000000001
    84   0   2   1.0                    2.46      7.3799999999999999      9.8399999999999999
    85   0   1  -1.0                    2.46      4.9199999999999999      9.8399999999999999
    86   0   1  -1.0                    2.46      7.3799999999999999      12.300000000000001
    87   0   1  -1.0                       0      4.9199999999999999      12.300000000000001
    88   0   1  -1.0 -9.3024238315877362e-33      7.3799999999999999      9.8399999999999999
    89   0   2   1.0                       0      4.9199999999999999                   14.76
    90   0   2   1.0 -9.3024238315877362e-33      7.3799999999999999      17.219999999999999
    91   0   2   1.0                    2.46      4.9199999999999999      17.219999999999999
    92   0   2   1.0                    2.46      7.3799999999999999                   14.76
    93   0   1  -1.0                    2.46      4.9199999999999999                   14.76
    94   0   1  -1.0                    2.46      7.3799999999999999      17.219999999999999
    95   0   1  -1.0                       0      4.9199999999999999      17.219999999999999
    96   0   1  -1.0 -9.3024238315877362e-33      7.3799999999999999                   14.76
    97   0   2   1.0                       0      4.9199999999999999                   19.68
    98   0   2   1.0 -9.3024238315877362e-33      7.3799999999999999      22.140000000000001
    99   0   2   1.0                    2.46      4.9199999999999999      22.140000000000001
   100   0   2   1.0                    2.46      7.3799999999999999                   19.68
   101   0   1  -1.0                    2.46      4.9199999999999999                   19.68
   102   0   1  -1.0                    2.46      7.3799999999999999      22.140000000000001
   103   0   1  -1.0                       0      4.9199999999999999      22.140000000000001
   104   0   1  -1.0 -9.3024238315877362e-33      7.3799999999999999                   19.68
   105   0   2   1.0                       0      4.9199999999999999      24.600000000000001
   106   0   2   1.0 -9.3024238315877362e-33      7.3799999999999999      27.060000000000002
   107   0   2   1.0                    2.46      4.9199999999999999      27.060000000000002
   108   0   2   1.0                    2.46      7.3799999999999999      24.600000000000001
   109   0   1  -1.0                    2.46      4.9199999999999999      24.600000000000001
   110   0   1  -1.0                    2.46      7.3799999999999999      27.060000000000002
   111   0   1  -1.0                       0      4.9199999999999999      27.060000000000002
   112   0   1  -1.0 -9.3024238315877362e-33      7.3799999999999999      24.600000000000001
   113   0   2   1.0                       0      4.9199999999999999                   29.52
   114   0   2   1.0 -9.3024238315877362e-33      7.3799999999999999                   31.98
   115   0   2   1.0                    2.46      4.9199999999999999                   31.98
   116   0   2   1.0                    2.46      7.3799999999999999                   29.52
   117   0   1  -1.0                    2.46      4.9199999999999999                   29.52
   118   0   1  -1.0                    2.46      7.3799999999999999                   31.98
   119   0   1  -1.0                       0      4.9199999999999999                   31.98
   120   0   1  -1.0 -9.3024238315877362e-33      7.3799999999999999                   29.52
   121   0   2   1.0                       0      4.9199999999999999      34.439999999999998
   122   0   2   1.0 -9.3024238315877362e-33      7.3799999999999999      36.899999999999999
   123   0   2   1.0                    2.46      4.9199999999999999      36.899999999999999
   124   0   2   1.0                    2.46      7.3799999999999999      34.439999999999998
   125   0   1  -1.0                    2.46      4.9199999999999999      34.439999999999998
   126   0   1  -1.0                    2.46      7.3799999999999999      36.899999999999999
   127   0   1  -1.0                       0      4.9199999999999999      36.899999999999999
   128   0   1  -1.0 -9.3024238315877362e-33      7.3799999999999999      34.439999999999998
   129   0   2   1.0                       0      9.8399999999999999                       0
   130   0   2   1.0 -9.3024238315877362e-33      12.300000000000001                    2.46
   131   0   2   1.0                    2.46      9.8399999999999999                    2.46
   132   0   2   1.0                    2.46      12.300000000000001 -5.1047554667597712e-32
   133   0   1  -1.0                    2.46      9.8399999999999999 -2.5523777333798856e-32
   134   0   1  -1.0                    2.46      12.300000000000001      2.4600000000000004
   135   0   1  -1.0                       0      9.8399999999999999                    2.46
   136   0   1  -1.0 -9.3024238315877362e-33      12.300000000000001 -2.5523777333798856e-32
   137   0   2   1.0                       0      9.8399999999999999      4.9199999999999999
   138   0   2   1.0 -9.3024238315877362e-33      12.300000000000001      7.3799999999999999
   139   0   2   1.0                    2.46      9.8399999999999999      7.3799999999999999
   140   0   2   1.0                    2.46      12.300000000000001      4.9199999999999999
   141   0   1  -1.0                    2.46      9.8399999999999999      4.9199999999999999
   142   0   1  -1.0                    2.46      12.300000000000001      7.3800000000000008
   143   0   1  -1.0                       0      9.8399999999999999      7.3799999999999999
   144   0   1  -1.0 -9.3024238315877362e-33      12.300000000000001      4.9199999999999999
   145   0   2   1.0                       0      9.8399999999999999      9.8399999999999999
   146   0   2   1.0 -9.3024238315877362e-33      12.300000000000001      12.300000000000001
   147   0   2   1.0                    2.46      9.8399999999999999      12.300000000000001
   148   0   2   1.0                    2.46      12.300000000000001      9.8399999999999999
   149   0   1  -1.0                    2.46      9.8399999999999999      9.8399999999999999
   150   0   1  -1.0                    2.46      12.300000000000001      12.300000000000001
   151   0   1  -1.0                       0      9.8399999999999999      12.300000000000001
   152   0   1  -1.0 -9.3024238315877362e-33      12.300000000000001      9.8399999999999999
   153   0   2   1.0                       0      9.8399999999999999                   14.76
   154   0   2   1.0 -9.3024238315877362e-33      12.300000000000001      17.219999999999999
   155   0   2   1.0                    2.46      9.8399999999999999      17.219999999999999
   156   0   2   1.0                    2.46      12.300000000000001                   14.76
   157   0   1  -1.0                    2.46      9.8399999999999999                   14.76
   158   0   1  -1.0                    2.46      12.300000000000001      17.219999999999999
   159   0   1  -1.0                       0      9.8399999999999999      17.219999999999999
   160   0   1  -1.0 -9.3024238315877362e-33      12.300000000000001                   14.76
   161   0   2   1.0                       0      9.8399999999999999                   19.68
   162   0   2   1.0 -9.3024238315877362e-33      12.300000000000001      22.140000000000001
   163   0   2   1.0                    2.46      9.8399999999999999      22.140000000000001
   164   0   2   1.0                    2.46      12.300000000000001                   19.68
   165   0   1  -1.0                    2.46      9.8399999999999999                   19.68
   166   0   1  -1.0                    2.46      12.300000000000001      22.140000000000001
   167   0   1  -1.0                       0      9.8399999999999999      22.140000000000001
   168   0   1  -1.0 -9.3024238315877362e-33      12.300000000000001                   19.68
   169   0   2   1.0                       0      9.8399999999999999      24.600000000000001
   170   0   2   1.0 -9.3024238315877362e-33      12.300000000000001      27.060000000000002
   171   0   2   1.0                    2.46      9.8399999999999999      27.060000000000002
   172   0   2   1.0                    2.46      12.300000000000001      24.600000000000001
   173   0   1  -1.0                    2.46      9.8399999999999999      24.600000000000001
   174   0   1  -1.0                    2.46      12.300000000000001      27.060000000000002
   175   0   1  -1.0                       0      9.8399999999999999      27.060000000000002
   176   0   1  -1.0 -9.3024238315877362e-33      12.300000000000001      24.600000000000001
   177   0   2   1.0                       0      9.8399999999999999                   29.52
   178   0   2   1.0 -9.3024238315877362e-33      12.300000000000001                   31.98
   179   0   2   1.0                    2.46      9.8399999999999999                   31.98
   180   0   2   1.0                    2.46      12.300000000000001                   29.52
   181   0   1  -1.0                    2.46      9.8399999999999999                   29.52
   182   0   1  -1.0                    2.46      12.300000000000001                   31.98
   183   0   1  -1.0                       0      9.8399999999999999                   31.98
   184   0   1  -1.0 -9.3024238315877362e-33      12.300000000000001                   29.52
   185   0   2   1.0                       0      9.8399999999999999      34.439999999999998
   186   0   2   1.0 -9.3024238315877362e-33      12.300000000000001      36.899999999999999
   187   0   2   1.0                    2.46      9.8399999999999999      36.899999999999999
   188   0   2   1.0                    2.46      12.300000000000001      34.439999999999998
   189   0   1  -1.0                    2.46      9.8399999999999999      34.439999999999998
   190   0   1  -1.0                    2.46      12.300000000000001      36.899999999999999
   191   0   1  -1.0                       0      9.8399999999999999      36.899999999999999
   192   0   1  -1.0 -9.3024238315877362e-33      12.300000000000001      34.439999999999998
   193   0   2   1.0                       0                   14.76                       0
   194   0   2   1.0 -9.3024238315877362e-33      17.219999999999999                    2.46
   195   0   2   1.0                    2.46                   14.76                    2.46
   196   0   2   1.0                    2.46      17.219999999999999 -5.1047554667597712e-32
   197   0   1  -1.0                    2.46                   14.76 -2.5523777333798856e-32
   198   0   1  -1.0                    2.46      17.219999999999999      2.4600000000000004
   199   0   1  -1.0                       0                   14.76                    2.46
   200   0   1  -1.0 -9.3024238315877362e-33      17.219999999999999 -2.5523777333798856e-32
   201   0   2   1.0                       0                   14.76      4.9199999999999999
   202   0   2   1.0 -9.3024238315877362e-33      17.219999999999999      7.3799999999999999
   203   0   2   1.0                    2.46                   14.76      7.3799999999999999
   204   0   2   1.0                    2.46      17.219999999999999      4.9199999999999999
   205   0   1  -1.0                    2.46                   14.76      4.9199999999999999
   206   0   1  -1.0                    2.46      17.219999999999999      7.3800000000000008
   207   0   1  -1.0                       0                   14.76      7.3799999999999999
   208   0   1  -1.0 -9.3024238315877362e-33      17.219999999999999      4.9199999999999999
   209   0   2   1.0                       0                   14.76      9.8399999999999999
   210   0   2   1.0 -9.3024238315877362e-33      17.219999999999999      12.300000000000001
   211   0   2   1.0                    2.46                   14.76      12.300000000000001
   212   0   2   1.0                    2.46      17.219999999999999      9.8399999999999999
   213   0   1  -1.0                    2.46                   14.76      9.8399999999999999
   214   0   1  -1.0                    2.46      17.219999999999999      12.300000000000001
   215   0   1  -1.0                       0                   14.76      12.300000000000001
   216   0   1  -1.0 -9.3024238315877362e-33      17.219999999999999      9.8399999999999999
   217   0   2   1.0                       0                   14.76                   14.76
   218   0   2   1.0 -9.3024238315877362e-33      17.219999999999999      17.219999999999999
   219   0   2   1.0                    2.46                   14.76      17.219999999999999
   220   0   2   1.0                    2.46      17.219999999999999                   14.76
   221   0   1  -1.0                    2.46                   14.76                   14.76
   222   0   1  -1.0                    2.46      17.219999999999999      17.219999999999999
   223   0   1  -1.0                       0                   14.76      17.219999999999999
   224   0   1  -1.0 -9.3024238315877362e-33      17.219999999999999                   14.76
   225   0   2   1.0                       0                   14.76                   19.68
   226   0   2   1.0 -9.3024238315877362e-33      17.219999999999999      22.140000000000001
   227   0   2   1.0                    2.46                   14.76      22.140000000000001
   228   0   2   1.0                    2.46      17.219999999999999                   19.68
   229   0   1  -1.0                    2.46                   14.76                   19.68
   230   0   1  -1.0                    2.46      17.219999999999999      22.140000000000001
   231   0   1  -1.0                       0                   14.76      22.140000000000001
   232   0   1  -1.0 -9.3024238315877362e-33      17.219999999999999                   19.68
   233   0   2   1.0                       0                   14.76      24.600000000000001
   234   0   2   1.0 -9.3024238315877362e-33      17.219999999999999      27.060000000000002
   235   0   2   1.0                    2.46                   14.76      27.060000000000002
   236   0   2   1.0                    2.46      17.219999999999999      24.600000000000001
   237   0   1  -1.0                    2.46                   14.76      24.600000000000001
   238   0   1  -1.0                    2.46      17.219999999999999      27.060000000000002
   239   0   1  -1.0                       0                   14.76      27.060000000000002
   240   0   1  -1.0 -9.3024238315877362e-33      17.219999999999999      24.600000000000001
   241   0   2   1.0                       0                   14.76                   29.52
   242   0   2   1.0 -9.3024238315877362e-33      17.219999999999999                   31.98
   243   0   2   1.0                    2.46                   14.76                   31.98
   244   0   2   1.0                    2.46      17.219999999999999                   29.52
   245   0   1  -1.0                    2.46                   14.76                   29.52
   246   0   1  -1.0                    2.46      17.219999999999999                   31.98
   247   0   1  -1.0                       0                   14.76                   31.98
   248   0   1  -1.0 -9.3024238315877362e-33      17.219999999999999                   29.52
   249   0   2   1.0                       0                   14.76      34.439999999999998
   250   0   2   1.0 -9.3024238315877362e-33      17.219999999999999      36.899999999999999
   251   0   2   1.0                    2.46                   14.76      36.899999999999999
   252   0   2   1.0                    2.46      17.219999999999999      34.439999999999998
   253   0   1  -1.0                    2.46                   14.76      34.439999999999998
   254   0   1  -1.0                    2.46      17.219999999999999      36.899999999999999
   255   0   1  -1.0                       0                   14.76      36.899999999999999
   256   0   1  -1.0 -9.3024238315877362e-33      17.219999999999999      34.439999999999998
   257   0   2   1.0      4.9199999999999999                       0                       0
   258   0   2   1.0      4.9199999999999999                    2.46                    2.46
   259   0   2   1.0      7.3799999999999999                       0                    2.46
   260   0   2   1.0      7.3799999999999999                    2.46 -5.1047554667597712e-32
   261   0   1  -1.0      7.3799999999999999                       0 -2.5523777333798856e-32
   262   0   1  -1.0      7.3799999999999999                    2.46      2.4600000000000004
   263   0   1  -1.0      4.9199999999999999                       0                    2.46
   264   0   1  -1.0      4.9199999999999999                    2.46 -2.5523777333798856e-32
   265   0   2   1.0      4.9199999999999999                       0      4.9199999999999999
   266   0   2   1.0      4.9199999999999999                    2.46      7.3799999999999999
   267   0   2   1.0      7.3799999999999999                       0      7.3799999999999999
   268   0   2   1.0      7.3799999999999999                    2.46      4.9199999999999999
   269   0   1  -1.0      7.3799999999999999                       0      4.9199999999999999
   270   0   1  -1.0      7.3799999999999999                    2.46      7.3800000000000008
   271   0   1  -1.0      4.9199999999999999                       0      7.3799999999999999
   272   0   1  -1.0      4.9199999999999999                    2.46      4.9199999999999999
   273   0   2   1.0      4.9199999999999999                       0      9.8399999999999999
   274   0   2   1.0      4.9199999999999999                    2.46      12.300000000000001
   275   0   2   1.0      7.3799999999999999                       0      12.300000000000001
   276   0   2   1.0      7.3799999999999999                    2.46      9.8399999999999999
   277   0   1  -1.0      7.3799999999999999                       0      9.8399999999999999
   278   0   1  -1.0      7.3799999999999999                    2.46      12.300000000000001
   279   0   1  -1.0      4.9199999999999999                       0      12.300000000000001
   280   0   1  -1.0      4.9199999999999999                    2.46      9.8399999999999999
   281   0   2   1.0      4.9199999999999999                       0                   14.76
   282   0   2   1.0      4.9199999999999999                    2.46      17.219999999999999
   283   0   2   1.0      7.3799999999999999                       0      17.219999999999999
   284   0   2   1.0      7.3799999999999999                    2.46                   14.76
   285   0   1  -1.0      7.3799999999999999                       0                   14.76
   286   0   1  -1.0      7.3799999999999999                    2.46      17.219999999999999
   287   0   1  -1.0      4.9199999999999999                       0      17.219999999999999
   288   0   1  -1.0      4.9199999999999999                    2.46                   14.76
   289   0   2   1.0      4.9199999999999999                       0                   19.68
   290   0   2   1.0      4.9199999999999999                    2.46      22.140000000000001
   291   0   2   1.0      7.3799999999999999                       0      22.140000000000001
   292   0   2   1.0      7.3799999999999999                    2.46                   19.68
   293   0   1  -1.0      7.3799999999999999                       0                   19.68
   294   0   1  -1.0      7.3799999999999999                    2.46      22.140000000000001
   295   0   1  -1.0      4.9199999999999999                       0      22.140000000000001
   296   0   1  -1.0      4.9199999999999999                    2.46                   19.68
   297   0   2   1.0      4.9199999999999999                       0      24.600000000000001
   298   0   2   1.0      4.9199999999999999                    2.46      27.060000000000002
   299   0   2   1.0      7.3799999999999999                       0      27.060000000000002
   300   0   2   1.0      7.3799999999999999                    2.46      24.600000000000001
   301   0   1  -1.0      7.3799999999999999                       0      24.600000000000001
   302   0   1  -1.0      7.3799999999999999                    2.46      27.060000000000002
   303   0   1  -1.0      4.9199999999999999                       0      27.060000000000002
   304   0   1  -1.0      4.9199999999999999                    2.46      24.600000000000001
   305   0   2   1.0      4.9199999999999999                       0                   29.52
   306   0   2   1.0      4.9199999999999999                    2.46                   31.98
   307   0   2   1.0      7.3799999999999999                       0                   31.98
   308   0   2   1.0      7.3799999999999999                    2.46                   29.52
   309   0   1  -1.0      7.3799999999999999                       0                   29.52
   310   0   1  -1.0      7.3799999999999999                    2.46                   31.98
   311   0   1  -1.0      4.9199999999999999                       0                   31.98
   312   0   1  -1.0      4.9199999999999999                    2.46                   29.52
   313   0   2   1.0      4.9199999999999999                       0      34.439999999999998
   314   0   2   1.0      4.9199999999999999                    2.46      36.899999999999999
   315   0   2   1.0      7.3799999999999999                       0      36.899999999999999
   316   0   2   1.0      7.3799999999999999                    2.46      34.439999999999998
   317   0   1  -1.0      7.3799999999999999                       0      34.439999999999998
   318   0   1  -1.0      7.3799999999999999                    2.46      36.899999999999999
   319   0   1  -1.0      4.9199999999999999                       0      36.899999999999999