LAMMPS (29 Sep 2021 - Update 3)
OMP_NUM_THREADS environment is not set. Defaulting to 1 thread. (src/comm.cpp:98)
  using 1 OpenMP thread(s) per MPI task
units	metal
atom_style	full

read_data	mixed.data
Reading data file ...
  orthogonal box = (0.0000000 0.0000000 0.0000000) to (15.969932 15.719106 81.083077)
  2 by 1 by 8 MPI processor grid
  reading atoms ...
  864 atoms
Finding 1-2 1-3 1-4 neighbors ...
  special bond factors lj:    0        0        0       
  special bond factors coul:  0        0        0       
     0 = max # of 1-2 neighbors
     0 = max # of 1-3 neighbors
     0 = max # of 1-4 neighbors
     1 = max # of special neighbors
  special bonds CPU = 0.005 seconds
  read_data CPU = 0.101 seconds

pair_style	quip
pair_coeff	* * /ocean/projects/cts180021p/wuziqi/clease/mint-PD/PhaseDiagram-Clease/Liquid/GAP_potential/gap_LiKCl.xml "Potential xml_label=GAP_2021_9_27_0_1_17_37_618" 17 19 3

neighbor	0.3 bin
neigh_modify	delay 10

timestep	0.001
compute	msd all msd
thermo_style	custom step temp pe etotal press vol c_msd[4]
thermo	10
dump	1 all custom 10 xyz-mix.dump type id x y z
dump	2 all custom 10 force-mix.dump type id fx fy fz

fix     1 all nve
run     2000
Neighbor list info ...
  update every 1 steps, delay 10 steps, check yes
  max neighbors/atom: 2000, page size: 100000
  master list distance cutoff = 6.22
  ghost atom cutoff = 6.22
  binsize = 3.11, bins = 6 6 27
  1 neighbor lists, perpetual/occasional/extra = 1 0 0
  (1) pair quip, perpetual
      attributes: full, newton on
      pair build: full/bin
      stencil: full/bin/3d
      bin: standard
Per MPI rank memory allocation (min/avg/max) = 8.888 | 8.903 | 8.913 Mbytes
Step Temp PotEng TotEng Press Volume c_msd[4] 
       0            0   -6930.8241   -6930.8241   -4495.9065    20354.533            0 
      10    65.904237   -6938.1841   -6930.8324   -5379.5912    20354.533 0.0005000384 
      20    168.73131   -6949.6632    -6930.841   -6364.5261    20354.533 0.0061479459 
      30    200.57733   -6953.2127    -6930.838   -5696.6671    20354.533  0.020662009 
      40    199.55606   -6953.0935   -6930.8327   -4580.1506    20354.533   0.03833664 
      50    226.88579   -6956.1474   -6930.8379   -4419.7801    20354.533  0.051806208 
      60    238.47957   -6957.4392   -6930.8365   -4645.7272    20354.533  0.061424452 
      70    236.06355   -6957.1692   -6930.8359    -4807.043    20354.533  0.069853138 
      80    232.99362   -6956.8259   -6930.8351    -5036.908    20354.533  0.079308594 
      90    234.23747   -6956.9654   -6930.8358   -5260.6038    20354.533  0.090830495 
     100    232.00556   -6956.7159   -6930.8353   -5208.0306    20354.533   0.10432197 
     110    232.79067   -6956.8033   -6930.8352   -5031.3164    20354.533   0.11840709 
     120    238.30149    -6957.419   -6930.8361   -4942.2097    20354.533   0.13201584 
     130    238.74514   -6957.4687   -6930.8363   -4988.8033    20354.533   0.14538478 
     140    232.54984   -6956.7771   -6930.8358   -4942.4536    20354.533   0.15867927 
     150    225.40044   -6955.9792   -6930.8355   -4787.8719    20354.533   0.17110203 
     160    224.38726   -6955.8659   -6930.8352   -4620.0724    20354.533    0.1817825 
     170    231.86358   -6956.7009   -6930.8362   -4442.3359    20354.533   0.19072597 
     180    237.58036   -6957.3391   -6930.8366   -4192.2572    20354.533   0.19889867 
     190    235.69365   -6957.1279    -6930.836   -3927.7806    20354.533   0.20710191 
     200    234.44619   -6956.9885   -6930.8356   -3773.8119    20354.533   0.21513007 
     210    236.73114   -6957.2437    -6930.836   -3777.5502    20354.533   0.22305549 
     220    238.14425   -6957.4012   -6930.8359   -3899.9101    20354.533    0.2315521 
     230     238.4388   -6957.4341   -6930.8359   -4006.5782    20354.533   0.24098695 
     240    239.23886    -6957.523   -6930.8356   -3984.7528    20354.533   0.25141959 
     250     242.0724   -6957.8401   -6930.8366   -3793.3442    20354.533   0.26265129 
     260       239.05   -6957.5024    -6930.836   -3540.3897    20354.533   0.27417391 
     270    235.84511    -6957.145   -6930.8361   -3272.6541    20354.533   0.28493922 
     280    231.62838   -6956.6748   -6930.8363   -2948.2435    20354.533   0.29437431 
     290    226.51317   -6956.1028    -6930.835   -2633.8875    20354.533   0.30220439 
     300    232.88912   -6956.8151    -6930.836   -2478.1682    20354.533   0.30835486 
     310    239.65399   -6957.5709   -6930.8371   -2317.7128    20354.533   0.31386348 
     320    236.98534   -6957.2718   -6930.8357   -2020.1819    20354.533   0.31985126 
     330    235.73864   -6957.1329   -6930.8359   -1957.4113    20354.533   0.32664959 
     340    236.09186   -6957.1723   -6930.8359   -2003.6376    20354.533   0.33435107 
     350    237.19352   -6957.2955   -6930.8363   -2145.8328    20354.533   0.34289663 
     360     235.6501   -6957.1226   -6930.8355   -2186.0282    20354.533   0.35153924 
     370      237.245   -6957.3009   -6930.8359   -2246.4379    20354.533   0.35886165 
     380     239.0727   -6957.5047   -6930.8358   -2396.5837    20354.533   0.36451066 
     390    241.64207   -6957.7913   -6930.8358   -2701.0958    20354.533   0.36907283 
     400    244.68963   -6958.1321   -6930.8366    -3058.184    20354.533   0.37340775 
     410    240.84575   -6957.7024   -6930.8357   -3233.9135    20354.533   0.37836011 
     420    237.91038    -6957.375   -6930.8357   -3296.1667    20354.533    0.3837999 
     430    237.53548   -6957.3335    -6930.836     -3297.92    20354.533   0.38923076 
     440    236.65311   -6957.2351   -6930.8361   -3132.9159    20354.533   0.39408345 
     450    236.54722   -6957.2227   -6930.8355   -2838.3736    20354.533   0.39819744 
     460    240.22636   -6957.6339   -6930.8363   -2750.9298    20354.533   0.40204023 
     470    240.52465   -6957.6669    -6930.836   -2995.4918    20354.533   0.40599969 
     480    237.66852   -6957.3482   -6930.8359   -3342.9489    20354.533   0.40967234 
     490     233.8587   -6956.9231   -6930.8358   -3484.3142    20354.533   0.41268728 
     500    232.08796   -6956.7258   -6930.8361   -3205.4816    20354.533   0.41521326 
     510    230.70203   -6956.5715   -6930.8364   -2716.5526    20354.533   0.41731564 
     520    228.05602   -6956.2759   -6930.8359   -2363.5724    20354.533   0.41870774 
     530    227.97164    -6956.267   -6930.8365   -2215.6832    20354.533   0.41939371 
     540    224.82248   -6955.9152   -6930.8359   -2142.5726    20354.533   0.41965215 
     550    224.12424   -6955.8368   -6930.8354   -2230.4398    20354.533   0.41896539 
     560    230.14975   -6956.5094   -6930.8358   -2549.6413    20354.533   0.41694428 
     570    236.18881   -6957.1833   -6930.8361   -2919.3179    20354.533   0.41431605 
     580    239.11248   -6957.5092   -6930.8358   -3311.7801    20354.533   0.41218239 
     590    240.41038    -6957.654   -6930.8359   -3417.9605    20354.533   0.41128732 
     600     241.9108   -6957.8213   -6930.8358   -3319.9933    20354.533   0.41181297 
     610    244.71998   -6958.1355   -6930.8366   -3218.6172    20354.533   0.41378595 
     620     241.0794   -6957.7291   -6930.8363   -3147.9995    20354.533   0.41727735 
     630    235.50013   -6957.1059   -6930.8355   -3135.0665    20354.533   0.42154918 
     640    235.11112   -6957.0634   -6930.8364   -3257.6948    20354.533   0.42544554 
     650    231.17765   -6956.6238   -6930.8356   -3363.2824    20354.533   0.42831027 
     660    230.96587      -6956.6   -6930.8354    -3278.616    20354.533   0.42962018 
     670    236.71051   -6957.2418   -6930.8364   -3057.6575    20354.533   0.43008462 
     680    237.89077   -6957.3735   -6930.8365   -2729.6334    20354.533   0.43147958 
     690    233.77068   -6956.9134    -6930.836   -2455.8007    20354.533   0.43467882 
     700    232.73214   -6956.7972   -6930.8356   -2458.1317    20354.533   0.43896836 
     710     238.6713   -6957.4612    -6930.837     -2772.14    20354.533   0.44306523 
     720    238.40713   -6957.4307    -6930.836    -2807.083    20354.533   0.44626276 
     730     240.4682   -6957.6606    -6930.836   -2649.5036    20354.533   0.44805059 
     740    245.36669   -6958.2082   -6930.8372   -2598.8991    20354.533   0.44927166 
     750    241.62154   -6957.7892    -6930.836   -2531.0184    20354.533   0.45180545 
     760    240.83361   -6957.7015   -6930.8361   -2663.8574    20354.533   0.45609454 
     770    242.81641   -6957.9232   -6930.8366   -2904.7405    20354.533   0.46149917 
     780    240.55873   -6957.6716   -6930.8369   -3011.4883    20354.533   0.46731331 
     790    234.48344    -6956.992    -6930.835   -2984.9723    20354.533   0.47270083 
     800    241.36903   -6957.7616   -6930.8365   -3043.6074    20354.533   0.47702973 
     810    248.02611   -6958.5044   -6930.8367   -3212.7271    20354.533   0.48113406 
     820    247.07524   -6958.3983   -6930.8367   -3298.0857    20354.533   0.48604281 
     830    241.62282   -6957.7892   -6930.8358   -3451.0521    20354.533   0.49200069 
     840    241.09937   -6957.7309   -6930.8359   -3767.5583    20354.533    0.4980224 
     850    243.86884   -6958.0407   -6930.8367   -3969.0277    20354.533   0.50315689 
     860    240.67295   -6957.6839   -6930.8364   -3878.9651    20354.533   0.50749313 
     870    234.88256   -6957.0377   -6930.8362   -3705.4216    20354.533   0.51123394 
     880     230.9712   -6956.6008   -6930.8356   -3732.8653    20354.533   0.51418617 
     890    234.71187   -6957.0191   -6930.8366   -3903.3458    20354.533   0.51649556 
     900    236.69755   -6957.2408   -6930.8368   -4096.5729    20354.533   0.51925856 
     910    234.14135   -6956.9543   -6930.8355   -4214.9524    20354.533   0.52270274 
     920     239.2214   -6957.5215    -6930.836    -4371.806    20354.533    0.5260843 
     930    246.23434   -6958.3046   -6930.8368   -4388.3174    20354.533   0.52947161 
     940    244.93011   -6958.1585   -6930.8361    -4140.633    20354.533    0.5331014 
     950    244.54566   -6958.1146   -6930.8351   -3874.4856    20354.533   0.53608506 
     960     253.5944   -6959.1267   -6930.8378   -3771.8165    20354.533   0.53803089 
     970     248.3829   -6958.5442   -6930.8367   -3524.3442    20354.533   0.53986141 
     980    238.35135   -6957.4243   -6930.8358   -3260.4338    20354.533   0.54101785 
     990    236.50322   -6957.2181   -6930.8358   -3175.8957    20354.533   0.54134372 
    1000    241.19481   -6957.7423   -6930.8367   -3304.4267    20354.533   0.54225539 
    1010    241.95562   -6957.8272   -6930.8367   -3391.2596    20354.533   0.54502288 
    1020    240.16869   -6957.6269   -6930.8357   -3447.0496    20354.533   0.54930268 
    1030    245.53617   -6958.2267   -6930.8368   -3456.4918    20354.533   0.55419445 
    1040    247.77076    -6958.476   -6930.8368   -3298.5887    20354.533   0.55950896 
    1050     244.2442   -6958.0816   -6930.8358   -3136.4369    20354.533   0.56417367 
    1060    244.98518   -6958.1647   -6930.8363    -3248.508    20354.533   0.56688242 
    1070    245.91228   -6958.2687   -6930.8368   -3519.1406    20354.533   0.56812185 
    1080    243.86214    -6958.039   -6930.8358   -3692.2455    20354.533   0.56934968 
    1090    246.84293   -6958.3726   -6930.8369   -3906.5524    20354.533   0.57178329 
    1100      244.881   -6958.1533   -6930.8365   -4089.2355    20354.533   0.57651628 
    1110    240.43499   -6957.6569    -6930.836   -4077.0823    20354.533    0.5832495 
    1120    237.92872   -6957.3775   -6930.8362   -4003.4461    20354.533   0.59023617 
    1130    236.51172   -6957.2189   -6930.8357   -4042.4172    20354.533   0.59550452 
    1140    238.96444   -6957.4936   -6930.8368   -4040.0227    20354.533   0.59831056 
    1150    235.78148   -6957.1379   -6930.8361   -3879.2914    20354.533   0.59921996 
    1160    234.20341   -6956.9615   -6930.8358   -3837.8249    20354.533    0.5985221 
    1170    240.41902   -6957.6544   -6930.8353    -3935.141    20354.533   0.59722217 
    1180    255.54411   -6959.3435   -6930.8372     -4092.55    20354.533   0.59743217 
    1190    258.99242   -6959.7285   -6930.8375   -4046.2257    20354.533    0.6011544 
    1200    248.88394   -6958.5986   -6930.8352   -3714.2841    20354.533   0.60762836 
    1210    248.47025   -6958.5542    -6930.837   -3470.6197    20354.533   0.61448368 
    1220    244.95446   -6958.1613   -6930.8363   -3177.7538    20354.533   0.62050251 
    1230     241.8534   -6957.8153   -6930.8362   -3046.6572    20354.533   0.62473384 
    1240    239.93171   -6957.6017    -6930.837   -2953.8402    20354.533   0.62763822 
    1250    233.26136   -6956.8559   -6930.8352   -2777.3686    20354.533   0.63038166 
    1260    237.93988   -6957.3787   -6930.8361   -2775.1391    20354.533    0.6330371 
    1270    246.35675   -6958.3182   -6930.8368   -2888.4422    20354.533   0.63643977 
    1280    248.45813   -6958.5525   -6930.8366   -2920.0425    20354.533   0.64183599 
    1290    245.47675   -6958.2198   -6930.8365   -2685.1116    20354.533   0.64908358 
    1300    241.63357   -6957.7906    -6930.836   -2354.7632    20354.533   0.65669456 
    1310    242.43427   -6957.8804   -6930.8365   -2080.8148    20354.533   0.66291632 
    1320    245.28186   -6958.1979   -6930.8364   -1915.3295    20354.533    0.6669735 
    1330    248.60459   -6958.5691   -6930.8369   -2012.6907    20354.533   0.66938419 
    1340    247.35187   -6958.4291   -6930.8367   -2148.5782    20354.533   0.67162517 
    1350    244.12194   -6958.0683   -6930.8361   -1975.6824    20354.533   0.67460298 
    1360    246.17117   -6958.2975   -6930.8367   -1695.7314    20354.533   0.67795806 
    1370    247.81913   -6958.4815   -6930.8369   -1406.6961    20354.533   0.68155459 
    1380    246.54204   -6958.3387   -6930.8366   -1365.9532    20354.533   0.68550067 
    1390    245.37096   -6958.2083   -6930.8368   -1609.7263    20354.533   0.68946972 
    1400    243.36629   -6957.9841   -6930.8362   -2040.6718    20354.533   0.69316197 
    1410    243.94371   -6958.0489   -6930.8367    -2492.182    20354.533   0.69632692 
    1420    241.91407   -6957.8222   -6930.8364   -2641.5513    20354.533   0.69908731 
    1430    240.29252    -6957.641   -6930.8361   -2738.6597    20354.533   0.70169952 
    1440    243.00906   -6957.9446   -6930.8366   -2920.7186    20354.533   0.70454594 
    1450    244.25454   -6958.0838   -6930.8369   -3048.4377    20354.533   0.70795341 
    1460    242.09952    -6957.843   -6930.8364   -2976.5792    20354.533   0.71130224 
    1470    243.45842   -6957.9943   -6930.8362   -3081.8274    20354.533    0.7132231 
    1480    250.70065   -6958.8033   -6930.8373   -3338.8349    20354.533   0.71370178 
    1490    252.18388   -6958.9685    -6930.837   -3376.1382    20354.533    0.7144344 
    1500    251.43885   -6958.8853   -6930.8369   -3315.8008    20354.533   0.71637247 
    1510    251.24938    -6958.864   -6930.8368   -3301.7557    20354.533   0.71942223 
    1520    249.70733   -6958.6922    -6930.837   -3282.0336    20354.533   0.72323431 
    1530    244.44696   -6958.1054    -6930.837   -3302.2244    20354.533   0.72763008 
    1540    236.75683   -6957.2464   -6930.8358   -3274.9713    20354.533    0.7323608 
    1550    237.57971   -6957.3389   -6930.8365   -3428.4116    20354.533   0.73683196 
    1560    241.15015   -6957.7371   -6930.8364   -3593.4236    20354.533   0.74115804 
    1570    245.97302   -6958.2754   -6930.8368   -3733.6516    20354.533   0.74547586 
    1580    248.38573   -6958.5448    -6930.837   -3697.1233    20354.533   0.74963233 
    1590    246.86432   -6958.3746   -6930.8366   -3466.8015    20354.533   0.75351214 
    1600     247.7118   -6958.4687    -6930.836   -3388.9239    20354.533   0.75677589 
    1610    253.82537   -6959.1519   -6930.8373    -3531.034    20354.533   0.75955216 
    1620    251.92871   -6958.9401   -6930.8371   -3648.0728    20354.533   0.76294914 
    1630    244.66821   -6958.1291    -6930.836   -3657.5504    20354.533   0.76703359 
    1640    244.28177   -6958.0866   -6930.8366   -3671.0399    20354.533   0.77099433 
    1650    244.83575   -6958.1483   -6930.8365   -3788.3144    20354.533   0.77508445 
    1660    246.40424   -6958.3232   -6930.8364    -3813.853    20354.533   0.77989624 
    1670     250.2724    -6958.755   -6930.8367   -3565.9239    20354.533   0.78529205 
    1680    252.16532   -6958.9666   -6930.8372   -3320.4462    20354.533   0.79034429 
    1690    248.06278   -6958.5083   -6930.8366    -3241.467    20354.533   0.79410211 
    1700    246.18953   -6958.2989   -6930.8361   -3435.3007    20354.533   0.79613512 
    1710    251.37963   -6958.8788   -6930.8371   -3765.1983    20354.533   0.79697816 
    1720    252.49637   -6959.0036   -6930.8373   -4015.6546    20354.533   0.79809077 
    1730    246.19105   -6958.2991   -6930.8361   -4012.8085    20354.533   0.80001418 
    1740    244.72061   -6958.1349   -6930.8359   -3836.2711    20354.533   0.80174398 
    1750    250.77886   -6958.8116   -6930.8368   -3664.5304    20354.533   0.80300604 
    1760    253.23106   -6959.0851   -6930.8368   -3574.9487    20354.533   0.80474848 
    1770     250.9182   -6958.8268   -6930.8365   -3643.0638    20354.533   0.80759401 
    1780    248.19059    -6958.522   -6930.8359    -3925.933    20354.533   0.81194222 
    1790    251.50586   -6958.8923   -6930.8365   -4358.7518    20354.533   0.81788965 
    1800    254.74644   -6959.2547   -6930.8373   -4555.0094    20354.533   0.82537267 
    1810    250.83969   -6958.8178   -6930.8362   -4276.5786    20354.533   0.83331392 
    1820     251.8855   -6958.9345   -6930.8362   -4012.9598    20354.533   0.83972246 
    1830      255.594   -6959.3496   -6930.8377   -3901.3718    20354.533   0.84445553 
    1840    246.70995   -6958.3569   -6930.8361   -3626.6691    20354.533   0.84851616 
    1850    241.86654   -6957.8157   -6930.8351   -3456.7016    20354.533   0.85180041 
    1860    250.43531   -6958.7737   -6930.8372    -3514.864    20354.533    0.8548436 
    1870    251.67809   -6958.9117   -6930.8366    -3317.435    20354.533   0.85904271 
    1880    249.74232   -6958.6953   -6930.8361   -2814.4162    20354.533   0.86408884 
    1890    251.03758   -6958.8407    -6930.837   -2598.2462    20354.533   0.86903478 
    1900    247.47063   -6958.4421   -6930.8364   -2762.2368    20354.533   0.87371783 
    1910    246.41436   -6958.3238   -6930.8359   -3170.3298    20354.533   0.87809892 
    1920    252.32808   -6958.9847   -6930.8371   -3481.0709    20354.533    0.8826292 
    1930    251.70282   -6958.9148    -6930.837   -3522.0143    20354.533   0.88826081 
    1940    246.41342   -6958.3234   -6930.8356   -3409.4835    20354.533   0.89502972 
    1950     251.5574   -6958.8983   -6930.8367   -3383.3627    20354.533   0.90192896 
    1960    256.70331    -6959.473   -6930.8374   -3284.7665    20354.533   0.90797257 
    1970    251.99325   -6958.9465   -6930.8363   -3170.8424    20354.533   0.91214044 
    1980    249.36931   -6958.6536    -6930.836    -3268.664    20354.533   0.91382089 
    1990    253.19383   -6959.0808   -6930.8367   -3484.4565    20354.533   0.91429439 
    2000    255.75062   -6959.3664    -6930.837   -3645.8324    20354.533   0.91593526 
Loop time of 1251.06 on 16 procs for 2000 steps with 864 atoms

Performance: 0.138 ns/day, 173.759 hours/ns, 1.599 timesteps/s
97.5% CPU use with 16 MPI tasks x 1 OpenMP threads

MPI task timing breakdown:
Section |  min time  |  avg time  |  max time  |%varavg| %total
---------------------------------------------------------------
Pair    | 541.25     | 982.27     | 1243.5     | 594.4 | 78.52
Bond    | 0.00014639 | 0.0004548  | 0.0019643  |   0.0 |  0.00
Neigh   | 0.018001   | 0.028073   | 0.036519   |   3.5 |  0.00
Comm    | 7.2891     | 250.32     | 667.92     |1136.0 | 20.01
Output  | 0.13248    | 9.2338     | 20.932     | 266.7 |  0.74
Modify  | 0.007957   | 0.0091458  | 0.010395   |   0.7 |  0.00
Other   |            | 9.192      |            |       |  0.73

Nlocal:        54.0000 ave          71 max          39 min
Histogram: 3 2 1 1 0 4 1 0 3 1
Nghost:        497.125 ave         591 max         387 min
Histogram: 1 2 1 1 1 3 2 1 2 2
Neighs:         0.00000 ave           0 max           0 min
Histogram: 16 0 0 0 0 0 0 0 0 0
FullNghs:      2382.00 ave        3956 max        1259 min
Histogram: 3 2 2 0 2 3 1 1 1 1

Total # of neighbors = 38112
Ave neighs/atom = 44.111111
Ave special neighs/atom = 0.0000000
Neighbor list builds = 199
Dangerous builds = 198
unfix   1

velocity    all create 1200.0 1312343 dist gaussian
fix     2 all npt temp 1200.0 1200.0 $(100.0*dt) aniso 0.0 1.01325 $(1000.0*dt)
fix     2 all npt temp 1200.0 1200.0 0.10000000000000000555 aniso 0.0 1.01325 $(1000.0*dt)
fix     2 all npt temp 1200.0 1200.0 0.10000000000000000555 aniso 0.0 1.01325 1
run     3000
Per MPI rank memory allocation (min/avg/max) = 8.897 | 8.905 | 8.914 Mbytes
Step Temp PotEng TotEng Press Volume c_msd[4] 
    2000         1200   -6959.3664   -6825.5046    1881.5575    20354.533   0.91593526 
    2010    1040.1515   -6941.4868   -6825.4563    5042.2674    20355.609   0.93461871 
    2020     806.7964   -6915.1675   -6825.1682    9179.2086    20361.131   0.96887598 
    2030    731.27339   -6906.0514   -6824.4768    9910.9194    20374.362   0.99856756 
    2040    698.96766   -6901.2759    -6823.305    9168.3361    20396.141    1.0228518 
    2050    671.97191   -6896.8636   -6821.9041     8215.947    20425.953    1.0463706 
    2060    664.62172   -6894.7398   -6820.6002    7198.8333    20463.001    1.0702824 
    2070    706.44951   -6898.2291   -6819.4236    6293.3378    20506.428    1.0951929 
    2080      719.524   -6898.4762   -6818.2122    6116.1739    20555.499    1.1241401 
    2090    706.11449   -6895.6833   -6816.9152    5858.5214    20609.952    1.1557359 
    2100     719.7068   -6895.7296   -6815.4452    4608.8111    20669.421    1.1861232 
    2110    736.24478   -6895.8788   -6813.7496    2900.1932    20732.732    1.2149498 
    2120    727.11598   -6893.0229    -6811.912    1551.0198    20798.278    1.2430977 
    2130    731.58576   -6891.6091   -6809.9996    427.78881    20864.651    1.2709018 
    2140    741.93507   -6890.7536   -6807.9896   -172.98834    20930.689    1.3006043 
    2150    728.21173    -6887.172   -6805.9388   -241.06201    20995.665    1.3338781 
    2160    719.21345   -6884.1161   -6803.8867   -145.09452    21059.332    1.3683193 
    2170    737.72686   -6884.0702   -6801.7757   -309.71698    21121.605    1.4018325 
    2180    765.00734   -6884.8982   -6799.5605   -344.89584    21182.246    1.4364792 
    2190    788.47839   -6885.2333   -6797.2774   -77.162158     21241.13    1.4744865 
    2200    790.80373   -6883.1786   -6794.9632    203.93328    21298.395     1.515575 
    2210    782.32322   -6879.9327   -6792.6634    148.72921     21354.21    1.5559302 
    2220    792.39636   -6878.7208   -6790.3278   -444.78285    21408.448    1.5919399 
    2230    812.43441    -6878.536   -6787.9077   -1141.0001    21460.551    1.6245012 
    2240    834.55793   -6878.5036   -6785.4074    -2020.424    21509.821    1.6563649 
    2250    844.49686   -6877.0562   -6782.8513   -2581.1369    21555.505    1.6888482 
    2260    852.53937   -6875.3824   -6780.2803   -2527.7205    21597.167    1.7218331 
    2270     876.0099   -6875.4008   -6777.6806   -2104.4726    21634.931    1.7551566 
    2280    875.43799   -6872.7286   -6775.0722   -1439.8902     21669.31    1.7891101 
    2290    872.42725   -6869.8205   -6772.4999    -1191.126    21700.995    1.8226859 
    2300    872.30031   -6867.2224    -6769.916   -1283.7794     21730.33    1.8550847 
    2310    882.12973    -6865.723   -6767.3201   -1557.2754    21757.314    1.8864056 
    2320    890.78392   -6864.0523    -6764.684   -1468.4539    21781.825    1.9160657 
    2330    883.94321   -6860.6719   -6762.0667    -1155.535    21804.051    1.9436726 
    2340    901.74428   -6860.0207   -6759.4298   -1615.4787     21824.28    1.9710691 
    2350    916.89121   -6859.0209   -6756.7403   -1840.3642    21842.243     2.001846 
    2360    903.11004   -6854.8066   -6754.0633   -1894.2998    21857.797    2.0356769 
    2370    930.34802    -6855.173   -6751.3912   -2791.7628    21870.894    2.0674518 
    2380    976.99713   -6857.6047   -6748.6192   -4021.2408    21880.783     2.095321 
    2390    968.73164   -6853.9199   -6745.8564   -3838.5262    21886.525    2.1220644 
    2400    958.69887   -6850.1328   -6743.1885   -3047.5746    21888.361    2.1472373 
    2410    1002.2618   -6852.2892   -6740.4854   -2945.9444    21887.058    2.1697685 
    2420    1013.6898   -6850.8288   -6737.7501   -2428.3588    21882.929    2.1943129 
    2430    987.36521   -6845.2349   -6735.0928   -1680.6804    21876.526    2.2215886 
    2440     973.6115   -6841.1023   -6732.4945   -1078.3654    21868.638    2.2472352 
    2450    1010.3696   -6842.5559   -6729.8476   -1013.6357    21859.854    2.2675213 
    2460    1039.3206   -6843.0729   -6727.1351   -1395.4024    21850.265    2.2880276 
    2470    1050.6674   -6841.6485   -6724.4449   -1928.3435    21839.527    2.3124895 
    2480    1038.2673   -6837.6336   -6721.8133   -1658.0613     21827.21    2.3395381 
    2490    1026.1204    -6833.709   -6719.2437   -345.21098    21813.653    2.3657187 
    2500    1061.5245   -6835.0531   -6716.6385    652.38382    21800.029    2.3904988 
    2510    1092.4348   -6835.8508   -6713.9881    1276.3999    21787.326    2.4205754 
    2520    1127.9793   -6837.1829   -6711.3551    1091.1044    21776.073    2.4607594 
    2530    1145.6687   -6836.5895   -6708.7885    948.82156     21766.13    2.5116571 
    2540    1138.3955   -6833.3297   -6706.3399    1379.5791    21757.378    2.5704238 
    2550    1148.5252   -6832.1038   -6703.9841    2001.2314    21750.156    2.6301531 
    2560      1192.12   -6834.6543   -6701.6715    2465.5295        21745    2.6850369 
    2570    1214.5811   -6834.9209   -6699.4326    2848.6726    21742.358    2.7368503 
    2580    1217.6216    -6833.178   -6697.3505    3109.6074    21742.537    2.7876204 
    2590    1189.6755   -6828.1438   -6695.4338    3761.5515    21745.831    2.8395607 
    2600    1201.6486   -6827.6746   -6693.6289    3912.2262    21752.729      2.89609 
    2610    1223.0468   -6828.3182   -6691.8855    3890.6565    21763.385     2.958984 
    2620    1216.7485   -6825.9824   -6690.2522    3994.0961    21777.735     3.025909 
    2630    1197.5094   -6822.3345   -6688.7505    4212.7163    21795.887     3.092264 
    2640    1183.8595   -6819.3636   -6687.3023    3932.3498    21817.971    3.1529359 
    2650    1162.3357   -6815.5535   -6685.8932    3722.8686    21843.733    3.2080392 
    2660    1166.0869   -6814.5531   -6684.4744    3423.9196    21872.934    3.2627519 
    2670    1187.6931   -6815.5031   -6683.0142    3331.5965    21905.305    3.3251525 
    2680    1216.1887   -6817.2181   -6681.5504    2996.6189    21940.677     3.396674 
    2690    1213.4885   -6815.4992   -6680.1327    2385.6816    21978.697     3.473016 
    2700    1224.4545   -6815.3704   -6678.7807    1438.1157     22018.71    3.5506348 
    2710    1246.9688   -6816.5728   -6677.4715    268.13061    22059.737    3.6271786 
    2720    1262.6454   -6817.1033   -6676.2534    -151.6176     22100.66    3.7014374 
    2730     1250.808   -6814.7223   -6675.1928    1108.1895    22141.138    3.7715895 
    2740    1261.0342    -6814.983   -6674.3127    1957.7104    22182.211    3.8366867 
    2750    1265.1381   -6814.7112   -6673.5832    2519.0434    22224.798    3.9076773 
    2760    1273.6483   -6815.0999   -6673.0225    2505.3992    22269.401    3.9887267 
    2770    1275.5876   -6814.9207    -6672.627    1965.8483    22315.958     4.074009 
    2780    1242.0519   -6810.9471   -6672.3943    1919.9392     22363.97    4.1594421 
    2790    1218.4173    -6808.188   -6672.2717    1877.7086      22413.3    4.2408154 
    2800    1256.8043   -6812.4032   -6672.2048    872.44202     22463.75    4.3184969 
    2810    1253.8816   -6812.0801   -6672.2077   -2.9780256     22514.32    4.3981184 
    2820    1226.5196   -6809.1272   -6672.3071   -112.54225    22564.116    4.4787106 
    2830    1248.6851   -6811.7891   -6672.4964   -461.34634    22612.884    4.5611065 
    2840    1238.8989   -6810.9719   -6672.7708   -687.09664    22660.288    4.6504584 
    2850    1207.6086   -6807.8256    -6673.115   -979.42595    22706.042    4.7413987 
    2860     1179.569   -6805.0401   -6673.4574   -1412.3655    22749.831    4.8248129 
    2870    1176.5457   -6804.9945   -6673.7491    -2162.458    22791.179    4.8995997 
    2880    1207.7645   -6808.7283   -6674.0003   -2993.3817    22829.333    4.9722802 
    2890    1201.4552   -6808.2767   -6674.2526   -3234.8919    22863.519    5.0519492 
    2900    1177.7776   -6805.9008   -6674.5179   -3179.1116    22893.498    5.1339708 
    2910    1172.8544   -6805.5808   -6674.7471   -2873.0663    22919.436    5.2117208 
    2920    1191.7018   -6807.8755   -6674.9393   -3249.1859    22941.628     5.288399 
    2930    1169.4627   -6805.5495   -6675.0942   -3372.6845    22959.844    5.3630098 
    2940    1165.2697   -6805.1827   -6675.1951   -3471.1048    22973.981    5.4257109 
    2950    1171.8487   -6805.9432   -6675.2217   -3535.0736    22984.032    5.4741588 
    2960    1197.8823   -6808.8265   -6675.2009   -3647.7655    22989.995    5.5143614 
    2970    1219.7563   -6811.2431   -6675.1774   -3635.8343    22991.854    5.5545599 
    2980    1218.1426   -6811.0894   -6675.2038   -3165.5674    22989.748     5.601898 
    2990     1190.418   -6808.0649    -6675.272   -2729.9137    22984.216    5.6589476 
    3000    1176.0668   -6806.5288   -6675.3368    -2598.392    22975.775    5.7221402 
    3010     1176.556   -6806.5948   -6675.3482   -2071.6584    22964.709    5.7841845 
    3020    1182.3411   -6807.1978   -6675.3059    -1198.532    22951.629    5.8419384 
    3030    1194.4653   -6808.4684    -6675.224   -527.84931    22937.465    5.8964585 
    3040    1189.4229   -6807.8087   -6675.1268   -102.39564    22922.974    5.9516016 
    3050    1208.2721   -6809.7978   -6675.0132   -162.25209    22908.607    6.0122147 
    3060    1218.8059   -6810.8595   -6674.8999   -647.91421    22894.307    6.0808954 
    3070    1195.0727   -6808.1227   -6674.8105   -1242.1202     22879.56    6.1529346 
    3080    1217.8936    -6810.603   -6674.7452   -1867.6962    22863.722    6.2229576 
    3090    1223.7445   -6811.2147   -6674.7042   -1888.6089    22846.209     6.293453 
    3100    1205.8868   -6809.2299   -6674.7114   -1061.5777    22827.063    6.3586267 
    3110    1203.5066   -6808.9808   -6674.7278   -479.67679    22807.095    6.4129522 
    3120    1212.2086   -6809.9794   -6674.7558    -398.7035    22786.928    6.4662534 
    3130    1193.6512   -6807.9521   -6674.7985   -204.68723    22766.731    6.5274526 
    3140    1187.1657   -6807.2611    -6674.831   -465.91959    22746.641    6.5911383 
    3150    1194.8902   -6808.1442   -6674.8524   -864.42983    22726.396    6.6536082 
    3160    1194.6027   -6808.1152   -6674.8554   -703.09195    22705.645    6.7172078 
    3170    1223.5361   -6811.3506   -6674.8633   -435.32687     22684.53     6.785931 
    3180    1219.1244   -6810.8938   -6674.8987   -5.8112519    22663.365    6.8586552 
    3190    1207.5576    -6809.678   -6674.9732    439.39278    22642.584    6.9328668 
    3200    1210.3538   -6810.0891   -6675.0723    571.82336    22622.613    7.0110409 
    3210    1196.4936   -6808.6513   -6675.1806    800.19364    22603.624     7.087934 
    3220    1178.8584   -6806.7676   -6675.2642    1468.8168    22585.869    7.1562912 
    3230    1190.3533   -6808.1071   -6675.3214    2204.7183    22569.975    7.2219379 
    3240    1172.9246   -6806.1686   -6675.3271    2438.9854    22556.649    7.2945626 
    3250    1170.0107   -6805.8096   -6675.2932    1738.8506     22546.04    7.3718549 
    3260    1176.3114   -6806.4171   -6675.1978     1127.522     22537.48    7.4490844 
    3270    1199.9038   -6808.9151   -6675.0641    725.30362    22530.268    7.5267654 
    3280    1208.5835   -6809.7314   -6674.9121    773.05913    22523.988    7.6062057 
    3290    1213.5315   -6810.1607   -6674.7895    988.22464    22518.634    7.6845709 
    3300    1202.4846   -6808.8157   -6674.6767    776.01707    22514.375    7.7561547 
    3310    1223.3784    -6811.066   -6674.5963     78.42952    22510.936    7.8288747 
    3320    1212.3731   -6809.7947   -6674.5526    120.01755     22507.71    7.9151772 
    3330    1214.8832    -6810.079   -6674.5569    350.96012    22504.671    8.0085955 
    3340    1203.3159   -6808.8166   -6674.5849      833.583    22502.077      8.10836 
    3350    1185.0608   -6806.8119   -6674.6165    1779.0436    22500.455    8.2092789 
    3360    1185.0672   -6806.8127   -6674.6166    2175.7416    22500.667    8.2958115 
    3370     1182.316   -6806.4715   -6674.5824    1713.1433    22503.088    8.3657836 
    3380    1164.5352   -6804.4065   -6674.5009    1203.9613    22507.291    8.4337797 
    3390    1183.9822   -6806.4313   -6674.3563    566.40423    22512.692    8.5044117 
    3400    1162.0585   -6803.7815   -6674.1521    355.88499    22518.672    8.5805387 
    3410    1139.5861   -6800.9936    -6673.871    414.11787    22524.994    8.6605515 
    3420     1157.618   -6802.6155   -6673.4814    450.51195    22531.679    8.7407328 
    3430    1175.2317   -6804.0915   -6672.9926     544.3281    22538.786    8.8185606 
    3440    1188.4487   -6805.0215   -6672.4483    529.40556    22546.376    8.8937455 
    3450    1183.4266   -6803.8764   -6671.8634    665.70605    22554.466    8.9712753 
    3460    1227.0189   -6808.1357   -6671.2599     456.8101    22563.145    9.0459497 
    3470    1230.8751   -6807.9874   -6670.6815    633.39375    22572.276    9.1173902 
    3480     1208.053   -6804.9334   -6670.1733    1004.9584    22582.019    9.1972754 
    3490    1233.6809   -6807.3348   -6669.7158     881.6311     22592.68    9.2901733 
    3500    1236.8168   -6807.2737    -6669.305    1150.0168    22604.256    9.3913978 
    3510    1202.5254   -6803.1086   -6668.9651    1270.9667    22616.925    9.4946588 
    3520    1170.6008   -6799.2259   -6668.6437    1403.9115     22630.86    9.5944628 
    3530    1197.1328    -6801.837   -6668.2951    1257.7171    22646.139    9.6873558 
    3540    1177.0235    -6799.208   -6667.9093    1225.2142    22662.634    9.7792123 
    3550    1201.0632   -6801.4815   -6667.5011    875.35189    22680.279    9.8726318 
    3560    1240.0241   -6805.4093   -6667.0827     492.9505    22698.729    9.9672618 
    3570    1232.5355   -6804.2221   -6666.7309   -14.101743    22717.541    10.061424 
    3580    1218.4268   -6802.3634   -6666.4461   -459.86344      22736.2    10.153058 
    3590    1204.2452   -6800.5195   -6666.1842   -910.49835    22754.197    10.243401 
    3600    1203.9224    -6800.227   -6665.9276   -937.06027    22771.096    10.327547 
    3610    1206.3224   -6800.2449   -6665.6778    -862.0909    22786.856    10.411843 
    3620    1197.9643   -6799.0743   -6665.4396   -1155.5058    22801.504    10.509871 
    3630    1195.1263    -6798.529   -6665.2109   -1432.4962    22814.764    10.617018 
    3640    1201.5029    -6798.989   -6664.9595   -1421.5264    22826.396    10.724481 
    3650    1235.8404   -6802.5872   -6664.7273   -1218.6091     22836.41     10.82624 
    3660    1234.1322    -6802.236   -6664.5667   -1061.1055    22845.014    10.923592 
    3670     1206.116   -6799.0281    -6664.484   -952.35453    22852.402    11.020317 
    3680    1175.2618   -6795.5168   -6664.4146    -579.8339    22858.742    11.113509 
    3690    1182.4648   -6796.2203   -6664.3146    -359.0976    22864.395    11.196059 
    3700    1219.4843   -6800.2088   -6664.1735   -510.12106     22869.57    11.269987 
    3710    1255.5503   -6804.1241   -6664.0656   -435.46956    22874.179    11.350876 
    3720    1277.2602   -6806.5581   -6664.0778    -420.7998    22878.276    11.446095 
    3730    1281.4264   -6807.2156   -6664.2706    -794.2195    22881.831    11.547197 
    3740    1253.4464   -6804.4676   -6664.6437   -867.68341    22884.535     11.65231 
    3750    1222.5244   -6801.5109   -6665.1365   -614.31635    22886.302    11.762553 
    3760    1205.9446   -6800.1884   -6665.6635    -201.1535     22887.42    11.877869 
    3770    1192.1579   -6799.1922   -6666.2052    174.86728    22888.313    11.992221 
    3780     1174.277   -6797.7088   -6666.7165    455.76114    22889.399    12.093815 
    3790    1183.0069   -6799.1534   -6667.1872    188.27204    22890.924    12.181587 
    3800    1170.5695   -6798.1887   -6667.6099    252.68599    22892.675    12.262005 
    3810    1151.6013   -6796.4196   -6667.9567    448.53118    22894.708    12.338453 
    3820    1152.4283   -6796.7572   -6668.2021    121.79281    22897.172    12.417764 
    3830    1166.7412   -6798.5094   -6668.3576    -583.4198    22899.721    12.509063 
    3840    1154.5344   -6797.2201   -6668.4301   -875.26983    22901.674    12.608624 
    3850    1152.0395   -6796.9229   -6668.4112   -882.72032    22902.698    12.695327 
    3860    1161.3495    -6797.841   -6668.2907   -898.13959    22902.763    12.763415 
    3870    1193.4079   -6801.2203   -6668.0939   -1450.8211    22901.771    12.829308 
    3880    1207.4383   -6802.5615   -6667.8699   -1400.7832    22899.263    12.896801 
    3890    1191.0685   -6800.5174   -6667.6519   -882.48762    22895.279    12.958167 
    3900    1175.5575   -6798.5474   -6667.4122   -563.21122    22890.347    13.010595 
    3910    1196.2712   -6800.5855   -6667.1397   -646.75364    22884.795     13.06502 
    3920     1191.382    -6799.746   -6666.8455   -442.95491    22878.597    13.130135 
    3930    1162.7094   -6796.2214   -6666.5194    -67.63992    22871.969     13.19336 
    3940     1162.826   -6795.8409   -6666.1259   -775.92165    22865.164    13.244608 
    3950    1179.0577   -6797.1817   -6665.6561   -1125.1926    22857.581    13.286594 
    3960    1172.5949   -6795.9243   -6665.1196   -445.69302    22848.914    13.327294 
    3970    1178.4969   -6795.9951    -6664.532    343.25088    22839.808    13.364341 
    3980    1197.5918   -6797.4856   -6663.8924    748.98009    22831.078    13.393589 
    3990    1218.2832    -6799.138   -6663.2367    454.36268    22823.144    13.421543 
    4000    1234.2685   -6800.3002   -6662.6156     159.2219    22815.728    13.455849 
    4010    1232.8563   -6799.5903   -6662.0634    445.51238    22808.564    13.500726 
    4020    1260.5393   -6802.2153   -6661.6002    469.55906    22801.876    13.557546 
    4030    1257.5992   -6801.5482   -6661.2611    874.86244     22795.77    13.619915 
    4040    1211.7913   -6796.2222   -6661.0451    1043.0582    22790.605    13.673681 
    4050    1198.1725   -6794.5328   -6660.8748    804.35715    22786.555    13.709217 
    4060     1191.991   -6793.6709   -6660.7025    495.57515    22783.388     13.74177 
    4070    1166.4228   -6790.6157   -6660.4995    519.86904    22780.821    13.788688 
    4080     1159.376   -6789.5738   -6660.2437    526.15989    22778.811    13.849303 
    4090    1145.6646   -6787.6852   -6659.8846    675.14628    22777.393    13.910816 
    4100    1173.1838   -6790.3034   -6659.4329    639.93708    22776.674    13.970595 
    4110    1185.0628   -6791.0922   -6658.8966    889.73848    22776.698    14.034374 
    4120    1184.7029   -6790.4787   -6658.3233    1094.9793    22777.692    14.105821 
    4130    1193.1883   -6790.8244   -6657.7225    1161.9217    22779.869    14.181529 
    4140    1231.1672   -6794.4492   -6657.1106    1004.9655    22783.299    14.250931 
    4150    1255.3949   -6796.5879   -6656.5467    797.30082    22787.836    14.321999 
    4160    1255.5048   -6796.1543   -6656.1008    1050.9711     22793.32    14.398688 
    4170    1252.5554   -6795.5117   -6655.7873    1193.7384    22799.962    14.479358 
    4180    1265.4203   -6796.7654   -6655.6058    652.58572    22807.869    14.565053 
    4190    1252.8574   -6795.3179   -6655.5598   -186.00536    22816.484    14.656641 
    4200    1236.6601   -6793.5861   -6655.6348   -626.54759    22824.975    14.746846 
    4210    1221.8135   -6792.0732    -6655.778     -973.379    22832.834    14.835747 
    4220    1214.0518   -6791.4069   -6655.9776   -1425.9226    22839.658    14.917978 
    4230    1226.1518   -6792.9921    -6656.213   -1926.0566     22844.95     14.98066 
    4240    1232.7868   -6794.0343   -6656.5151   -2029.5497    22848.211    15.028696 
    4250    1209.1527   -6791.7794   -6656.8966   -1517.8104    22849.321    15.077368 
    4260     1172.456    -6788.071   -6657.2818   -659.78008    22848.811    15.123851 
    4270    1189.0142   -6790.2703   -6657.6339   -367.82066    22847.522     15.16468 
    4280    1187.6029   -6790.4258   -6657.9469       34.477    22845.858    15.215311 
    4290    1198.7833   -6791.9818   -6658.2558    157.25873    22844.177       15.278 
    4300    1214.2425   -6794.0047   -6658.5541   -122.01772    22842.636    15.342821 
    4310    1245.2963   -6797.8259   -6658.9112   -785.35536    22840.909    15.400959 
    4320    1223.0364   -6795.7782   -6659.3467   -880.27083    22838.385      15.4468 
    4330    1201.5296   -6793.8664   -6659.8339    -811.9283    22834.906    15.481351 
    4340    1194.9811   -6793.6253   -6660.3233   -468.34875     22830.56    15.526611 
    4350    1196.7067   -6794.2983   -6660.8038    213.72526    22825.724    15.591984 
    4360    1199.2856    -6795.054   -6661.2719    309.44971    22821.046    15.664881 
    4370    1225.4517   -6798.4611   -6661.7602    -527.5074    22816.596    15.728845 
    4380    1220.7724   -6798.4756   -6662.2966   -1118.0689    22811.581    15.775887 
    4390     1206.789   -6797.5019   -6662.8828   -871.12371    22805.432    15.812057 
    4400    1193.8476   -6796.6523   -6663.4768   -713.46182    22798.284    15.859084 
    4410    1183.1818   -6796.0249   -6664.0392    -602.2025    22790.321    15.934859 
    4420    1187.5306   -6797.0445   -6664.5736   -759.73171    22781.635     16.03873 
    4430    1183.7059   -6797.1241   -6665.0799   -889.83206    22772.093    16.152747 
    4440    1184.5172   -6797.7088   -6665.5741   -922.27386    22761.525    16.262264 
    4450     1174.674   -6797.0474   -6666.0108   -637.81597    22749.937    16.363792 
    4460    1203.8129   -6800.7099   -6666.4228   -440.32726     22737.57    16.454192 
    4470    1175.8614   -6797.9696   -6666.8005    328.17897     22724.71      16.5308 
    4480    1164.5505   -6797.0396   -6667.1323    550.30099    22712.064    16.594799 
    4490    1194.4385   -6800.6455   -6667.4041    574.24657    22699.929    16.651668 
    4500    1177.9521   -6799.0385   -6667.6361    1415.6751    22688.419    16.705304 
    4510    1166.6033   -6797.9544   -6667.8181    2358.3066    22678.387    16.753947 
    4520    1198.9275   -6801.6963   -6667.9541    2307.9564    22670.748     16.80413 
    4530    1191.5093   -6800.9759   -6668.0612    2544.2696    22665.593    16.868504 
    4540    1181.2518   -6799.9257   -6668.1553     2817.359    22663.154    16.939332 
    4550    1192.8181   -6801.2803   -6668.2196    2429.1515    22663.699    17.012809 
    4560    1222.4587   -6804.6639   -6668.2968    1151.0797    22666.784    17.096021 
    4570    1195.0907    -6801.717   -6668.4028     195.9276    22671.179     17.19381 
    4580    1171.3237   -6799.1623   -6668.4993   -398.65477    22675.867    17.300866 
    4590    1190.8112   -6801.3986   -6668.5618   -1185.4623    22680.139    17.404963 
    4600    1188.7406   -6801.1846   -6668.5788    -1540.552    22683.209    17.500918 
    4610    1201.3303   -6802.6078   -6668.5976   -1550.7285    22684.659    17.586304 
    4620     1168.793   -6798.9651   -6668.5844   -994.07689    22684.516    17.663552 
    4630    1174.3189   -6799.5229   -6668.5259   -590.58306    22683.289    17.729318 
    4640    1184.9171    -6800.587   -6668.4077   -715.50942    22681.362    17.786794 
    4650    1186.9457   -6800.6606    -6668.255    -988.3494    22678.636    17.846966 
    4660    1176.5458   -6799.3101   -6668.0646    -1173.017    22674.837    17.926053 
    4670    1183.0323   -6799.8023   -6667.8332   -1116.5587     22669.78    18.028945 
    4680    1187.8085   -6800.0542   -6667.5524    -1256.014    22663.451    18.139631 
    4690    1183.0034   -6799.1948   -6667.2289   -1000.8747    22655.774    18.244966 
    4700     1181.532   -6798.6633   -6666.8617   -620.29769    22646.969    18.344521 
    4710    1168.4403   -6796.7796   -6666.4383   -372.51398    22637.424    18.434897 
    4720    1156.8543    -6794.996   -6665.9472   -319.63539    22627.399    18.521224 
    4730    1160.0333   -6794.7648   -6665.3613   -764.50041    22616.912    18.611341 
    4740    1180.8295   -6796.4089   -6664.6856   -1408.6191    22605.498    18.702727 
    4750    1193.8497   -6797.1426   -6663.9669   -1556.5336     22592.54    18.787108 
    4760    1197.5171   -6796.8248     -6663.24   -1442.6097    22577.835     18.85537 
    4770    1185.5481   -6794.7625   -6662.5128   -946.99204    22561.502    18.910129 
    4780    1199.3034   -6795.5638   -6661.7797   -393.09857    22544.036    18.958554 
    4790    1206.0036   -6795.5673   -6661.0358    435.58887    22526.051     19.00421 
    4800    1213.6317   -6795.6934    -6660.311    1067.2114    22508.366    19.056493 
    4810    1234.4797   -6797.3304   -6659.6224    1738.5945    22491.701    19.119353 
    4820    1248.5846   -6798.2921   -6659.0106    2363.0268    22476.757    19.186643 
    4830     1258.624   -6798.9125   -6658.5111    2021.3287    22464.121    19.252123 
    4840    1276.3379   -6800.5504    -6658.173    1350.1846    22453.499    19.311691 
    4850    1231.9934   -6795.4216   -6657.9909    1818.9462    22444.332    19.377189 
    4860    1212.0521   -6793.1124   -6657.9062     2796.542    22437.056     19.45077 
    4870    1230.0053   -6795.0648   -6657.8558    3561.1542    22432.655    19.525706 
    4880    1264.7386   -6798.9642   -6657.8807    3798.2208    22431.933    19.606851 
    4890    1284.0426   -6801.3029    -6658.066    3542.5725    22435.201    19.701758 
    4900    1271.0854   -6800.2535   -6658.4621    3074.8569    22442.242    19.808522 
    4910    1238.0614   -6797.1329   -6659.0253    2902.5271    22452.663    19.929177 
    4920     1234.704   -6797.4317   -6659.6986    2684.2004    22466.273    20.064554 
    4930    1219.6305   -6796.5092   -6660.4575    2775.5968    22482.934    20.211863 
    4940    1195.8037   -6794.6438   -6661.2501    2699.9997    22502.737    20.362476 
    4950    1201.6639   -6796.0768   -6662.0294    2171.4868     22525.62     20.51569 
    4960     1206.785   -6797.4073   -6662.7886    1537.0868    22551.101    20.660125 
    4970    1199.2819   -6797.3188   -6663.5371    753.41766    22578.513    20.772837 
    4980    1205.5446   -6798.7423    -6664.262    272.26182    22607.105    20.855534 
    4990    1209.2924   -6799.8668   -6664.9684    -46.11293    22636.334    20.919821 
    5000    1206.8093   -6800.2823   -6665.6609    5.0984576    22665.907    20.984923 
Loop time of 1795.72 on 16 procs for 3000 steps with 864 atoms

Performance: 0.144 ns/day, 166.270 hours/ns, 1.671 timesteps/s
97.8% CPU use with 16 MPI tasks x 1 OpenMP threads

MPI task timing breakdown:
Section |  min time  |  avg time  |  max time  |%varavg| %total
---------------------------------------------------------------
Pair    | 1232.4     | 1498       | 1763       | 451.7 | 83.42
Bond    | 0.00022531 | 0.00064513 | 0.0026948  |   0.0 |  0.00
Neigh   | 0.032022   | 0.040832   | 0.050091   |   3.2 |  0.00
Comm    | 17.829     | 235.04     | 544.51     |1089.4 | 13.09
Output  | 0.19206    | 0.19538    | 0.24418    |   2.9 |  0.01
Modify  | 14.196     | 62.409     | 102.4      | 464.9 |  3.48
Other   |            | 0.01282    |            |       |  0.00

Nlocal:        54.0000 ave          66 max          43 min
Histogram: 2 1 2 1 4 1 1 1 1 2
Nghost:        465.562 ave         516 max         424 min
Histogram: 2 3 2 1 0 3 2 0 1 2
Neighs:         0.00000 ave           0 max           0 min
Histogram: 16 0 0 0 0 0 0 0 0 0
FullNghs:      2058.50 ave        2755 max        1370 min
Histogram: 2 3 1 0 2 2 2 0 2 2

Total # of neighbors = 32936
Ave neighs/atom = 38.120370
Ave special neighs/atom = 0.0000000
Neighbor list builds = 300
Dangerous builds = 300
unfix   2

fix     3 all npt temp 1200.0 1200.0 $(100.0*dt) aniso 1.01325 1.01325 $(1000.0*dt)
fix     3 all npt temp 1200.0 1200.0 0.10000000000000000555 aniso 1.01325 1.01325 $(1000.0*dt)
fix     3 all npt temp 1200.0 1200.0 0.10000000000000000555 aniso 1.01325 1.01325 1
run     20000
Per MPI rank memory allocation (min/avg/max) = 8.898 | 8.906 | 8.914 Mbytes
Step Temp PotEng TotEng Press Volume c_msd[4] 
    5000    1206.8093   -6800.2823   -6665.6609    5.0984576    22665.907    20.984923 
    5010    1221.4058   -6801.9307   -6665.6811    168.35432    22665.946    21.029769 
    5020    1218.5369   -6801.6656    -6665.736    120.63254    22666.161    21.117249 
    5030    1221.2473   -6802.0748   -6665.8428   -147.90507    22666.503    21.227818 
    5040     1222.923   -6802.4162   -6665.9973   -467.15248    22666.696    21.345257 
    5050    1234.3776   -6803.9228   -6666.2261   -884.30349    22666.384    21.454958 
    5060    1203.4264   -6800.7667   -6666.5227    -906.1358    22665.171    21.539462 
    5070     1189.104   -6799.4926   -6666.8462   -754.99762    22663.001    21.593891 
    5080    1207.9456   -6801.9362    -6667.188   -861.04499    22659.986    21.631704 
    5090    1193.7586   -6800.7184   -6667.5529   -1260.0774    22656.023    21.663965 
    5100     1197.929   -6801.5843   -6667.9535   -1886.9003    22650.688    21.692954 
    5110    1202.9541   -6802.5878   -6668.3965   -2148.5637     22643.35    21.724826 
    5120    1191.5535   -6801.8159   -6668.8963    -1965.778    22633.717    21.763346 
    5130    1165.0813   -6799.3886    -6669.422   -1320.3332     22622.01    21.798254 
    5140    1172.3034   -6800.7156   -6669.9434   -1157.9264    22608.804     21.82442 
    5150    1179.2135   -6802.0257   -6670.4827   -1002.7096    22594.319    21.843992 
    5160    1158.5541   -6800.2629   -6671.0245   -276.80423     22578.79     21.85622 
    5170    1163.7752    -6801.378   -6671.5571     150.7009    22562.872     21.86266 
    5180    1162.1344    -6801.724   -6672.0862    489.28682    22547.051    21.865699 
    5190    1163.2835   -6802.3692   -6672.6032    321.14219    22531.646    21.866391 
    5200    1200.1344   -6807.0389   -6673.1621   -171.53089    22516.482    21.863388 
    5210    1191.3922   -6806.6833   -6673.7817     354.7012    22501.201    21.858609 
    5220    1194.4444   -6807.7163   -6674.4742    1147.6852    22486.255    21.857872 
    5230     1201.493   -6809.2731   -6675.2448    1809.7547    22472.448    21.860897 
    5240    1208.1562   -6810.8763   -6676.1047    1611.0598    22460.411    21.865074 
    5250    1224.3885   -6813.6759   -6677.0935    745.92231    22449.965    21.875502 
    5260    1201.6614   -6812.2323   -6678.1852    516.96218    22440.333    21.909974 
    5270    1156.2584   -6808.2449   -6679.2626    806.78767    22431.246    21.971455 
    5280    1138.2523   -6807.2078   -6680.2341    1367.3532    22422.985    22.040557 
    5290     1123.433   -6806.3456    -6681.025    1915.1285    22416.126    22.105069 
    5300     1106.499   -6805.0485   -6681.6169    2018.0777    22411.216    22.167742 
    5310    1103.8629   -6805.1193   -6681.9817    1793.0222    22408.391    22.227277 
    5320    1128.7063   -6808.0548   -6682.1459    1296.6995    22407.424     22.28986 
    5330    1145.5124    -6809.951   -6682.1674    919.36087    22407.829    22.363892 
    5340    1124.7323   -6807.5224   -6682.0568    1351.2403    22409.297    22.430999 
    5350    1120.1556   -6806.7708   -6681.8158    1955.0447    22412.233    22.476699 
    5360     1122.215   -6806.6006   -6681.4158    2269.6343    22417.231    22.514277 
    5370    1134.0664   -6807.3832   -6680.8764    2479.1331    22424.664     22.56129 
    5380    1123.8326   -6805.5644   -6680.1992    2434.0761    22434.761    22.620142 
    5390    1127.8781   -6805.2212   -6679.4047    1748.7677    22447.447    22.687362 
    5400     1167.348   -6808.7321   -6678.5126    753.21794    22462.076    22.750444 
    5410      1172.57   -6808.3885   -6677.5865     398.3808    22477.698    22.789034 
    5420     1176.366   -6807.9425   -6676.7171    573.78473    22493.929    22.787696 
    5430     1174.031    -6806.866   -6675.9011    764.04929    22510.901    22.760175 
    5440    1168.5262   -6805.5201   -6675.1693    1065.2696    22528.825    22.738032 
    5450    1170.6051   -6805.1023   -6674.5196    1337.3615    22548.024    22.740752 
    5460    1168.6027   -6804.2978   -6673.9384    1355.8706     22568.77    22.763549 
    5470    1188.3724   -6805.9774   -6673.4127    1094.2533    22591.082    22.804543 
    5480    1185.7337   -6805.2175   -6672.9471    1130.0336    22614.744    22.860691 
    5490    1175.3088   -6803.6528   -6672.5454    1223.1025    22639.767    22.913132 
    5500    1181.2654   -6803.9406   -6672.1687    758.90089    22666.197    22.946646 
    5510    1199.7709   -6805.6278   -6671.7916   -85.436411    22693.543    22.972663 
    5520    1190.5054   -6804.2278   -6671.4251   -479.91663    22720.975    23.010145 
    5530    1171.8068   -6801.7874   -6671.0706   -771.67549    22748.009    23.053372 
    5540    1171.7629   -6801.3936   -6670.6817    -1184.827    22774.292    23.089996 
    5550    1191.0161   -6803.1019   -6670.2422   -1510.0284     22799.37    23.128191 
    5560    1202.1974   -6803.8971   -6669.7902   -1518.8802    22822.908    23.175946 
    5570    1197.9487   -6802.9986   -6669.3657    -1632.825    22844.826    23.226068 
    5580    1188.5729   -6801.5559   -6668.9689   -1318.9512    22865.045    23.273071 
    5590    1181.0795   -6800.3225   -6668.5713   -345.43844    22883.921    23.312629 
    5600    1192.3163   -6801.1649   -6668.1602   -65.582736    22902.364    23.344115 
    5610    1179.6121   -6799.3029   -6667.7154   -444.62515    22920.691    23.374216 
    5620    1177.4249   -6798.5836   -6667.2401   -1084.8302    22938.525     23.40844 
    5630     1182.787   -6798.6535   -6666.7119   -1493.7102    22955.207    23.448274 
    5640    1186.6293   -6798.5133    -6666.143   -1594.3479    22970.277    23.500461 
    5650     1192.968   -6798.6258   -6665.5484   -1415.5244    22983.623    23.566689 
    5660    1194.0779   -6798.1419   -6664.9407   -1369.9115    22995.389    23.632218 
    5670     1206.512   -6798.9222    -6664.334   -1808.8539    23005.595    23.689438 
    5680     1184.854   -6795.9061   -6663.7338   -1949.5504    23013.841    23.740779 
    5690    1173.6327   -6794.0519   -6663.1314   -1988.1454    23019.928    23.785713 
    5700    1193.6621    -6795.648   -6662.4932   -2276.4706    23023.796    23.835907 
    5710    1217.9418    -6797.714   -6661.8507   -2443.8834    23025.146    23.901587 
    5720    1223.4058   -6797.7236   -6661.2508   -1936.7584    23023.878    23.975947 
    5730    1245.9268   -6799.7233   -6660.7383   -1624.6242    23020.428    24.052795 
    5740     1232.635   -6797.8112   -6660.3089   -611.45357    23015.281    24.133678 
    5750     1280.919   -6802.8977   -6660.0092   -206.33726    23009.384    24.199493 
    5760    1274.6338   -6802.0638   -6659.8765    439.45535    23003.295    24.236619 
    5770    1218.6424   -6795.8356   -6659.8942     947.7744    22997.681     24.24274 
    5780    1216.0077   -6795.6223   -6659.9748    847.21192    22993.045    24.231686 
    5790    1210.7657   -6795.1392   -6660.0765    1120.5457    22989.393    24.228574 
    5800    1212.9222   -6795.5241   -6660.2208    1314.1305    22986.985    24.238361 
    5810    1211.6674   -6795.5577   -6660.3944    896.45174    22985.981    24.259623 
    5820    1214.3635    -6796.072   -6660.6079    182.58491    22985.959    24.293106 
    5830    1209.7716   -6795.8008   -6660.8489   -823.35729    22986.121    24.340487 
    5840    1226.9486   -6798.0211   -6661.1531   -1875.9169    22985.343    24.400129 
    5850    1222.7339   -6797.9285   -6661.5307   -2139.8084    22982.575    24.464771 
    5860    1213.1291    -6797.336   -6662.0097    -2148.803    22977.467    24.529469 
    5870    1207.3274    -6797.258   -6662.5789   -1950.0895    22970.005    24.579227 
    5880    1212.1408   -6798.4611    -6663.245   -2035.4599    22960.353    24.606664 
    5890    1209.7495   -6798.9939   -6664.0445   -2623.3416    22948.387    24.621533 
    5900    1176.9312   -6796.2561   -6664.9677   -2826.5164     22933.56      24.6396 
    5910    1154.0672   -6794.7011   -6665.9631   -2621.2286    22915.635    24.655495 
    5920     1156.484   -6795.9885    -6666.981   -2245.8075    22894.835    24.654299 
    5930    1177.0385   -6799.3396   -6668.0392    -2142.012    22871.516    24.647836 
    5940    1181.8922   -6800.9983   -6669.1564   -1714.0341    22845.866    24.656395 
    5950    1165.5088   -6800.2929   -6670.2786   -782.87124    22818.378     24.67737 
    5960    1175.5691   -6802.5041   -6671.3675   -461.33347    22789.956     24.70735 
    5970    1204.1805    -6806.759   -6672.4308   -1010.6524    22760.934    24.739233 
    5980    1213.5875   -6808.8949   -6673.5174   -1356.6993    22730.816    24.759213 
    5990    1174.9918   -6805.5908   -6674.5187   -680.59108    22699.344    24.780127 
    6000      1179.56   -6806.9734   -6675.3917   -662.94543    22667.063    24.806129 
    6010    1137.9584   -6803.0184   -6676.0774    10.900767    22634.179    24.826691 
    6020    1117.6541    -6801.191   -6676.5151    467.62943    22601.301    24.836535 
    6030    1140.2506   -6803.9268   -6676.7302    853.10716    22568.976    24.844795 
    6040    1153.3001    -6805.435   -6676.7827    1472.4171     22537.63    24.874534 
    6050    1151.8031   -6805.1929   -6676.7075    2384.2369    22507.942     24.92244 
    6060    1153.9905   -6805.2722   -6676.5429    2893.9632    22480.793    24.960214 
    6070    1135.1804   -6802.9292   -6676.2981    3189.1088    22456.742     24.98911 
    6080    1136.1117   -6802.7097   -6675.9747    3000.8784    22436.045    25.026004 
    6090    1144.6619   -6803.2645   -6675.5758    2896.1702    22418.567    25.081671 
    6100    1145.0782   -6802.8595   -6675.1243    2904.6792    22404.184    25.151615 
    6110    1147.7833   -6802.6541   -6674.6172    2379.9016    22392.834    25.203358 
    6120    1182.3525   -6805.9852    -6674.092    1609.2566    22383.954    25.213844 
    6130    1155.2887   -6802.4309   -6673.5567    1954.0046    22376.884    25.196193 
    6140    1164.8334   -6802.9608   -6673.0218    1890.8065    22371.828    25.178872 
    6150     1185.883   -6804.7448   -6672.4578    1313.8004    22368.702    25.178627 
    6160    1173.8218   -6802.8498   -6671.9082    1684.9348    22367.048    25.202881 
    6170    1160.8138   -6800.8539   -6671.3634    2211.3777    22367.169    25.249766 
    6180    1178.5792   -6802.2729   -6670.8006    1948.0147     22369.53    25.301869 
    6190    1176.0684   -6801.4197   -6670.2275    1386.1551    22373.909    25.345225 
    6200    1181.5823   -6801.4639   -6669.6566     1176.993    22379.806      25.3804 
    6210     1202.674   -6803.2494   -6669.0893    888.46133    22386.942    25.424794 
    6220    1213.6166    -6803.935   -6668.5542    1011.0488    22395.094    25.489211 
    6230    1211.3497   -6803.2072   -6668.0793    1531.3868    22404.381    25.573204 
    6240    1211.8768   -6802.8488   -6667.6621    1860.6175    22415.294    25.658852 
    6250    1235.3379   -6805.1079   -6667.3041    1732.7536    22428.163    25.732738 
    6260    1219.6144   -6803.0817   -6667.0319     2025.277    22442.964    25.792903 
    6270    1210.7389   -6801.8888   -6666.8291    1927.4719    22459.935    25.840291 
    6280    1218.7432   -6802.6207   -6666.6681    1351.6537    22478.976    25.884515 
    6290    1181.7321   -6798.3482   -6666.5242    1588.9377    22499.639    25.939054 
    6300    1193.0699   -6799.4704   -6666.3817    1531.3408    22522.061    26.007118 
    6310    1194.4633   -6799.4509   -6666.2067    1136.6211     22546.21    26.090168 
    6320    1180.3523   -6797.6811    -6666.011    597.76575    22571.697    26.189243 
    6330    1189.1612    -6798.421   -6665.7682    -482.7931    22597.905    26.300313 
    6340    1183.5764   -6797.5052   -6665.4755   -1016.9419    22623.787    26.409852 
    6350    1175.3943   -6796.2417   -6665.1247   -1136.7566    22648.753    26.510289 
    6360    1201.9685   -6798.8078   -6664.7265   -1373.7257    22672.587     26.60444 
    6370    1167.1521   -6794.4914   -6664.2939   -870.51432    22695.143    26.695593 
    6380    1152.7792   -6792.3867   -6663.7925   -620.98431    22716.858    26.779628 
    6390    1194.2717   -6796.3932   -6663.1704   -1053.7633    22737.944    26.865008 
    6400    1226.1023   -6799.2365    -6662.463   -1332.7629     22758.03    26.955631 
    6410    1226.5366   -6798.5838   -6661.7617   -1677.4831     22776.76    27.049206 
    6420    1216.6075   -6796.8088   -6661.0944   -1756.1705    22793.812    27.147201 
    6430    1218.7717   -6796.3975   -6660.4417   -1394.0463    22809.095    27.246522 
    6440    1222.1228   -6796.1351   -6659.8055   -518.94976        22823    27.340175 
    6450    1239.2041   -6797.4263   -6659.1912    185.59974    22836.418    27.421736 
    6460    1284.5789   -6801.9391   -6658.6424    313.85989    22850.067     27.49193 
    6470    1289.6527   -6802.0964   -6658.2337    652.46302    22864.177    27.558312 
    6480    1279.6559   -6800.7687   -6658.0211    778.48297    22879.078    27.630543 
    6490    1276.8528   -6800.4209   -6657.9861    777.83881    22894.945     27.70486 
    6500    1265.3652   -6799.2869   -6658.1335    534.14851    22911.762    27.781591 
    6510    1252.6154   -6798.1951    -6658.464     176.7366    22929.305    27.871126 
    6520    1229.9246   -6796.1744   -6658.9745   -8.7086323    22947.199    27.969863 
    6530    1224.0905   -6796.2244   -6659.6753    -500.3937    22965.178    28.070822 
    6540    1212.0883   -6795.7829   -6660.5726   -1021.0494    22982.775    28.180274 
    6550    1194.9698   -6794.9858   -6661.6852   -1680.0297    22999.362     28.29546 
    6560    1153.3722   -6791.5861   -6662.9257   -1507.9906    23014.337    28.401712 
    6570    1148.7461   -6792.3561   -6664.2118   -1203.3145     23027.77    28.488336 
    6580    1151.9562   -6793.9511   -6665.4487   -1063.7702    23039.958    28.559545 
    6590    1189.9104   -6799.3703    -6666.634   -972.78442    23051.057    28.609741 
    6600    1200.4208   -6801.6739   -6667.7652   -650.96101    23061.196    28.649515 
    6610    1189.7252   -6801.5278   -6668.8121   -514.01662    23070.682    28.699303 
    6620    1185.4841   -6801.9676    -6669.725   -601.29363    23079.679    28.772629 
    6630    1185.8535   -6802.7819   -6670.4981   -791.15531    23088.098    28.866643 
    6640     1161.122   -6800.6557   -6671.1308    -727.3245    23095.752      28.9707 
    6650    1134.9152   -6798.1897   -6671.5882   -909.59858    23102.645    29.061234 
    6660    1138.9314   -6798.9074   -6671.8579   -1419.2232    23108.579    29.128385 
    6670     1169.451   -6802.4432   -6671.9892   -2244.3007    23112.936    29.185579 
    6680    1159.5298   -6801.3632   -6672.0159   -2100.7113     23114.93    29.247117 
    6690    1148.0423   -6800.0296   -6671.9637   -1298.7678    23114.645     29.31936 
    6700    1157.0229   -6800.8883   -6671.8206   -602.03055    23112.878    29.395131 
    6710    1170.0854   -6802.1143   -6671.5895   -224.16106    23110.401    29.465585 
    6720    1194.5907   -6804.5834    -6671.325   -175.75786     23107.62    29.522772 
    6730    1180.0071    -6802.683   -6671.0514   -144.00635    23104.628    29.556925 
    6740    1194.2912   -6804.0065   -6670.7815   -333.06933    23101.419    29.572971 
    6750    1191.0044   -6803.3549   -6670.4965    -175.2771    23097.854    29.603617 
    6760     1189.853   -6802.9317   -6670.2019   -118.69707    23094.047    29.671921 
    6770    1198.7463   -6803.6106   -6669.8886   -516.47934    23090.013    29.759978 
    6780    1199.0514   -6803.3206   -6669.5646   -676.73639    23085.401    29.839699 
    6790     1190.613    -6802.054   -6669.2394   -650.27542    23079.989    29.907721 
    6800     1183.968   -6800.9694    -6668.896   -460.65822    23073.811    29.965472 
    6810    1208.8019   -6803.3678   -6668.5241   -657.38447     23067.01    30.011982 
    6820    1202.7289   -6802.3159   -6668.1497   -553.45749    23059.447     30.05829 
    6830    1185.3483   -6800.0064    -6667.779   -333.94474    23051.201    30.094188 
    6840    1175.8424   -6798.5504   -6667.3834   -330.65493    23042.483    30.118462 
    6850    1184.1244   -6799.0216   -6666.9307   -128.57714    23033.345    30.155406 
    6860    1230.0893   -6803.6622   -6666.4439   -168.03151     23023.95    30.213435 
    6870    1240.6872   -6804.3978   -6665.9973   -44.179204    23014.297    30.292131 
    6880    1228.7166   -6802.7024   -6665.6372   -97.776863    23004.502    30.389655 
    6890    1254.3562   -6805.2809   -6665.3556   -857.95443    22994.421     30.49093 
    6900    1240.4875   -6803.5396   -6665.1613   -671.56141    22983.403      30.5755 
    6910    1238.5499   -6803.2169   -6665.0548   -686.49621     22971.48    30.630708 
    6920    1224.5293   -6801.6362   -6665.0381   -419.95937    22958.707    30.669425 
    6930    1203.7305   -6799.3535   -6665.0755   -46.621648    22945.335    30.714425 
    6940    1201.8674   -6799.2005   -6665.1304    223.85051    22931.755    30.765288 
    6950    1205.4501   -6799.6828   -6665.2131   -23.631505    22918.205    30.817547 
    6960    1207.8899   -6800.0802   -6665.3383    268.19192     22904.52    30.870927 
    6970    1181.1571   -6797.2428    -6665.483     1247.038    22891.054     30.91852 
    6980    1185.2213   -6797.8448   -6665.6316    1511.3449    22878.712    30.960453 
    6990    1223.2345   -6802.2559   -6665.8022    1612.1905    22867.881    30.983827 
    7000    1241.6191   -6804.5871   -6666.0827    1579.0868    22858.686    30.977151 
    7010    1229.0405     -6803.65   -6666.5487    1067.4592    22851.062     30.95287 
    7020    1204.0869   -6801.4998   -6667.1821    595.93099    22844.516    30.938605 
    7030    1203.6504   -6802.2154   -6667.9464    312.40314    22838.548    30.937137 
    7040    1176.1274   -6799.9982   -6668.7994    902.23345     22832.94    30.948301 
    7050    1159.9434   -6799.0449   -6669.6515     1382.069    22828.229     30.96285 
    7060    1183.5841   -6802.5103   -6670.4797    1036.3155    22824.894    30.971915 
    7070    1192.3397   -6804.3098   -6671.3025    586.62369    22822.642    30.987878 
    7080    1204.4592   -6806.4998   -6672.1406    450.76496    22821.043    31.030559 
    7090    1194.6753   -6806.2446   -6672.9768    574.02172    22819.953    31.098568 
    7100    1175.9952   -6804.9603   -6673.7762    506.98335    22819.451     31.16403 
    7110    1161.7781   -6804.0946   -6674.4965    541.35832    22819.516    31.208786 
    7120    1164.3652   -6805.0021   -6675.1154    491.62975    22820.167    31.241207 
    7130    1174.1205   -6806.6141   -6675.6392    747.07722    22821.425    31.267557 
    7140    1191.0833   -6808.9647   -6676.0975    831.21251    22823.525    31.288857 
    7150    1212.8379   -6811.8354   -6676.5415    441.79816     22826.54    31.316094 
    7160    1186.1317   -6809.2984   -6676.9836    320.87505    22830.139    31.368148 
    7170    1155.0609   -6806.2237   -6677.3749    245.39683    22834.165    31.438558 
    7180    1141.0899   -6804.9573   -6677.6671    301.26292    22838.565    31.507042 
    7190    1135.6679   -6804.5152   -6677.8297    163.83325     22843.37     31.57088 
    7200    1123.6122   -6803.2034   -6677.8628   -68.730606     22848.44    31.619379 
    7210      1108.51   -6801.3802   -6677.7242    116.48056    22853.609    31.640771 
    7220    1162.6707   -6807.1111   -6677.4135   -277.86495    22858.951    31.642659 
    7230    1179.6517   -6808.5628   -6676.9709   -482.33082    22864.144    31.659966 
    7240    1185.3804   -6808.6978   -6676.4668    -775.1971    22868.914    31.709908 
    7250    1179.8697   -6807.5234   -6675.9072   -742.96236    22872.985    31.780954 
    7260    1178.3108   -6806.7371   -6675.2948   -925.37761    22876.307    31.861124 
    7270     1184.746   -6806.7862    -6674.626   -1188.2772    22878.684    31.953202 
    7280    1184.7503   -6806.0654   -6673.9047   -1565.7858      22879.8    32.056123 
    7290    1187.3207   -6805.5978   -6673.1504   -2096.0407    22879.194    32.149623 
    7300    1163.7296   -6802.1773   -6672.3615   -2317.2352    22876.278    32.229141 
    7310    1147.1663     -6799.49   -6671.5219   -2129.3134    22870.767    32.290164 
    7320    1168.9112   -6801.0132   -6670.6194   -2194.6282    22862.728    32.336299 
    7330    1159.4949   -6799.0212   -6669.6778   -1724.9501    22852.133    32.388882 
    7340    1142.6584   -6796.2166   -6668.7513   -1186.2579     22839.36    32.456873 
    7350    1168.3891   -6798.1645   -6667.8289     -1087.85    22824.909     32.53434 
    7360    1191.3614   -6799.8454   -6666.9473   -656.96591     22808.94    32.608313 
    7370    1214.9031   -6801.6963   -6666.1721   -82.679586     22791.87    32.661611 
    7380    1233.6767   -6803.1695    -6665.551    607.29418    22774.294     32.69824 
    7390    1217.9058   -6800.9486   -6665.0894    1346.6884    22756.968    32.730661 
    7400    1212.4591   -6800.0052   -6664.7536    1677.9104    22740.657    32.754848 
    7410    1208.0295   -6799.2547   -6664.4971    1801.2449    22725.782    32.761532 
    7420    1215.8411   -6799.9284   -6664.2995    1183.0179    22712.427    32.768173 
    7430     1215.084   -6799.7032   -6664.1588    1338.2076    22700.129    32.805719 
    7440      1203.14   -6798.2673   -6664.0552    2011.5395     22689.05    32.891715 
    7450     1197.286   -6797.5313   -6663.9723    2416.8656    22679.871    33.014581 
    7460    1147.5584   -6791.8629    -6663.851    3201.5914     22673.16    33.151089 
    7470    1158.1351   -6792.8567   -6663.6649    2947.5489    22669.671    33.281911 
    7480    1224.4685   -6800.0055   -6663.4142    1935.5972     22669.24    33.403971 
    7490    1239.4349   -6801.4612   -6663.2003    1740.6752    22670.994    33.535987 
    7500    1217.1391   -6798.8528   -6663.0791    1827.8153    22674.711    33.677396 
    7510    1194.2137   -6796.2119   -6662.9956    1457.0754    22680.486    33.806025 
    7520    1208.1681   -6797.6961   -6662.9231    809.80774    22687.961    33.911532 
    7530    1181.4551   -6794.6423   -6662.8492    1207.6039    22696.613      33.9905 
    7540    1156.8127   -6791.7854   -6662.7412    1344.3026    22706.761    34.055826 
    7550    1174.7223   -6793.5953   -6662.5533    1102.7361    22718.596    34.129659 
    7560    1186.6678   -6794.6581   -6662.2835    1067.7903     22731.94    34.218904 
    7570    1218.3703   -6797.8856   -6661.9745    1186.7346    22746.783    34.318876 
    7580    1233.2127   -6799.2602   -6661.6934    1365.1652    22763.279    34.421265 
    7590    1234.6396   -6799.2054   -6661.4795    1008.3899      22781.6      34.5184 
    7600    1232.7642   -6798.8383   -6661.3216    100.69159    22801.368    34.621002 
    7610    1191.5423   -6794.1119   -6661.1935   -329.12313    22821.732    34.730011 
    7620    1177.7546   -6792.4232   -6661.0429   -963.08697    22842.136    34.853319 
    7630    1168.2955   -6791.1415   -6660.8164   -1306.0419    22861.937    35.007115 
    7640    1197.5963   -6794.1106   -6660.5169   -1720.6827    22880.678    35.162226 
    7650    1237.5893   -6798.2421   -6660.1872   -2145.3843    22897.882    35.289316 
    7660    1235.4789    -6797.711   -6659.8915   -2073.9459    22913.076    35.385765 
    7670    1190.5371   -6792.4444   -6659.6382   -1536.2936    22926.278    35.471294 
    7680     1188.351   -6791.8916   -6659.3293   -1302.4608    22937.994    35.570654 
    7690    1239.2625   -6797.1914   -6658.9498   -1445.0307    22948.401    35.684072 
    7700    1230.1375   -6795.7546   -6658.5309   -694.80759    22957.478    35.793226 
    7710    1242.4768   -6796.7302     -6658.13   -589.36773    22965.837    35.876672 
    7720    1242.7185   -6796.3797   -6657.7526   -709.33595    22973.628    35.930014 
    7730    1243.2781   -6796.1155   -6657.4259   -406.64008    22980.783    35.957219 
    7740    1263.9319   -6798.1583   -6657.1648   -311.46354    22987.533    35.974268 
    7750    1254.6164    -6796.962   -6657.0076   -102.05014    22994.021    35.997373 
    7760    1251.1113    -6796.552   -6656.9887    45.363773    23000.447    36.018113 
    7770    1256.6861    -6797.273   -6657.0878    222.96966     23007.01    36.038774 
    7780    1290.3991   -6801.3147   -6657.3687   -75.414283    23013.833    36.079388 
    7790    1286.2048   -6801.3935   -6657.9154   -381.10689    23020.635    36.148321 
    7800    1257.3647   -6799.0126   -6658.7517   -386.52957    23027.122    36.238806 
    7810    1213.2875   -6795.1135   -6659.7695   -220.06938    23033.271    36.330835 
    7820    1202.6067   -6795.0051   -6660.8525   -538.80093    23039.161    36.409009 
    7830     1207.373   -6796.6196   -6661.9353   -979.78864    23044.482      36.4701 
    7840    1212.6913   -6798.2902   -6663.0127   -1070.8583    23048.783    36.519821 
    7850    1210.4725   -6799.0934   -6664.0634   -1009.6306     23051.93    36.565192 
    7860    1219.1479   -6801.0812   -6665.0835   -888.94293    23053.982    36.613958 
    7870    1188.9926   -6798.6633   -6666.0293   -441.23258    23055.099    36.674697 
    7880    1164.4418   -6796.7376   -6666.8423     117.3822    23055.755    36.755948 
    7890    1160.7053   -6796.9671   -6667.4886    6.7434856    23056.472    36.847724 
    7900    1153.5148   -6796.6514    -6667.975   -340.19311    23057.193    36.942784 
    7910     1134.652    -6794.891   -6668.3188   -667.76357    23057.546     37.01812 
    7920    1137.1516   -6795.3516   -6668.5006   -1376.1045    23057.109    37.044658 
    7930    1177.4151   -6799.8925   -6668.5501   -1659.2996    23055.209    37.038622 
    7940    1185.4031   -6800.7719   -6668.5384   -1262.6562    23051.524    37.031613 
    7950    1174.5413   -6799.5125   -6668.4907   -550.72022    23046.462    37.017607 
    7960    1181.1804    -6800.162   -6668.3996   -377.08805    23040.716    36.989075 
    7970    1206.0269   -6802.8175   -6668.2833   -797.88732    23034.465     36.96046 
    7980    1200.3152   -6802.0543   -6668.1574   -813.94871     23027.37    36.937014 
    7990    1197.1223   -6801.5823   -6668.0415   -1015.2004    23019.324    36.922729 
    8000    1193.9395   -6801.1114   -6667.9256   -1146.9547    23010.149    36.931254 
    8010    1155.5874    -6796.701   -6667.7935   -856.10994    22999.711    36.976422 
    8020    1124.3551   -6792.9965    -6667.573   -293.61821    22988.347    37.037293 
    8030       1119.8   -6792.1096   -6667.1943   -163.47996    22976.593    37.074954 
    8040     1136.128   -6793.3698    -6666.633   -471.69021    22964.599    37.073563 
    8050    1171.7498   -6796.6071   -6665.8967   -877.68905    22952.068    37.047951 
    8060    1217.0773    -6800.824   -6665.0572   -1058.8503    22938.581    37.028416 
    8070    1235.5229   -6802.0337   -6664.2093   -732.13941    22923.981    37.018363 
    8080    1243.6801    -6802.162   -6663.4276   -350.29444    22908.586    37.008249 
    8090    1261.5067   -6803.4879    -6662.765   -737.47802    22892.725    36.994811 
    8100    1219.1541   -6798.2432   -6662.2447   -692.87052    22876.132    36.977429 
    8110    1204.7666   -6796.2104   -6661.8169   -692.96251    22858.798    36.960339 
    8120    1214.7168     -6796.92   -6661.4165   -943.70782    22840.705    36.955081 
    8130    1212.3864   -6796.2972   -6661.0536   -1022.1951    22821.624    36.961401 
    8140    1209.2911   -6795.6314   -6660.7331   -716.86548    22801.503    36.969154 
    8150    1202.0531   -6794.5041   -6660.4133   -217.68025    22780.685    36.968407 
    8160    1239.0402    -6798.338   -6660.1212   -90.694823    22759.632    36.944669 
    8170    1245.1908   -6798.7875   -6659.8846    427.93516    22738.603    36.915156 
    8180    1250.9582   -6799.3249   -6659.7786    503.13889    22718.059    36.893877 
    8190    1229.6624    -6796.947   -6659.7764    1026.5268     22698.21     36.87089 
    8200    1238.2201   -6797.9853     -6659.86    1426.1303    22679.532    36.833688 
    8210     1229.501   -6797.1757    -6660.023    1986.4323    22662.504       36.793 
    8220    1207.2682   -6794.9224   -6660.2498      2337.94    22647.658    36.760576 
    8230    1185.2159   -6792.7134   -6660.5007    2616.6783    22635.417    36.741768 
    8240    1200.1512   -6794.6498   -6660.7711    2197.6639    22625.963    36.718371 
    8250    1198.4887   -6794.7437   -6661.0504    2188.2156    22618.979    36.682395 
    8260     1227.924   -6798.3982   -6661.4214    2538.4567    22614.402    36.651785 
    8270    1231.6218   -6799.3314   -6661.9421    2952.8429    22612.578    36.650479 
    8280    1238.5801   -6800.8596   -6662.6941    2468.3395    22613.824     36.69395 
    8290    1228.6059   -6800.7842   -6663.7313    2057.7667    22617.716    36.773409 
    8300    1218.7152   -6801.0159   -6665.0664    2102.1869    22623.837    36.869657 
    8310    1230.8746   -6804.0381   -6666.7322    2118.4575    22632.125    36.965285 
    8320    1172.5714   -6799.3476   -6668.5455    3000.6613    22642.704     37.04886 
    8330    1145.9135   -6798.0368   -6670.2085    3148.9524    22656.335    37.122565 
    8340     1153.067   -6800.2166   -6671.5902    2539.1733    22673.169    37.201331 
    8350    1143.6484   -6800.2174   -6672.6417    1697.4639     22692.57    37.296203 
    8360    1145.0651   -6801.1183   -6673.3846     1122.287    22713.663    37.418847 
    8370    1149.6553    -6802.125   -6673.8792    941.02438    22735.813    37.563372 
    8380    1160.9223   -6803.6941   -6674.1915    700.55305    22758.753     37.70198 
    8390    1136.3882   -6801.1191   -6674.3533    873.31132    22782.281    37.815549 
    8400    1120.1618   -6799.3301   -6674.3744    871.98273    22806.502    37.902971 
    8410    1140.2023   -6801.4463    -6674.255     582.8615     22831.38    37.970353 
    8420    1136.4888   -6800.7961   -6674.0191    643.85224    22856.665    38.020342 
    8430    1111.5358    -6797.659   -6673.6655    709.03547    22882.389    38.063098 
    8440    1130.9254   -6799.3333   -6673.1769    583.93373    22908.574    38.115344 
    8450    1130.7583   -6798.6836   -6672.5458    887.57022    22935.171    38.196169 
    8460    1158.6383   -6801.0611   -6671.8132    615.72819    22962.389    38.314269 
    8470    1162.4191   -6800.6594   -6670.9898    105.73842    22989.958    38.454306 
[...]
   22890    1181.0569   -6795.7048   -6663.9561    1333.3206    22716.251    156.41426 
   22900    1256.8273   -6803.9878   -6663.7869    285.62996    22716.439    156.70908 
   22910    1258.4891   -6804.0791   -6663.6928    3.6853861    22717.049    157.03262 
   22920    1204.5024    -6798.078    -6663.714    451.07263    22717.728    157.39093 
   22930    1196.0944   -6797.1933   -6663.7671    857.20301    22718.895    157.75694 
   22940    1202.3028   -6797.9462   -6663.8276    1510.1557    22721.036    158.11229 
   22950    1201.5182   -6797.9389   -6663.9077    2118.5216    22724.836    158.48038 
   22960    1187.2778   -6796.4266    -6663.984     1932.308    22730.891    158.86547 
   22970    1190.6267   -6796.8648   -6664.0486    993.05325    22739.015    159.25505 
   22980    1185.5457   -6796.3341   -6664.0847    160.17528    22748.291    159.61391 
   22990    1205.8469   -6798.6247   -6664.1106   -483.60032    22757.825    159.96445 
   23000    1217.6662   -6799.9842   -6664.1517   -886.62623    22766.906    160.33249 
   23010    1209.4064   -6799.1402   -6664.2291   -1101.0506    22775.094    160.68344 
   23020    1211.6978   -6799.5276   -6664.3609   -1528.7828    22782.096     161.0141 
   23030    1186.3954   -6796.8529   -6664.5087   -1592.5888    22787.494     161.3566 
   23040    1206.7202   -6799.2772   -6664.6657   -1578.5783    22791.183    161.71387 
   23050    1220.5943   -6801.0186   -6664.8595   -1306.6994    22793.198    162.07383 
   23060    1195.4948   -6798.4702   -6665.1109   -781.75856    22793.831    162.41001 
   23070    1195.7319   -6798.7809   -6665.3952   -948.23876    22793.543    162.71027 
   23080    1195.0507   -6799.0118   -6665.7021   -721.19892    22792.265    162.99404 
   23090    1174.8823   -6797.0867   -6666.0269    262.76199    22790.295    163.26988 
   23100    1176.7457   -6797.6089   -6666.3412    548.69884    22788.543    163.53122 
   23110    1208.0087   -6801.4134   -6666.6582    292.94684    22787.351    163.77329 
   23120    1201.2052    -6801.024   -6667.0277    150.53732    22786.492    164.00042 
   23130    1152.5736    -6795.988   -6667.4167    642.89627    22785.866    164.20504 
   23140    1145.1134   -6795.4892   -6667.7501     828.7456    22785.913    164.35546 
   23150    1169.6075   -6798.4768   -6668.0053    650.30997    22786.823    164.49486 
   23160    1183.8204   -6800.2637   -6668.2068    1013.7146    22788.525    164.67565 
   23170    1175.3954    -6799.497   -6668.3799    1270.7429     22791.32    164.88236 
   23180    1149.4043    -6796.736   -6668.5182    1546.3216    22795.511    165.10905 
   23190    1160.7107   -6798.0552   -6668.5761    1475.3294    22801.357    165.37706 
   23200    1177.4988     -6799.89   -6668.5383    1229.3624    22808.791    165.69113 
   23210    1184.0402    -6800.526   -6668.4445    923.24376    22817.556    166.06224 
   23220    1159.2917   -6797.6147   -6668.2939    1119.7578    22827.403    166.47741 
   23230    1136.8471    -6794.855    -6668.038    880.38425    22838.431    166.88918 
   23240    1153.7106    -6796.319   -6667.6208     192.3376    22850.378    167.24262 
   23250    1173.5671   -6797.9613   -6667.0481   -40.290464    22862.576    167.53019 
   23260    1174.4495    -6797.361   -6666.3494    99.587314    22874.774    167.78668 
   23270    1161.3807   -6795.1084   -6665.5546    78.594924    22887.068    168.03673 
   23280    1150.5617   -6793.0012   -6664.6543   -24.351156    22899.444    168.29815 
   23290    1155.5391   -6792.5403   -6663.6382     232.6925    22911.827     168.5945 
   23300     1164.963   -6792.4879   -6662.5346    430.48782     22924.46    168.91442 
   23310    1169.6576   -6791.8607   -6661.3836    244.20104    22937.535    169.22148 
   23320    1211.0303   -6795.3512   -6660.2589   -347.95316    22950.821    169.48603 
   23330    1229.4394   -6796.3724   -6659.2265   -448.24451    22963.778    169.70733 
   23340    1231.7329   -6795.7828   -6658.3811   -83.170481    22976.304    169.90021 
   23350    1252.0366   -6797.3834   -6657.7168    -251.5889    22988.702     170.1195 
   23360    1275.7702    -6799.561   -6657.2469   -631.51619    23000.822    170.38333 
   23370    1265.5536   -6798.1622   -6656.9878   -1048.7101    23012.257    170.67193 
   23380    1258.2629   -6797.2686   -6656.9075   -1573.1774    23022.532    170.97202 
   23390     1254.161   -6796.8683   -6656.9647   -2222.1421    23031.061    171.26377 
   23400    1235.2472   -6794.9199   -6657.1262   -2905.4172    23037.135    171.52878 
   23410    1215.2842   -6792.9214   -6657.3546   -3311.2107    23040.021    171.74598 
   23420    1220.4091   -6793.7515    -6657.613   -3519.2848    23039.252     171.8882 
   23430    1232.3866    -6795.397   -6657.9224   -3237.1715    23034.624    171.97183 
   23440    1228.6362   -6795.3515   -6658.2953   -2416.1508     23026.45    172.04778 
   23450    1215.7529   -6794.3347   -6658.7156    -1570.411    23015.597    172.11803 
   23460    1211.1441   -6794.2662   -6659.1612   -1491.9107    23002.914     172.1652 
   23470    1206.3866   -6794.1927   -6659.6185   -1512.7176    22988.582    172.17015 
   23480    1212.0607   -6795.2924   -6660.0852    -2033.924    22972.523    172.13124 
   23490    1231.8637   -6798.0134   -6660.5972   -2941.6788    22954.185    172.08008 
   23500    1217.6136    -6797.013   -6661.1863   -3229.5187    22932.676     172.0302 
   23510    1178.5421   -6793.2629   -6661.7947   -3112.4144     22907.66    171.97195 
   23520    1179.3953   -6793.9265   -6662.3632   -2832.9828    22879.271     171.8879 
   23530     1185.513   -6795.1251   -6662.8794   -2116.8177    22847.847    171.76877 
   23540    1177.4693    -6794.673   -6663.3245   -919.17353    22814.219    171.60302 
   23550    1195.8508   -6797.1066   -6663.7076   -247.88101    22779.603    171.39363 
   23560    1191.7036   -6796.9921   -6664.0557   -171.38126    22744.757     171.1714 
   23570    1185.1065   -6796.5886   -6664.3882   -182.83486    22709.845    170.95694 
   23580    1197.9163   -6798.3188   -6664.6894    345.89616    22674.941    170.73505 
   23590      1208.28   -6799.7655   -6664.9801    828.28244    22640.552    170.52864 
   23600    1221.6868   -6801.5896   -6665.3086    1236.1231    22607.205    170.34048 
   23610    1193.5499   -6798.7926   -6665.6503    2070.1853    22575.425    170.15467 
   23620      1205.35   -6800.4648   -6666.0062    1952.6367    22545.936    169.96699 
   23630    1213.3573   -6801.7496   -6666.3977    1753.1685    22518.704    169.79654 
   23640    1210.8119   -6801.9268   -6666.8589    1432.9228    22493.456    169.65052 
   23650    1214.7081   -6802.8973   -6667.3948    1032.7172     22469.86    169.52446 
   23660    1203.5061   -6802.2614   -6668.0085    1084.3796    22447.545    169.42197 
   23670    1206.4437   -6803.2734   -6668.6928    1187.3019    22426.501    169.38298 
   23680     1241.194   -6807.9549   -6669.4978    1304.4762    22406.829    169.43246 
   23690    1229.3769    -6807.608   -6670.4692    1546.3783    22388.662     169.4885 
   23700    1216.1911   -6807.2703   -6671.6023    1263.9661    22372.173    169.45654 
   23710    1204.9061   -6807.2668   -6672.8577    840.09334    22357.079    169.34396 
   23720    1178.5983   -6805.6099   -6674.1355    923.88538    22343.005    169.21378 
   23730    1177.2983   -6806.6741   -6675.3447    1047.6749    22329.969    169.10396 
   23740    1188.1277   -6808.9713   -6676.4338    1638.0918    22318.143    169.01338 
   23750    1187.7529   -6809.8747   -6677.3791    2229.6965     22308.08    168.93454 
   23760    1192.0179   -6811.1182   -6678.1468    2486.0425    22300.362    168.87055 
   23770    1218.0048   -6814.6444   -6678.7742    2788.9597    22295.275    168.83532 
   23780    1213.6188   -6814.6808   -6679.2998    3202.3762      22293.1     168.8506 
   23790    1213.7915   -6815.1399   -6679.7396    3597.5075    22294.263    168.90189 
   23800    1205.5986    -6814.602   -6680.1156    4139.5988    22299.186      168.972 
   23810    1209.0324   -6815.3097   -6680.4403    3758.9961    22308.309     169.0406 
   23820     1213.851   -6816.1279    -6680.721    2817.9981    22321.291    169.08928 
   23830    1201.4312   -6815.0006   -6680.9791    1907.8991    22337.204    169.13552 
   23840    1183.6956    -6813.239   -6681.1959    1048.4423    22355.087    169.22935 
   23850    1165.0796    -6811.316   -6681.3497    792.58244    22374.084    169.41127 
   23860    1143.9424    -6809.029   -6681.4205    1142.7201    22393.928    169.65174 
   23870     1130.909   -6807.5285   -6681.3739     1449.903    22414.934    169.85173 
   23880    1158.9188   -6810.4754   -6681.1963    899.34905    22437.345    169.97719 
   23890     1183.735    -6812.959   -6680.9116    460.68845    22460.689    170.08028 
   23900    1191.7366   -6813.5262   -6680.5862    406.85488    22484.501    170.18395 
   23910    1189.2132   -6812.9069   -6680.2483    763.46408    22508.742    170.29273 
   23920    1170.9497    -6810.518   -6679.8968    1268.9025    22533.749    170.44348 
   23930    1160.9219   -6809.0069   -6679.5043      1702.79     22560.04     170.6736 
   23940    1162.0873   -6808.6769   -6679.0443    1725.9244    22588.043    170.97283 
   23950    1149.9675   -6806.7739   -6678.4933    1492.8912    22617.804    171.29426 
   23960    1158.8414   -6807.1069   -6677.8364    1093.3118    22649.065    171.57257 
   23970    1154.8845   -6805.9128   -6677.0837    907.92619    22681.423    171.80708 
   23980    1142.4025   -6803.6885   -6676.2518    711.60329    22714.651    172.01004 
   23990    1159.2795   -6804.6557   -6675.3363    272.30081    22748.502    172.15369 
   24000    1183.3531    -6806.361   -6674.3562   -635.96373    22782.457    172.28249 
   24010    1178.3483   -6804.8279   -6673.3814   -1139.9759    22815.605    172.46407 
   24020    1141.6101   -6799.8078   -6672.4595   -796.32206    22847.444    172.68824 
   24030    1164.0406   -6801.4032   -6671.5527   -1051.3119    22878.194    172.92719 
   24040    1187.0535    -6803.064   -6670.6464    -1398.432    22907.624    173.17973 
   24050    1194.4204   -6803.0562   -6669.8168   -1411.8684    22935.391    173.44721 
   24060    1210.4034   -6804.1089   -6669.0865   -1446.1246    22961.436    173.70149 
   24070    1197.7512   -6802.0708   -6668.4599   -1127.4388     22985.76    173.95576 
   24080    1190.7051   -6800.7394   -6667.9144   -625.56108    23008.707    174.24398 
   24090    1222.6173   -6803.8159   -6667.4311    -858.8833    23030.718    174.56149 
   24100    1219.3351   -6803.0373   -6667.0186    -1018.431    23051.657    174.92648 
   24110    1207.4892   -6801.3858   -6666.6886   -1260.3298    23071.312     175.3193 
   24120    1194.4895   -6799.6419   -6666.3948   -1438.9786    23089.452    175.66272 
   24130    1211.9609    -6801.321   -6666.1249   -1770.4254    23105.849    175.90496 
   24140    1197.5889   -6799.4623   -6665.8694   -1628.9334    23120.236    176.06248 
   24150    1178.7725   -6797.1228    -6665.629   -1409.0518    23132.721    176.14362 
   24160    1183.1193   -6797.3375   -6665.3587   -1630.3228    23143.518    176.15132 
   24170    1190.3068   -6797.8358   -6665.0553   -2123.7168    23152.409    176.13511 
   24180    1187.0198   -6797.1542   -6664.7404   -2379.1028      23158.9    176.15556 
   24190    1135.0263   -6790.9989    -6664.385   -2593.8368    23162.699    176.25077 
   24200    1123.3079   -6789.2361   -6663.9294   -3183.5898    23163.543    176.38055 
   24210    1138.8775   -6790.3608   -6663.3173   -3631.4353    23160.829    176.49056 
   24220    1158.7947   -6791.8458   -6662.5805   -3482.6745    23154.139     176.5497 
   24230    1165.6952   -6791.7885   -6661.7534   -2794.5658    23143.667    176.55584 
   24240    1183.1312   -6792.8538   -6660.8737   -1989.2355    23130.157    176.53163 
   24250    1239.5423   -6798.2746   -6660.0018   -1830.0621    23114.432      176.498 
   24260    1229.2882   -6796.3549    -6659.226   -1491.1353     23096.79    176.46252 
   24270     1228.436   -6795.6282   -6658.5943   -1331.6841    23077.569    176.42061 
   24280     1237.356   -6796.1124   -6658.0835   -1230.4648    23056.976    176.36259 
   24290    1241.5319   -6796.1911   -6657.6963     -963.637    23035.146    176.27091 
   24300    1259.8279   -6797.9773   -6657.4416   -522.87481    23012.381    176.15521 
   24310    1251.4223   -6796.9182   -6657.3201    582.70158    22989.249    176.04867 
   24320    1236.2198   -6795.2063   -6657.3041    1401.6771    22966.863    175.95453 
   24330    1238.3873   -6795.5126   -6657.3686    1471.3423    22946.077    175.87629 
   24340    1242.7832   -6796.1535   -6657.5192    1165.4408    22926.983     175.8267 
   24350    1228.4292   -6794.7881    -6657.755    1108.7183    22909.295    175.80757 
   24360    1202.3352   -6792.1422   -6658.0199    1457.8219    22892.976      175.781 
   24370    1216.8885   -6794.0434   -6658.2977    1688.0824    22878.345    175.69899 
   24380     1208.585   -6793.4114   -6658.5919    1593.9962    22865.606    175.57607 
   24390    1178.3403   -6790.3166    -6658.871    1359.5765    22854.665    175.45087 
   24400    1194.5711   -6792.3824   -6659.1262    720.05673    22845.191    175.32979 
   24410    1177.6778   -6790.7043   -6659.3326    791.55798     22836.64    175.24281 
   24420    1165.0919   -6789.4627    -6659.495    918.56658    22828.979    175.20291 
   24430    1164.7961    -6789.506   -6659.5712    1034.4855    22822.353    175.18861 
   24440    1185.3483    -6791.814   -6659.5867    883.57257    22816.848    175.19614 
   24450    1201.3128   -6793.5702    -6659.562    1101.2787    22812.373    175.23954 
   24460    1225.7098   -6796.2777    -6659.548    1360.3544    22809.106    175.31453 
   24470    1253.0116   -6799.3683   -6659.5929      920.295    22807.265    175.41163 
   24480    1256.2361    -6799.904   -6659.7689    214.50887    22806.405    175.49533 
   24490    1192.8111   -6793.1007   -6660.0408    452.52983    22805.895    175.53616 
   24500    1162.1259   -6789.9532   -6660.3163   0.98934592    22805.798    175.55597 
   24510    1180.3085   -6792.2055   -6660.5403    -710.7013    22805.668    175.55243 
   24520    1192.0464   -6793.7082   -6660.7336   -516.12444    22804.866    175.49464 
   24530    1205.1065   -6795.3683   -6660.9369   -155.58683     22803.52    175.36573 
   24540    1193.9177   -6794.3607   -6661.1774    186.95076    22802.005    175.19854 
   24550     1183.418   -6793.4642   -6661.4521    266.09599    22800.679     175.0563 
   24560    1204.5986   -6796.1494   -6661.7746   -501.62979    22799.559    174.98287 
   24570    1182.0385   -6794.0266   -6662.1684   -793.53543    22797.958    175.00243 
   24580    1173.1779   -6793.5072   -6662.6374   -745.29103    22795.525    175.09804 
   24590    1196.6882   -6796.6944    -6663.202   -582.27071    22792.303    175.23007 
   24600    1200.0153   -6797.7748   -6663.9113   -496.11769    22788.431    175.34082 
   24610    1177.7777   -6796.1594   -6664.7765   -71.725509    22784.051     175.3917 
   24620    1150.1861   -6794.0124   -6665.7074    829.33015    22779.647    175.37018 
   24630    1157.8522   -6795.8169   -6666.6567    1233.6898    22776.083    175.33407 
   24640    1158.3679   -6796.7943   -6667.5766    1238.1296    22773.841    175.38432 
   24650    1178.1334   -6799.8979   -6668.4754    477.63785    22772.866    175.54925 
   24660    1184.5023   -6801.4836   -6669.3506   -148.14228    22772.426    175.76724 
   24670    1176.3717   -6801.3987   -6670.1727    -358.2616    22771.871    175.99849 
   24680    1187.0973   -6803.3666   -6670.9441   -686.47748    22770.915    176.22406 
   24690    1191.4654     -6804.59   -6671.6803   -942.33848    22769.222    176.40864 
   24700     1173.609   -6803.2724   -6672.3545   -884.75561    22766.547    176.50848 
   24710    1186.1804    -6805.286   -6672.9658   -877.85786    22762.891    176.55118 
   24720    1187.1359   -6805.9496   -6673.5228    -175.4227    22758.353    176.58947 
   24730    1171.4931   -6804.7084   -6674.0266    416.53681    22753.581    176.62265 
   24740    1176.3933   -6805.6816   -6674.4531    394.66626    22749.193    176.61517 
   24750    1188.7622    -6807.451   -6674.8428     481.4394    22745.231    176.56298 
   24760    1143.8527   -6802.7594   -6675.1609    1147.1472    22741.852    176.47619 
   24770    1149.4386   -6803.6054   -6675.3838    1069.3462    22739.613    176.37332 
   24780    1146.4265   -6803.3757   -6675.4901    1225.1084    22738.548    176.30328 
   24790      1139.41   -6802.5806   -6675.4777    1714.3167    22738.862    176.32329 
   24800    1146.5703   -6803.2412   -6675.3395    1469.9446    22740.956    176.45474 
   24810    1140.9755   -6802.3467   -6675.0691    1091.7886    22744.641     176.6424 
   24820    1152.3022   -6803.2093   -6674.6682    490.99083    22749.491    176.81628 
   24830    1177.7326   -6805.5249   -6674.1471    530.17862    22754.984    176.98059 
   24840    1183.0426   -6805.5083   -6673.5381    915.04298    22761.114    177.17767 
   24850    1186.6873   -6805.2563   -6672.8796    1332.0132    22768.293    177.38553 
   24860    1172.2868   -6802.9368   -6672.1664    1650.0228     22776.97    177.55699 
   24870    1188.6306   -6804.0024   -6671.4088    1566.2786    22787.457    177.69294 
   24880    1209.7524   -6805.5602   -6670.6105    1218.7175     22799.71    177.84428 
   24890    1193.8206   -6802.9978   -6669.8253    1008.0254     22813.41    178.07025 
   24900    1187.4205   -6801.5197   -6669.0612    788.53537    22828.294    178.36372 
   24910    1190.4322   -6801.0933   -6668.2988    898.99246    22844.204    178.65609 
   24920    1214.0885    -6802.987   -6667.5536    614.80522    22861.177    178.92703 
   24930    1233.9247   -6804.5118   -6666.8657    645.66335    22878.995    179.18974 
   24940    1240.5449   -6804.6723   -6666.2877    698.23666     22897.67    179.45212 
   24950    1256.4501   -6806.0051   -6665.8462    528.55353     22917.23    179.70204 
   24960    1238.3595   -6803.6849    -6665.544    800.88144      22937.6    179.94508 
   24970    1235.1476   -6803.1561   -6665.3735    536.42036    22958.955    180.20969 
   24980    1224.1154   -6801.8371   -6665.2852    73.544037    22981.062    180.48171 
   24990    1217.1409   -6801.0288   -6665.2549   -690.24283    23003.381    180.72999 
   25000     1206.006   -6799.7894   -6665.2576   -1233.5399     23025.13    180.95544 
Loop time of 11762 on 16 procs for 20000 steps with 864 atoms

Performance: 0.147 ns/day, 163.361 hours/ns, 1.700 timesteps/s
97.9% CPU use with 16 MPI tasks x 1 OpenMP threads

MPI task timing breakdown:
Section |  min time  |  avg time  |  max time  |%varavg| %total
---------------------------------------------------------------
Pair    | 9011.8     | 10248      | 11295      | 868.2 | 87.13
Bond    | 0.0016954  | 0.004569   | 0.01327    |   4.0 |  0.00
Neigh   | 0.22554    | 0.27246    | 0.3203     |   6.7 |  0.00
Comm    | 313.55     | 1291.3     | 2498.5     |2264.1 | 10.98
Output  | 1.4793     | 1.5058     | 1.8906     |   8.1 |  0.01
Modify  | 144.8      | 220.98     | 346.3      | 503.3 |  1.88
Other   |            | 0.08344    |            |       |  0.00

Nlocal:        54.0000 ave          64 max          44 min
Histogram: 1 1 2 3 1 1 2 2 1 2
Nghost:        469.125 ave         513 max         430 min
Histogram: 4 1 1 2 0 1 2 1 2 2
Neighs:         0.00000 ave           0 max           0 min
Histogram: 16 0 0 0 0 0 0 0 0 0
FullNghs:      2016.00 ave        2672 max        1356 min
Histogram: 2 1 2 3 1 0 3 0 2 2

Total # of neighbors = 32256
Ave neighs/atom = 37.333333
Ave special neighs/atom = 0.0000000
Neighbor list builds = 2000
Dangerous builds = 2000
unfix   3
                
Total wall time: 4:06:58
