LAMMPS (2 Aug 2023)
OMP_NUM_THREADS environment is not set. Defaulting to 1 thread. (src/comm.cpp:98)
  using 1 OpenMP thread(s) per MPI task
read_restart    ../structure.ready
Reading restart file ...
  restart file = 2 Aug 2023, LAMMPS = 2 Aug 2023
  restoring atom style full from restart
  orthogonal box = (-0.73569318 -0.82717062 -9.2097329) to (24.671166 24.762643 81.01615)
  1 by 1 by 1 MPI processor grid
  pair style chgnet/gpu stores no restart info
  1536 atoms
Finding 1-2 1-3 1-4 neighbors ...
  special bond factors lj:    0        0        0       
  special bond factors coul:  0        0        0       
     0 = max # of 1-2 neighbors
     0 = max # of 1-3 neighbors
     0 = max # of 1-4 neighbors
     1 = max # of special neighbors
  special bonds CPU = 0.014 seconds
  read_restart CPU = 0.019 seconds

pair_style      chgnet/gpu /ocean/projects/cts180021p/wuziqi/clease/lammps-ASC/potentials/CHGNET
pair_coeff      * * MPtrj-efsm Cl K Li

neighbor        0.3 bin
neigh_modify    delay 10

timestep	    0.001
compute	        msd all msd
Resetting peratom fix info from restart file:
  fix style: STORE/ATOM, fix ID: msd_COMPUTE_STORE
thermo_style	custom step temp pe etotal press vol c_msd[4]
thermo	        10
dump	        1 all custom 10 xyz-mix.dump type id x y z
dump	        2 all custom 10 force-mix.dump type id fx fy fz

fix             2 gLiquid npt temp 1500 600.0 $(100.0*dt) z 1.01325 1.01325 $(1000.0*dt) couple none
fix             2 gLiquid npt temp 1500 600.0 0.10000000000000000555 z 1.01325 1.01325 $(1000.0*dt) couple none
fix             2 gLiquid npt temp 1500 600.0 0.10000000000000000555 z 1.01325 1.01325 1 couple none
run             10000
All restart file peratom fix info was re-assigned
Neighbor list info ...
  update: every = 1 steps, delay = 10 steps, check = yes
  max neighbors/atom: 2000, page size: 100000
  master list distance cutoff = 6.3
  ghost atom cutoff = 6.3
  binsize = 3.15, bins = 9 9 29
  1 neighbor lists, perpetual/occasional/extra = 1 0 0
  (1) pair chgnet/gpu, perpetual
      attributes: full, newton on
      pair build: full/bin
      stencil: full/bin/3d
      bin: standard
Per MPI rank memory allocation (min/avg/max) = 6.519 | 6.519 | 6.519 Mbytes
   Step          Temp          PotEng         TotEng         Press          Volume        c_msd[4]   
     20000   1512.4261     -5388.1077     -5088.0207      2618.0871      58660.97       49.242492    
     20010   1521.4932     -5389.9365     -5088.0505      2461.3844      58661.128      49.35739     
     20020   1515.6368     -5388.8815     -5088.1574      2514.4223      58661.523      49.445333    
     20030   1508.7178     -5387.692      -5088.3408      2722.0006      58662.173      49.523421    
     20040   1491.7727     -5384.5378     -5088.5488      2996.4783      58663.361      49.610468    
     20050   1485.4277     -5383.4839     -5088.7538      3221.1279      58665.356      49.704677    
     20060   1506.1992     -5387.8081     -5088.9566      3241.3281      58667.994      49.794617    
     20070   1509.158      -5388.6482     -5089.2096      3227.2478      58671.117      49.885702    
     20080   1491.2481     -5385.4124     -5089.5274      3225.573       58674.957      49.984478    
     20090   1471.2428     -5381.7883     -5089.8727      2999.7317      58679.918      50.085775    
     20100   1460.5198     -5379.9584     -5090.1703      2633.9343      58686.116      50.193494    
     20110   1456.9515     -5379.4772     -5090.3971      2204.609       58693.073      50.312311    
     20120   1442.4094     -5376.702      -5090.5073      2055.9954      58700.202      50.440446    
     20130   1450.1303     -5378.2167     -5090.49        2029.6432      58707.102      50.575364    
     20140   1460.8782     -5380.1726     -5090.3134      2140.4607      58713.595      50.723873    
     20150   1459.5212     -5379.59       -5090.0001      2459.2893      58719.839      50.890647    
     20160   1452.5556     -5377.7153     -5089.5075      2793.8276      58726.102      51.067064    
     20170   1479.7476     -5382.4167     -5088.8136      2655.8762      58732.638      51.243876    
     20180   1489.0573     -5383.3934     -5087.9431      2738.7639      58739.841      51.418451    
     20190   1473.8972     -5379.3776     -5086.9352      2942.554       58748.188      51.589175    
     20200   1464.078      -5376.2523     -5085.7583      2952.2487      58757.705      51.748961    
     20210   1469.5313     -5375.9506     -5084.3745      2667.0914      58767.979      51.90496     
     20220   1493.9726     -5379.2432     -5082.8176      2247.7896      58778.557      52.067452    
     20230   1544.1681     -5387.5931     -5081.2081      1778.4552      58789.003      52.236249    
     20240   1556.5685     -5388.583      -5079.7375      1719.0309      58798.844      52.400442    
     20250   1566.5113     -5389.4062     -5078.588       1588.7097      58807.877      52.555996    
     20260   1555.6655     -5386.4506     -5077.7842      1551.4346      58816.132      52.700873    
     20270   1538.498      -5382.5519     -5077.2918      1712.5446      58823.529      52.829647    
     20280   1533.9751     -5381.4155     -5077.0529      1935.3629      58829.967      52.946216    
     20290   1517.3854     -5378.0955     -5077.0245      2240.2772      58835.491      53.058953    
     20300   1498.2856     -5374.4242     -5077.1429      2587.509       58840.5        53.169579    
     20310   1498.8801     -5374.7937     -5077.3944      2704.5691      58845.714      53.288299    
     20320   1489.5849     -5373.29       -5077.7351      2819.976       58851.526      53.425314    
     20330   1474.4393     -5370.6998     -5078.15        2942.3603      58858.113      53.574262    
     20340   1469.552      -5370.1849     -5078.6048      2800.1123      58865.381      53.723958    
     20350   1466.4959     -5370.0487     -5079.0749      2653.9347      58873.005      53.869341    
     20360   1472.8627     -5371.7878     -5079.5508      2468.3502      58880.774      54.005107    
     20370   1497.8369     -5377.3136     -5080.1213      2284.3818      58888.654      54.119577    
     20380   1503.3479     -5379.1146     -5080.8289      2367.1544      58896.859      54.237955    
     20390   1503.8191     -5380.136      -5081.7567      2558.2158      58905.772      54.36922     
     20400   1495.2866     -5379.5651     -5082.8788      2727.0292      58915.826      54.49844     
     20410   1492.147      -5380.2708     -5084.2074      2736.646       58927.378      54.628243    
     20420   1484.4367     -5380.2242     -5085.6907      2630.0573      58940.371      54.760412    
     20430   1493.5356     -5383.6523     -5087.3135      2387.5702      58954.614      54.896939    
     20440   1478.624      -5382.401      -5089.0208      2425.057       58969.855      55.048517    
     20450   1461.0225     -5380.5894     -5090.7016      2542.1968      58985.873      55.209423    
     20460   1452.7614     -5380.4744     -5092.2257      2459.6342      59002.377      55.366085    
     20470   1469.7863     -5385.197      -5093.5704      2109.8675      59018.96       55.518307    
     20480   1478.2204     -5388.0571     -5094.757       1751.6166      59035.171      55.672317    
     20490   1481.5584     -5389.7805     -5095.8181      1468.8245      59050.798      55.826727    
     20500   1492.9337     -5393.0105     -5096.7911      1340.2844      59065.851      55.97972     
     20510   1482.3035     -5391.8002     -5097.6899      1460.7006      59080.45       56.128695    
     20520   1471.1114     -5390.3899     -5098.5003      1478.7168      59094.685      56.27596     
     20530   1483.5832     -5393.606      -5099.2418      1128.1363      59108.272      56.411056    
     20540   1476.142      -5392.8365     -5099.9488      1074.0647      59120.604      56.524533    
     20550   1459.0378     -5390.1207     -5100.6267      1151.7377      59131.513      56.633039    
     20560   1443.5464     -5387.6602     -5101.2399      935.22933      59140.864      56.746314    
     20570   1424.6712     -5384.4188     -5101.7437      689.11567      59148.312      56.858449    
     20580   1418.464      -5383.5732     -5102.1297      604.799        59153.707      56.969109    
     20590   1414.602      -5383.0627     -5102.3855      556.52979      59157.014      57.082129    
     20600   1415.018      -5383.2839     -5102.5241      471.03106      59158.238      57.19642     
     20610   1423.674      -5385.0271     -5102.5498      298.86067      59157.347      57.309033    
     20620   1439.2694     -5388.0828     -5102.5111      210.65853      59154.186      57.416696    
     20630   1442.54       -5388.6735     -5102.4529      294.05073      59148.995      57.508069    
     20640   1433.9939     -5386.9124     -5102.3874      452.84915      59142.227      57.582006    
     20650   1430.2691     -5386.0957     -5102.3098      709.4984       59133.986      57.642789    
     20660   1419.4273     -5383.8073     -5102.1726      1099.2128      59123.949      57.685586    
     20670   1429.9924     -5385.7251     -5101.9941      1351.6204      59111.743      57.699167    
     20680   1422.7841     -5384.0486     -5101.7478      1611.7609      59097.38       57.698308    
     20690   1432.9937     -5385.7866     -5101.4602      1459.4217      59081.071      57.705329    
     20700   1441.834      -5387.2236     -5101.1431      1282.3072      59062.886      57.707159    
     20710   1429.1796     -5384.3628     -5100.7931      1399.9165      59042.992      57.688878    
     20720   1449.3454     -5388.0004     -5100.4295      1240.9159      59021.507      57.659707    
     20730   1473.2456     -5392.4103     -5100.0973      1169.2005      58998.167      57.62846     
     20740   1479.3434     -5393.3771     -5099.8542      1186.0698      58972.964      57.590703    
     20750   1486.8594     -5394.8046     -5099.7904      1245.013       58945.961      57.541388    
     20760   1479.3709     -5393.4412     -5099.9128      1527.8927      58917.329      57.490061    
     20770   1473.1551     -5392.5187     -5100.2236      1698.8521      58887.388      57.442562    
     20780   1458.026      -5390.0123     -5100.7191      1956.3796      58856.296      57.395297    
     20790   1461.0702     -5391.2695     -5101.3723      2192.3802      58824.446      57.356922    
     20800   1474.292      -5394.7478     -5102.2272      2314.2399      58792.523      57.333521    
     20810   1468.278      -5394.6852     -5103.3578      2360.461       58760.889      57.315371    
     20820   1464.069      -5395.2327     -5104.7404      2167.0507      58729.729      57.306522    
     20830   1463.1264     -5396.7188     -5106.4135      1900.2699      58698.921      57.296143    
     20840   1420.7594     -5390.0944     -5108.1953      1968.5698      58667.999      57.275131    
     20850   1413.4838     -5390.4089     -5109.9535      1834.6465      58636.926      57.243689    
     20860   1410.8837     -5391.5167     -5111.5772      1798.2551      58605.806      57.210984    
     20870   1406.5295     -5392.1008     -5113.0252      1710.5326      58574.724      57.178856    
     20880   1403.1613     -5392.6443     -5114.237       1511.1088      58543.495      57.143807    
     20890   1407.2439     -5394.4816     -5115.2642      1336.5006      58511.776      57.085799    
     20900   1406.3698     -5395.1466     -5116.1027      1411.6607      58479.108      56.994608    
     20910   1396.4582     -5393.8546     -5116.7773      1566.9085      58445.512      56.886504    
     20920   1400.4582     -5395.1697     -5117.2987      1393.5427      58411.315      56.788511    
     20930   1404.4861     -5396.3672     -5117.697       1162.5507      58376.537      56.709496    
     20940   1401.0518     -5395.998      -5118.0093      1085.9175      58341.172      56.642762    
     20950   1416.8484     -5399.3793     -5118.2562      1008.2872      58305.209      56.579027    
     20960   1424.8478     -5401.218      -5118.5078      1168.1562      58268.429      56.509175    
     20970   1442.9325     -5405.0845     -5118.786       1321.2023      58230.518      56.431547    
     20980   1449.8372     -5406.8174     -5119.1489      1631.1703      58191.446      56.35368     
     20990   1423.9209     -5402.1281     -5119.6018      2228.3255      58151.557      56.280422    
     21000   1413.5302     -5400.5244     -5120.0598      2581.2692      58111.479      56.202432    
     21010   1429.0886     -5404.0789     -5120.5272      2690.7368      58071.736      56.117816    
     21020   1403.3515     -5399.4595     -5121.0144      3153.3485      58032.729      56.044845    
     21030   1383.6327     -5395.9867     -5121.4541      3541.1573      57994.996      55.986585    
     21040   1372.1847     -5394.0513     -5121.7902      3665.3567      57958.713      55.932879    
     21050   1375.9671     -5395.0195     -5122.0079      3393.0941      57923.871      55.883095    
     21060   1389.5853     -5397.854      -5122.1404      2840.987       57890.31       55.825501    
     21070   1396.2671     -5399.2603     -5122.2209      2519.8629      57857.56       55.762545    
     21080   1394.8236     -5399.02       -5122.267       2594.3962      57825.501      55.704416    
     21090   1410.1816     -5402.1006     -5122.3004      2668.014       57794.454      55.653691    
     21100   1427.7573     -5405.6418     -5122.3544      2617.8238      57764.744      55.626171    
     21110   1438.3556     -5407.8944     -5122.5041      2609.9749      57736.53       55.626167    
     21120   1443.7117     -5409.26       -5122.8069      2539.9773      57709.84       55.633922    
     21130   1447.6628     -5410.5469     -5123.3098      2424.4555      57684.504      55.625959    
     21140   1455.5952     -5412.8793     -5124.0683      2378.7179      57660.115      55.594678    
     21150   1439.8385     -5410.7849     -5125.1003      2569.8409      57636.255      55.55479     
     21160   1425.6358     -5409.2622     -5126.3956      2719.1827      57612.952      55.522051    
     21170   1412.3304     -5408.1127     -5127.8861      2765.6115      57590.156      55.502683    
     21180   1404.4587     -5408.1969     -5129.5322      2841.868       57567.507      55.494075    
     21190   1381.1134     -5405.2408     -5131.2082      3080.9818      57544.597      55.4917      
     21200   1358.3743     -5402.3035     -5132.7826      3249.0416      57521.453      55.489608    
     21210   1351.9946     -5402.3855     -5134.1304      3270.2741      57498.788      55.489693    
     21220   1356.1003     -5404.2737     -5135.204       3055.1761      57477.299      55.503766    
     21230   1387.3496     -5411.3525     -5136.0825      2572.0849      57456.83       55.533317    
     21240   1395.8177     -5413.7941     -5136.8438      2285.8624      57436.629      55.568248    
     21250   1373.9848     -5410.1133     -5137.495       2525.4988      57416.249      55.600737    
     21260   1351.9248     -5406.2186     -5137.9774      2845.3524      57395.955      55.623525    
     21270   1348.4191     -5405.8154     -5138.2698      2982.106       57376.17       55.638787    
     21280   1345.5865     -5405.3844     -5138.4008      3030.1852      57357.125      55.657313    
     21290   1342.7114     -5404.7871     -5138.3739      2999.9185      57338.72       55.682972    
     21300   1373.7411     -5410.8201     -5138.2501      2741.9181      57320.753      55.709647    
     21310   1385.7569     -5413.0573     -5138.1032      2743.3379      57303.167      55.734046    
     21320   1382.346      -5412.2435     -5137.9663      2970.6866      57286.465      55.764548    
     21330   1393.6878     -5414.391      -5137.8634      3148.2845      57271.348      55.803906    
     21340   1396.9215     -5414.9707     -5137.8015      3335.9128      57258.137      55.838946    
     21350   1390.4546     -5413.6886     -5137.8025      3617.4225      57246.855      55.859639    
     21360   1392.0632     -5414.0526     -5137.8473      3817.0702      57237.616      55.87598     
     21370   1407.2981     -5417.1757     -5137.9476      3708.3512      57230.574      55.913607    
     21380   1430.6271     -5422.0239     -5138.167       3329.1775      57225.596      55.987044    
     21390   1426.9648     -5421.6877     -5138.5575      3226.5377      57222.365      56.088326    
     21400   1404.7551     -5417.8403     -5139.1168      3344.3628      57220.722      56.201738    
     21410   1398.294      -5417.2181     -5139.7766      3129.2397      57220.586      56.315183    
     21420   1404.269      -5419.1356     -5140.5085      2609.1962      57221.653      56.420129    
     21430   1414.5013     -5422.006      -5141.3487      2127.7419      57223.265      56.519392    
     21440   1400.1696     -5420.1255     -5142.3118      2083.3704      57224.678      56.61943     
     21450   1372.5389     -5415.6515     -5143.3201      2411.1821      57225.625      56.719992    
     21460   1358.9887     -5413.9362     -5144.2933      2734.4562      57226.341      56.821543    
     21470   1352.2997     -5413.4868     -5145.1712      3004.2664      57227.134      56.932782    
     21480   1356.2204     -5415.0352     -5145.9416      3037.4972      57228.237      57.049981    
     21490   1383.7011     -5421.1981     -5146.652       2706.6069      57229.763      57.155824    
     21500   1394.5159     -5424.0626     -5147.3707      2452.9991      57231.522      57.246726    
     21510   1389.8672     -5423.907      -5148.1374      2307.945       57233.222      57.33426     
     21520   1393.5731     -5425.4429     -5148.938       2116.2516      57234.568      57.419368    
     21530   1389.3924     -5425.4407     -5149.7653      2166.6316      57235.189      57.501282    
     21540   1399.2079     -5428.2631     -5150.6402      2262.7573      57235.038      57.577179    
     21550   1387.3978     -5426.8066     -5151.5271      2567.9776      57234.507      57.642382    
     21560   1373.8783     -5425.0038     -5152.4067      2810.1074      57234.289      57.698427    
     21570   1344.5178     -5419.9563     -5153.1847      2991.3627      57234.947      57.761813    
     21580   1343.9515     -5420.4803     -5153.8211      2956.8182      57236.646      57.84374     
     21590   1351.259      -5422.4348     -5154.3257      2794.0405      57239.151      57.944955    
     21600   1357.7095     -5424.1406     -5154.7516      2641.2198      57242.26       58.064625    
     21610   1365.2788     -5426.0156     -5155.1248      2432.9429      57246.017      58.197763    
     21620   1377.8749     -5428.8889     -5155.4988      2365.4048      57250.47       58.333822    
     21630   1370.4401     -5427.8064     -5155.8915      2507.7297      57255.696      58.46209     
     21640   1362.7861     -5426.6953     -5156.299       2594.356       57261.807      58.579013    
     21650   1369.0514     -5428.348      -5156.7086      2559.6612      57268.808      58.701303    
     21660   1371.7219     -5429.3038     -5157.1346      2665.8025      57276.568      58.840143    
     21670   1362.3369     -5427.8884     -5157.5813      2771.1408      57284.988      58.976265    
     21680   1348.9135     -5425.6758     -5158.032       2801.1846      57294.006      59.098785    
     21690   1338.8449     -5424.0853     -5158.4393      2608.3076      57303.5        59.212989    
     21700   1346.6772     -5425.9988     -5158.7987      2153.1559      57313.202      59.319185    
     21710   1350.7058     -5427.1252     -5159.1259      1708.129       57322.752      59.422165    
     21720   1348.5624     -5427.0212     -5159.4471      1564.1298      57331.767      59.525937    
     21730   1340.7512     -5425.7823     -5159.7581      1692.7098      57339.951      59.639542    
     21740   1339.0141     -5425.7278     -5160.0482      1953.8294      57347.111      59.772304    
     21750   1332.6374     -5424.7233     -5160.3089      2185.6408      57353.274      59.910488    
     21760   1334.0212     -5425.2297     -5160.5408      2150.975       57358.767      60.040723    
     21770   1325.6593     -5423.7587     -5160.7289      2104.6272      57363.686      60.159404    
     21780   1321.5017     -5423.075      -5160.8701      2039.3418      57367.872      60.269418    
     21790   1315.2335     -5421.8965     -5160.9353      2027.0363      57371.322      60.387016    
     21800   1316.3874     -5422.1254     -5160.9353      2104.7393      57374.114      60.522613    
     21810   1315.7095     -5421.9214     -5160.8658      2251.8974      57376.145      60.670787    
     21820   1299.8971     -5418.624      -5160.7058      2647.1922      57377.38       60.815377    
     21830   1303.2609     -5419.002      -5160.4163      2798.079       57378.043      60.945235    
     21840   1312.514      -5420.4265     -5160.0049      2638.2337      57378.279      61.063536    
     21850   1291.9427     -5415.8024     -5159.4624      2717.2292      57378.103      61.180574    
     21860   1296.3785     -5415.988      -5158.768       2513.0067      57377.444      61.295895    
     21870   1318.4773     -5419.4744     -5157.8696      2100.3741      57375.971      61.405959    
     21880   1316.1679     -5417.9421     -5156.7956      2085.363       57373.432      61.506029    
     21890   1321.3117     -5417.7587     -5155.5915      2188.1957      57369.864      61.591601    
     21900   1323.4351     -5416.8267     -5154.2382      2299.3251      57365.45       61.663409    
     21910   1335.4191     -5417.7587     -5152.7924      2309.6747      57360.483      61.731387    
     21920   1338.0504     -5416.7922     -5151.3039      2329.241       57355.156      61.812455    
     21930   1355.3706     -5418.7906     -5149.8657      2181.0467      57349.556      61.908722    
     21940   1345.5062     -5415.5303     -5148.5626      2258.0398      57343.444      62.003808    
     21950   1323.7528     -5410.0763     -5147.4248      2575.5485      57336.708      62.077684    
     21960   1343.7643     -5413.0488     -5146.4267      2574.9743      57329.754      62.123009    
     21970   1372.5767     -5417.9495     -5145.6106      2359.1592      57322.771      62.150809    
     21980   1376.1847     -5418.1146     -5145.0599      2142.6205      57315.637      62.180976    
     21990   1365.0585     -5415.6207     -5144.7736      2001.9112      57308.464      62.233167    
     22000   1375.933      -5417.7114     -5144.7066      1921.2145      57301.636      62.320299    
     22010   1389.2938     -5420.4891     -5144.8333      1913.0439      57295.455      62.438553    
     22020   1396.6686     -5422.292      -5145.1729      1888.9933      57289.978      62.571926    
     22030   1396.4894     -5422.7992     -5145.7157      1989.5152      57284.938      62.702026    
     22040   1401.1722     -5424.4435     -5146.4308      2048.3889      57280.29       62.820839    
     22050   1398.8833     -5424.8701     -5147.3116      2088.0624      57276.265      62.940689    
     22060   1394.1858     -5424.9532     -5148.3268      1930.8558      57273.178      63.068907    
     22070   1395.1865     -5426.2808     -5149.4558      1641.3475      57270.914      63.196618    
     22080   1382.6164     -5425.0118     -5150.681       1570.4585      57269          63.312012    
     22090   1366.058      -5422.9834     -5151.9379      1604.2584      57266.956      63.412033    
     22100   1353.0616     -5421.6453     -5153.1785      1687.9074      57264.41       63.499817    
     22110   1344.7764     -5421.1937     -5154.3708      1923.2457      57261.288      63.584267    
     22120   1346.5455     -5422.6941     -5155.5202      2202.7308      57257.884      63.675588    
     22130   1357.7104     -5426.0479     -5156.6587      2411.7793      57254.678      63.774444    
     22140   1348.6651     -5425.3997     -5157.8052      2641.2828      57252.15       63.877411    
     22150   1349.162      -5426.6667     -5158.9737      2590.0932      57250.684      63.986745    
     22160   1344.5344     -5426.9403     -5160.1654      2369.0079      57250.131      64.09065     
     22170   1328.3366     -5424.917      -5161.356       2235.2557      57249.95       64.168549    
     22180   1303.171      -5421.0436     -5162.4758      2175.3064      57249.798      64.226864    
     22190   1296.2534     -5420.6836     -5163.4884      2067.6842      57249.661      64.284773    
     22200   1300.3181     -5422.3905     -5164.3888      1988.6123      57249.554      64.349708    
     22210   1302.2819     -5423.61       -5165.2186      1970.4599      57249.545      64.422395    
     22220   1296.8186     -5423.3079     -5166.0005      2189.3656      57249.603      64.499064    
     22230   1294.3126     -5423.5214     -5166.7112      2436.7175      57249.665      64.576449    
     22240   1295.0417     -5424.3354     -5167.3806      2557.668       57249.655      64.653169    
     22250   1282.3658     -5422.4264     -5167.9866      2556.5974      57249.239      64.737181    
     22260   1291.3534     -5424.7603     -5168.5372      2113.2143      57248.034      64.833148    
     22270   1283.6994     -5423.7678     -5169.0635      1834.1358      57245.746      64.941709    
     22280   1273.9452     -5422.2993     -5169.5303      1899.6851      57242.366      65.055637    
     22290   1288.7121     -5425.6168     -5169.9179      1936.7772      57237.778      65.165987    
     22300   1296.8033     -5427.6013     -5170.297       1994.5182      57231.836      65.27444     
     22310   1287.5541     -5426.1438     -5170.6746      2172.1153      57224.737      65.381076    
     22320   1311.1192     -5431.225      -5171.0802      2042.1652      57216.786      65.476039    
     22330   1299.8979     -5429.4478     -5171.5294      2263.3632      57208.217      65.559558    
     22340   1285.2643     -5427.0319     -5172.017       2493.9303      57199.583      65.643986    
     22350   1295.3199     -5429.5159     -5172.5059      2395.1546      57191.431      65.725038    
     22360   1303.3068     -5431.6296     -5173.0349      2259.2933      57183.718      65.796245    
     22370   1315.1214     -5434.5773     -5173.6383      2043.9555      57176.247      65.853632    
     22380   1324.6344     -5437.1949     -5174.3685      1906.5156      57168.902      65.90387     
     22390   1314.3741     -5436.048      -5175.2573      1978.3599      57161.564      65.957786    
     22400   1285.7685     -5431.3381     -5176.2233      2263.3171      57154.171      66.011141    
     22410   1292.7539     -5433.7317     -5177.2308      2270.421       57146.783      66.060567    
     22420   1271.5682     -5430.5295     -5178.2322      2357.4586      57139.517      66.111973    
     22430   1249.9128     -5427.1538     -5179.1532      2323.0876      57132.394      66.170825    
     22440   1249.9153     -5427.9459     -5179.9448      2026.2949      57125.179      66.236464    
     22450   1250.4009     -5428.7073     -5180.6098      1801.2424      57117.48       66.299011    
     22460   1252.6767     -5429.7056     -5181.1566      1874.4108      57108.949      66.34113     
     22470   1256.0893     -5430.824      -5181.5979      2160.3371      57099.682      66.36011     
     22480   1264.7955     -5432.9081     -5181.9545      2257.2493      57090.036      66.36821     
     22490   1274.2402     -5435.0944     -5182.2668      2191.2072      57080.209      66.384161    
     22500   1281.5944     -5436.8547     -5182.5681      2071.7963      57070.137      66.417476    
     22510   1296.5096     -5440.1528     -5182.9068      2023.7042      57059.739      66.455057    
     22520   1284.3794     -5438.1445     -5183.3053      2338.3898      57049.2        66.487892    
     22530   1259.8029     -5433.6976     -5183.7347      2792.6037      57038.863      66.513189    
     22540   1239.3363     -5430.0103     -5184.1082      3146.8241      57029.03       66.535365    
     22550   1251.1977     -5432.6525     -5184.3969      3071.7959      57019.799      66.554801    
     22560   1269.4863     -5436.5182     -5184.6339      2805.6266      57010.704      66.564567    
     22570   1269.3688     -5436.7335     -5184.8726      2701.8025      57001.187      66.567144    
     22580   1260.673      -5435.2687     -5185.1331      2652.5109      56991.082      66.574572    
     22590   1250.6964     -5433.5394     -5185.3833      2656.94        56980.539      66.593662    
     22600   1251.7772     -5433.9591     -5185.5886      2463.4448      56969.589      66.619513    
     22610   1272.0309     -5438.1859     -5185.7968      2094.8557      56957.949      66.657134    
     22620   1260.6358     -5436.1637     -5186.0355      2109.6344      56945.344      66.717821    
     22630   1245.4354     -5433.4113     -5186.299       2219.5946      56931.736      66.791675    
     22640   1242.0449     -5432.9934     -5186.5539      2264.4405      56917.172      66.856566    
     22650   1243.6538     -5433.5541     -5186.7953      2206.5233      56901.609      66.909552    
     22660   1255.4903     -5436.1432     -5187.0359      1998.7963      56884.736      66.959248    
     22670   1262.1927     -5437.7531     -5187.3159      1863.2774      56866.138      67.002406    
     22680   1273.1551     -5440.2971     -5187.6849      1782.6022      56845.693      67.03385     
     22690   1285.9721     -5443.3535     -5188.1982      1764.1794      56823.558      67.047981    
     22700   1280.2947     -5442.9419     -5188.9131      1944.231       56800.015      67.036653    
     22710   1266.5218     -5441.1328     -5189.8367      2196.6967      56775.543      67.015047    
     22720   1245.4703     -5438.0043     -5190.8851      2332.6473      56750.667      67.00182     
     22730   1235.2967     -5437.0972     -5191.9966      2250.6663      56725.727      66.999409    
     22740   1217.139      -5434.5769     -5193.0791      2268.8963      56700.725      66.999537    
     22750   1214.7081     -5435.0929     -5194.0774      2321.381       56675.58       66.99428     
     22760   1220.302      -5437.0939     -5194.9685      2353.2712      56650.24       66.987546    
     22770   1225.0801     -5438.8275     -5195.7541      2449.3925      56624.806      66.97773     
     22780   1221.123      -5438.7195     -5196.4312      2611.676       56599.454      66.961496    
     22790   1231.4234     -5441.3617     -5197.0297      2686.4473      56574.505      66.9398      
     22800   1238.7171     -5443.3389     -5197.5596      2927.5968      56550.23       66.914359    
     22810   1241.935      -5444.4727     -5198.055       3133.7016      56526.935      66.89982     
     22820   1231.0087     -5442.78       -5198.5303      3209.3741      56504.884      66.897441    
     22830   1225.3305     -5442.0608     -5198.9377      3014.6312      56484.331      66.886256    
     22840   1233.216      -5443.9878     -5199.3001      2502.0537      56465.605      66.86553     
     22850   1223.3635     -5442.353      -5199.6202      2223.6203      56448.571      66.846486    
     22860   1211.023      -5440.158      -5199.8737      2234.6165      56432.904      66.824024    
     22870   1208.8728     -5439.8917     -5200.0341      2387.8235      56418.476      66.799449    
     22880   1216.2583     -5441.4148     -5200.0917      2513.9466      56405.235      66.790832    
     22890   1224.5932     -5443.0389     -5200.0621      2757.2021      56393.136      66.806705    
     22900   1230.2434     -5444.09       -5199.9921      2915.0517      56382.07       66.839065    
     22910   1223.8444     -5442.6995     -5199.8712      2983.4948      56371.93       66.867715    
     22920   1225.7134     -5442.8987     -5199.6996      2731.7113      56362.662      66.867384    
     22930   1239.3275     -5445.3805     -5199.4802      2210.1835      56353.997      66.851589    
     22940   1254.4204     -5448.1425     -5199.2475      1875.1496      56345.523      66.848099    
     22950   1253.9905     -5447.8608     -5199.0512      1828.3539      56337.034      66.861893    
     22960   1255.7177     -5448.0736     -5198.9212      1882.4954      56328.359      66.883568    
     22970   1238.4868     -5444.5778     -5198.8442      2250.9492      56319.243      66.919052    
     22980   1221.5071     -5441.15       -5198.7855      2520.5502      56309.769      66.959944    
     22990   1230.0285     -5442.7507     -5198.6955      2586.5998      56300.07       66.981673    
     23000   1233.9547     -5443.4125     -5198.5782      2584.9099      56290.164      66.985217    
     23010   1234.0527     -5443.314      -5198.4602      2570.2292      56280.273      66.992359    
     23020   1236.4996     -5443.6703     -5198.331       2498.3272      56270.541      67.019539    
     23030   1248.3183     -5445.9097     -5198.2254      2349.5375      56260.856      67.073651    
     23040   1266.7232     -5449.5231     -5198.187       2211.8589      56250.944      67.153037    
     23050   1278.816      -5452.0269     -5198.2914      2208.7551      56240.724      67.240262    
     23060   1278.7764     -5452.3374     -5198.6098      2536.4517      56230.579      67.318834    
     23070   1281.1023     -5453.3804     -5199.1913      2883.285       56221.175      67.380111    
     23080   1280.9846     -5454.2307     -5200.065       3090.548       56212.806      67.426521    
     23090   1275.8215     -5454.4065     -5201.2652      3171.7951      56205.469      67.478305    
     23100   1271.8499     -5455.11       -5202.7568      3025.928       56199.273      67.535463    
     23110   1257.063      -5453.8689     -5204.4496      2850.1433      56194.303      67.584181    
     23120   1250.2224     -5454.2662     -5206.2042      2653.9029      56190.501      67.636039    
     23130   1238.986      -5453.7444     -5207.9118      2510.1028      56187.625      67.70125     
     23140   1210.3279     -5449.5634     -5209.417       2488.115       56185.492      67.77413     
     23150   1190.7371     -5446.9006     -5210.6413      2267.4736      56183.905      67.858276    
     23160   1180.2064     -5445.735      -5211.5651      1941.2734      56182.408      67.957564    
     23170   1180.7147     -5446.5128     -5212.2421      1696.1789      56180.467      68.060707    
     23180   1182.14       -5447.2676     -5212.7141      1557.5009      56177.713      68.150416    
     23190   1181.8158     -5447.5276     -5213.0384      1627.1853      56174.015      68.226458    
     23200   1175.5936     -5446.4755     -5213.2209      1812.9305      56169.33       68.304555    
     23210   1183.485      -5448.1124     -5213.2921      1887.2991      56163.519      68.393876    
     23220   1178.6894     -5447.1251     -5213.2563      2150.1865      56156.27       68.47933     
     23230   1178.4677     -5446.9482     -5213.1234      2384.9719      56147.594      68.543997    
     23240   1194.0932     -5449.8131     -5212.8879      2338.7463      56137.647      68.582965    
     23250   1223.7989     -5455.4348     -5212.6156      2074.9433      56126.431      68.602766    
     23260   1237.2134     -5457.8745     -5212.3937      2073.5415      56114.049      68.614217    
     23270   1220.1448     -5454.3497     -5212.2555      2445.1611      56100.844      68.628388    
     23280   1216.0547     -5453.4576     -5212.175       2682.7846      56087.189      68.660551    
     23290   1225.8182     -5455.3744     -5212.1545      2868.1339      56073.17       68.720779    
     23300   1217.4301     -5453.7334     -5212.1778      3138.2023      56058.952      68.79358     
     23310   1245.046      -5459.3302     -5212.2953      3023.6198      56044.953      68.863547    
     23320   1242.11       -5458.9958     -5212.5434      2971.6431      56031.224      68.932973    
     23330   1227.9176     -5456.588      -5212.9516      2943.7618      56017.736      68.988431    
     23340   1222.5698     -5456.0508     -5213.4754      2823.0715      56004.415      69.028687    
     23350   1221.4389     -5456.4785     -5214.1276      2710.7506      55990.917      69.060742    
     23360   1205.3571     -5454.0326     -5214.8725      2656.5108      55977.025      69.083495    
     23370   1190.3454     -5451.8518     -5215.6702      2763.6324      55962.838      69.098895    
     23380   1182.7668     -5451.1476     -5216.4697      3067.9458      55948.517      69.104451    
     23390   1174.5759     -5450.2914     -5217.2387      3346.9945      55934.202      69.089969    
     23400   1174.7038     -5451.037      -5217.9589      3485.0633      55920.017      69.05369     
     23410   1171.8468     -5451.1208     -5218.6097      3312.3027      55905.797      69.006997    
     23420   1177.295      -5452.8091     -5219.2169      2980.1161      55891.207      68.961607    
     23430   1165.8148     -5451.0751     -5219.7607      2730.2967      55876.245      68.923133    
     23440   1162.2493     -5450.8389     -5220.232       2604.7113      55861.26       68.89518     
     23450   1168.4181     -5452.4517     -5220.6208      2502.9083      55846.529      68.863877    
     23460   1176.8424     -5454.4497     -5220.9473      2376.2662      55832.003      68.811581    
     23470   1186.0088     -5456.5774     -5221.2563      2320.8283      55817.412      68.743946    
     23480   1178.3597     -5455.3693     -5221.5658      2523.7455      55802.505      68.677811    
     23490   1159.8801     -5451.9906     -5221.8538      2879.8808      55787.501      68.630303    
     23500   1149.8556     -5450.2207     -5222.0729      3195.5084      55772.731      68.599998    
     23510   1155.6571     -5451.4929     -5222.194       3398.71        55758.403      68.58075     
     23520   1171.1535     -5454.5966     -5222.2229      3569.1568      55744.67       68.569582    
     23530   1188.57       -5458.0466     -5222.2173      3665.8272      55731.691      68.560875    
     23540   1194.0512     -5459.1482     -5222.2313      3687.0434      55719.446      68.549756    
     23550   1190.0231     -5458.3949     -5222.2773      3606.9976      55707.882      68.53909     
     23560   1187.2703     -5457.9532     -5222.3818      3449.0569      55697.08       68.536704    
     23570   1182.5208     -5457.1729     -5222.5438      3288.7082      55686.775      68.544015    
     23580   1185.3533     -5457.9408     -5222.7497      3109.3223      55676.6        68.561384    
     23590   1206.8338     -5462.5107     -5223.0576      2895.983       55666.307      68.583847    
     23600   1193.1976     -5460.275      -5223.5275      3039.7849      55655.903      68.593836    
     23610   1163.5509     -5454.9792     -5224.1141      3237.8221      55645.944      68.576677    
     23620   1182.1087     -5459.3727     -5224.8254      2826.6917      55636.949      68.540802    
     23630   1183.4109     -5460.4552     -5225.6495      2641.8988      55628.701      68.515428    
     23640   1178.5019     -5460.4427     -5226.6111      2618.4669      55620.664      68.533563    
     23650   1164.966      -5458.8087     -5227.6628      2793.0923      55612.484      68.596214    
     23660   1150.6572     -5457.0304     -5228.7235      2887.4459      55604.216      68.673268    
     23670   1164.7539     -5460.8698     -5229.7659      2703.3572      55596.014      68.735179    
     23680   1162.391      -5461.415      -5230.78        2712.0188      55587.704      68.780872    
     23690   1158.434      -5461.604      -5231.7541      2841.3116      55579.025      68.821932    
     23700   1171.98       -5465.2189     -5232.6813      2860.275       55569.836      68.865507    
     23710   1188.6966     -5469.4614     -5233.607       2930.8272      55560.025      68.910812    
     23720   1183.8447     -5469.4497     -5234.558       3169.5624      55549.912      68.953105    
     23730   1167.1186     -5467.0671     -5235.4941      3485.6838      55540.178      69.00142     
     23740   1158.8324     -5466.3054     -5236.3765      3523.5732      55531.359      69.064519    
     23750   1147.1386     -5464.7648     -5237.156       3420.1192      55523.599      69.141088    
     23760   1155.4567     -5467.1074     -5237.8483      3083.5431      55516.939      69.222754    
     23770   1159.7824     -5468.5781     -5238.4607      2732.4826      55511.188      69.285652    
     23780   1161.3744     -5469.4655     -5239.0321      2432.9855      55506.006      69.319701    
     23790   1175.0189     -5472.7284     -5239.5878      1987.4692      55501.191      69.335248    
     23800   1174.9102     -5473.2708     -5240.1517      1623.4882      55496.543      69.348533    
     23810   1167.7217     -5472.4376     -5240.7449      1375.0794      55491.653      69.365654    
     23820   1165.4523     -5472.5815     -5241.3391      1217.4783      55486.141      69.390672    
     23830   1153.4424     -5470.79       -5241.9305      1343.1459      55479.934      69.419971    
     23840   1130.1318     -5466.694      -5242.4596      1713.666       55473.412      69.445985    
     23850   1139.3071     -5468.9586     -5242.9038      1906.8686      55467.14       69.46352     
     23860   1146.2938     -5470.7194     -5243.2783      2136.5218      55461.386      69.477642    
     23870   1136.043      -5469.0216     -5243.6144      2551.7864      55456.117      69.502026    
     23880   1131.4013     -5468.3643     -5243.878       2823.2538      55451.364      69.539942    
     23890   1132.3175     -5468.7506     -5244.0826      2964.6411      55447.04       69.585217    
     23900   1126.283      -5467.693      -5244.2223      3028.7188      55442.811      69.621229    
     23910   1122.246      -5466.9467     -5244.277       2857.0371      55438.419      69.654574    
     23920   1134.3465     -5469.3296     -5244.259       2649.6048      55433.763      69.704866    
     23930   1149.5743     -5472.2845     -5244.1925      2380.2606      55428.709      69.761485    
     23940   1164.7449     -5475.2366     -5244.1345      2051.4174      55423.04       69.810823    
     23950   1180.8456     -5478.4493     -5244.1527      1772.2606      55416.567      69.857415    
     23960   1165.8605     -5475.6064     -5244.283       1917.1172      55409.324      69.914374    
     23970   1156.774      -5474.0259     -5244.5054      2070.6314      55401.536      69.971098    
     23980   1146.7239     -5472.3278     -5244.8013      2166.9977      55393.446      70.014281    
     23990   1126.9208     -5468.7188     -5245.1215      2094.4323      55385.386      70.048596    
     24000   1123.4225     -5468.3412     -5245.4381      1782.5523      55377.667      70.073147    
     24010   1127.3053     -5469.4102     -5245.7366      1396.3295      55370.136      70.080458    
     24020   1130.8566     -5470.4282     -5246.0501      1092.0821      55362.332      70.075479    
     24030   1128.471      -5470.2942     -5246.3894      1060.8574      55353.833      70.06963     
     24040   1129.0242     -5470.7747     -5246.7601      1122.562       55344.49       70.067715    
     24050   1134.2669     -5472.2523     -5247.1975      1265.1249      55334.266      70.078597    
     24060   1130.8438     -5472.0945     -5247.7189      1568.4119      55323.298      70.112893    
     24070   1122.0296     -5470.9468     -5248.32        1960.984       55311.914      70.157567    
     24080   1116.9299     -5470.6146     -5248.9997      2312.0289      55300.523      70.191195    
     24090   1111.7367     -5470.3184     -5249.7339      2530.4457      55289.451      70.213689    
     24100   1110.0935     -5470.771      -5250.5126      2623.112       55278.854      70.235387    
     24110   1096.5329     -5468.8718     -5251.304       2697.0276      55268.771      70.257162    
     24120   1093.0107     -5468.9363     -5252.0673      2750.7921      55259.277      70.28738     
     24130   1082.5159     -5467.5399     -5252.7533      2855.1706      55250.523      70.3211      
     24140   1073.1852     -5466.2593     -5253.324       2940.8283      55242.604      70.340014    
     24150   1078.4611     -5467.7395     -5253.7574      2900.8061      55235.439      70.341959    
     24160   1079.2742     -5468.1892     -5254.0457      2761.0744      55228.85       70.340974    
     24170   1093.511      -5471.1888     -5254.2206      2610.4019      55222.532      70.350725    
     24180   1088.7582     -5470.2986     -5254.2734      2581.6854      55215.959      70.359464    
     24190   1094.6145     -5471.4185     -5254.2313      2460.3486      55208.851      70.346614    
     24200   1102.9333     -5472.9166     -5254.0789      2371.8049      55201.152      70.312553    
     24210   1122.6668     -5476.6073     -5253.8541      2352.6446      55192.806      70.278801    
     24220   1120.5091     -5475.9243     -5253.5993      2496.1007      55183.787      70.260342    
     24230   1103.2358     -5472.2186     -5253.3208      2743.652       55174.394      70.251997    
     24240   1101.687      -5471.5616     -5252.9712      2850.7359      55165.151      70.257541    
     24250   1101.0531     -5470.994      -5252.5293      3007.867       55156.42       70.283214    
     24260   1090.5765     -5468.3745     -5251.9885      3164.7745      55148.393      70.323423    
     24270   1074.8364     -5464.5765     -5251.3136      3296.5025      55141.252      70.369233    
     24280   1083.1931     -5465.3932     -5250.4722      3176.4507      55135.15       70.415209    
     24290   1103.6286     -5468.4382     -5249.4625      2894.2411      55130.002      70.464316    
     24300   1118.6949     -5470.3304     -5248.3654      2649.083       55125.517      70.520083    
     24310   1126.4708     -5470.7717     -5247.2638      2462.0356      55121.429      70.581647    
     24320   1127.3414     -5469.9261     -5246.2455      2392.2669      55117.498      70.648917    
     24330   1117.4824     -5467.0441     -5245.3196      2578.1157      55113.415      70.708706    
     24340   1124.5516     -5467.6194     -5244.4922      2650.3999      55108.816      70.745602    
     24350   1133.5797     -5468.6913     -5243.7728      2645.019       55103.522      70.765705    
     24360   1136.3239     -5468.6418     -5243.1789      2642.0105      55097.677      70.79065     
     24370   1155.3603     -5471.9824     -5242.7424      2521.2552      55091.499      70.833895    
     24380   1165.8826     -5473.8237     -5242.4959      2551.6379      55084.874      70.879095    
     24390   1156.9612     -5472.0359     -5242.4782      2856.5612      55077.824      70.907871    
     24400   1139.5886     -5468.7415     -5242.6307      3162.7038      55070.575      70.927298    
     24410   1139.4261     -5468.9978     -5242.9193      3268.1406      55063.231      70.944701    
     24420   1118.7627     -5465.2515     -5243.2729      3284.6008      55055.687      70.963387    
     24430   1120.1155     -5465.9432     -5243.6963      2902.2907      55047.962      70.986763    
     24440   1108.716      -5464.1305     -5244.1454      2717.3781      55040.044      71.005716    
     24450   1096.733      -5462.2112     -5244.6036      2744.8902      55031.739      71.014499    
     24460   1092.8529     -5461.8754     -5245.0377      2832.5973      55022.773      71.019864    
     24470   1091.0132     -5461.894      -5245.4214      2805.2006      55012.878      71.023228    
     24480   1106.4755     -5465.332      -5245.7915      2399.5174      55001.831      71.007674    
     24490   1106.6877     -5465.7539     -5246.1712      2247.0796      54989.594      70.973148    
     24500   1105.6        -5465.9279     -5246.561       2210.2593      54976.424      70.932429    
     24510   1114.6625     -5468.1431     -5246.9781      2214.7704      54962.745      70.889046    
     24520   1121.6309     -5470.0012     -5247.4536      2301.3264      54948.834      70.840314    
     24530   1120.819      -5470.3832     -5247.9966      2465.2238      54934.766      70.792869    
     24540   1123.2438     -5471.4844     -5248.6167      2540.1553      54920.534      70.756082    
     24550   1125.1433     -5472.5647     -5249.3201      2548.2409      54906.038      70.723477    
     24560   1123.0678     -5472.9148     -5250.0821      2505.3332      54891.175      70.694788    
     24570   1127.787      -5474.6678     -5250.8988      2372.6633      54875.94       70.668221    
     24580   1135.8829     -5477.135      -5251.7596      2286.3587      54860.374      70.643709    
     24590   1134.3091     -5477.7184     -5252.6552      2360.952       54844.389      70.628824    
     24600   1145.0454     -5480.7781     -5253.5847      2390.928       54827.74       70.627649    
     24610   1145.0788     -5481.7112     -5254.5111      2636.9032      54810.318      70.607201    
     24620   1126.2772     -5478.8745     -5255.405       3151.2475      54792.488      70.552343    
     24630   1111.3663     -5476.7113     -5256.2003      3600.5025      54775.064      70.492404    
     24640   1117.9381     -5478.7141     -5256.8992      3576.0973      54758.744      70.442552    
     24650   1129.9576     -5481.7771     -5257.5773      3214.5684      54743.53       70.386189    
     24660   1124.2841     -5481.3413     -5258.2672      2930.9085      54729.018      70.330366    
     24670   1123.6296     -5481.9404     -5258.9962      2748.159       54714.867      70.289163    
     24680   1118.5854     -5481.7145     -5259.7711      2740.0858      54700.998      70.253846    
     24690   1103.5856     -5479.5271     -5260.5599      2954.769       54687.566      70.21019     
     24700   1105.1016     -5480.6279     -5261.3599      2951.0468      54675.036      70.151434    
     24710   1111.7971     -5482.7823     -5262.1859      2792.7948      54663.777      70.081618    
     24720   1110.2535     -5483.3463     -5263.0561      2632.2935      54653.743      70.017716    
     24730   1111.0317     -5484.434      -5263.9894      2531.9183      54644.618      69.969398    
     24740   1099.8592     -5483.1921     -5264.9643      2576.861       54636.122      69.931556    
     24750   1097.2368     -5483.6594     -5265.9519      2589.2808      54628.101      69.898668    
     24760   1097.0688     -5484.6094     -5266.9352      2537.1606      54620.428      69.877482    
     24770   1090.5373     -5484.3025     -5267.9243      2720.7502      54613.014      69.865769    
     24780   1067.4698     -5480.6689     -5268.8676      3044.7917      54605.92       69.861207    
     24790   1051.9447     -5478.4219     -5269.701       3231.7918      54599.237      69.868852    
     24800   1050.3409     -5478.8148     -5270.4121      3253.994       54593.053      69.890301    
     24810   1053.2202     -5479.9856     -5271.0116      3188.4597      54587.376      69.928792    
     24820   1052.071      -5480.2826     -5271.5366      3208.6082      54582.122      69.976993    
     24830   1052.1828     -5480.7469     -5271.9788      3153.1436      54577.155      70.025877    
     24840   1070.3701     -5484.7573     -5272.3806      2894.8148      54572.235      70.08023     
     24850   1069.5115     -5484.9906     -5272.7842      2767.877       54567.179      70.143619    
     24860   1065.7475     -5484.6577     -5273.1982      2730.0375      54562.008      70.209073    
     24870   1074.5458     -5486.8304     -5273.6252      2701.9508      54556.764      70.266824    
     24880   1073.1407     -5487.0176     -5274.0911      2866.4046      54551.433      70.319535    
     24890   1052.9112     -5483.4899     -5274.5772      3338.1124      54546.127      70.377302    
     24900   1038.9354     -5481.1696     -5275.0299      3612.8645      54541.068      70.440216    
     24910   1041.4547     -5482.0675     -5275.428       3595.7404      54536.416      70.502902    
     24920   1037.9614     -5481.7112     -5275.7648      3513.124       54532.264      70.567272    
     24930   1045.2532     -5483.4338     -5276.0406      3312.8392      54528.717      70.642058    
     24940   1058.4636     -5486.3126     -5276.2983      3044.0837      54525.727      70.731914    
     24950   1064.9937     -5487.8752     -5276.5652      2863.5227      54523.084      70.832421    
     24960   1073.0359     -5489.7891     -5276.8834      2707.435       54520.619      70.931918    
     24970   1077.3526     -5491.043      -5277.2808      2581.9041      54518.301      71.019859    
     24980   1082.1486     -5492.4932     -5277.7794      2433.475       54516.292      71.100645    
     24990   1091.641      -5495.0057     -5278.4085      2209.7454      54514.746      71.178837    
     25000   1097.5661     -5496.9792     -5279.2064      2087.1249      54513.557      71.247651    
     25010   1099.5608     -5498.3639     -5280.1953      2061.7576      54512.513      71.306938    
     25020   1079.7804     -5495.5836     -5281.3397      2272.4165      54511.561      71.372695    
     25030   1044.5951     -5489.7656     -5282.503       2575.3361      54510.932      71.451827    
     25040   1034.7606     -5488.8713     -5283.56        2502.4925      54510.823      71.528387    
     25050   1030.5355     -5488.9413     -5284.4683      2213.9274      54511.158      71.584551    
     25060   1028.4276     -5489.2639     -5285.2092      1904.5576      54511.761      71.619961    
     25070   1049.1961     -5494.0082     -5285.8326      1525.1192      54512.435      71.640939    
     25080   1052.6384     -5495.2445     -5286.386       1435.5821      54512.967      71.663488    
     25090   1053.9435     -5496.0352     -5286.9177      1443.0801      54513.293      71.702693    
     25100   1034.6743     -5492.6854     -5287.3912      1611.9257      54513.4        71.753216    
     25110   1026.516      -5491.4711     -5287.7956      1602.4643      54513.246      71.799558    
     25120   1024.9357     -5491.4762     -5288.1143      1538.6479      54512.5        71.843006    
     25130   1030.9335     -5492.9147     -5288.3627      1553.9212      54510.834      71.887252    
     25140   1025.3367     -5492.0076     -5288.5661      1687.084       54508.156      71.928462    
     25150   1003.9941     -5487.8983     -5288.6915      1965.1344      54504.502      71.969348    
     25160   1006.5724     -5488.4476     -5288.7292      2123.5507      54500.061      72.01299     
     25170   1005.9725     -5488.2653     -5288.6659      2338.3919      54495.023      72.062673    
     25180   998.6081      -5486.6492     -5288.511       2594.3146      54489.543      72.119684    
     25190   992.46874     -5485.1664     -5288.2464      2836.8167      54483.923      72.177917    
     25200   1000.1273     -5486.3086     -5287.869       2938.9197      54478.521      72.236883    
     25210   997.47945     -5485.292      -5287.3778      3063.1948      54473.585      72.301526    
     25220   1028.6386     -5490.899      -5286.8024      2804.6004      54469.179      72.36211     
     25230   1052.5652     -5495.0519     -5286.2079      2518.1851      54465.021      72.418355    
     25240   1065.1494     -5497.0356     -5285.6948      2397.3862      54460.867      72.48445     
     25250   1066.1967     -5496.8643     -5285.3156      2606.9706      54456.859      72.563139    
     25260   1060.0738     -5495.4067     -5285.0729      2921.9781      54453.506      72.637057    
     25270   1054.2807     -5494.1429     -5284.9586      3224.0952      54451.37       72.700403    
     25280   1049.9662     -5493.2644     -5284.9361      3300.1197      54450.817      72.754558    
     25290   1064.9912     -5496.3347     -5285.0252      3102.7435      54451.923      72.797366    
     25300   1061.0849     -5495.7777     -5285.2433      3097.4081      54454.519      72.8299      
     25310   1045.377      -5493.0161     -5285.5984      3244.1638      54458.576      72.85833     
     25320   1035.7965     -5491.5663     -5286.0494      3365.8825      54464.1        72.895149    
     25330   1030.3173     -5491.0001     -5286.5704      3439.4486      54470.945      72.94428     
     25340   1022.0012     -5489.9132     -5287.1335      3407.331       54479.064      73.004519    
     25350   1037.9297     -5493.6929     -5287.7528      2950.7482      54488.279      73.080495    
     25360   1042.6403     -5495.3408     -5288.4661      2631.3588      54497.797      73.168529    
     25370   1017.6699     -5491.1873     -5289.267       2660.8977      54506.88       73.257361    
     25380   1015.5309     -5491.5996     -5290.1037      2464.8175      54515.436      73.338729    
     25390   1022.8605     -5493.9148     -5290.9646      2212.8753      54523.27       73.409732    
     25400   1025.2412     -5495.2833     -5291.8608      2181.5823      54530.133      73.480503    
     25410   1028.845      -5496.9276     -5292.79        2244.6912      54536.031      73.565004    
     25420   1023.4668     -5496.7932     -5293.7227      2234.7724      54541.005      73.655788    
     25430   1021.3605     -5497.2733     -5294.6208      2103.6539      54545.074      73.737394    
     25440   1010.6125     -5495.9623     -5295.4423      2030.4811      54548.119      73.810008    
     25450   988.50537     -5492.2551     -5296.1215      2155.1689      54550.031      73.874721    
     25460   970.81077     -5489.224      -5296.6012      2448.5105      54550.832      73.922601    
     25470   961.75375     -5487.6962     -5296.8704      2717.7701      54550.747      73.959069    
     25480   971.69991     -5489.7568     -5296.9577      2683.4808      54550.149      73.998478    
     25490   991.02016     -5493.5585     -5296.9259      2437.6979      54549.241      74.044435    
     25500   1007.7678     -5496.8159     -5296.8603      2068.871       54547.927      74.089462    
     25510   1017.7197     -5498.7458     -5296.8157      1658.7112      54545.919      74.119369    
     25520   1012.1085     -5497.6249     -5296.808       1392.9958      54542.905      74.128026    
     25530   1007.4002     -5496.7251     -5296.8425      1404.2651      54538.775      74.112505    
     25540   998.46854     -5494.9937     -5296.8832      1651.1246      54533.757      74.080105    
     25550   991.14975     -5493.5698     -5296.9115      1965.8495      54528.264      74.040042    
     25560   1000.502      -5495.4254     -5296.9115      2074.9051      54522.742      73.988289    
     25570   1021.5999     -5499.6244     -5296.9243      1881.6174      54517.42       73.937153    
     25580   1027.2768     -5500.8325     -5297.0061      1796.4433      54511.991      73.90752     
     25590   1020.0301     -5499.5713     -5297.1827      1850.1376      54506.014      73.900957    
     25600   1020.1499     -5499.8569     -5297.4446      1790.3209      54499.251      73.904575    
     25610   1020.1333     -5500.1938     -5297.7848      1661.057       54491.68       73.913708    
     25620   1001.8825     -5496.9811     -5298.1932      1705.0983      54483.412      73.915275    
     25630   997.8985      -5496.6394     -5298.6421      1788.7317      54474.625      73.901912    
     25640   989.22454     -5495.3701     -5299.0938      2087.6235      54465.589      73.892051    
     25650   981.42458     -5494.2568     -5299.5281      2331.6033      54456.674      73.900729    
     25660   996.20895     -5497.6084     -5299.9463      2263.6326      54448.286      73.925342    
     25670   1012.7275     -5501.3317     -5300.392       1972.2977      54440.493      73.966763    
     25680   1017.915      -5502.8954     -5300.9265      1726.7767      54432.961      74.025587    
     25690   1019.2836     -5503.8164     -5301.5759      1539.255       54425.384      74.100152    
     25700   1004.5487     -5501.6334     -5302.3166      1569.7136      54417.579      74.179203    
     25710   992.17011     -5499.969      -5303.1082      1626.8866      54409.35       74.237895    
     25720   989.17631     -5500.1708     -5303.904       1669.7566      54400.513      74.270038    
     25730   979.86571     -5499.0813     -5304.6619      1742.0129      54390.991      74.284672    
     25740   991.62857     -5502.1421     -5305.3888      1597.1778      54380.673      74.283465    
     25750   999.52618     -5504.4144     -5306.0941      1484.6232      54369.397      74.269077    
     25760   986.90456     -5502.6171     -5306.8011      1675.5754      54357.186      74.253515    
     25770   973.57821     -5500.6179     -5307.4461      1847.0009      54344.24       74.251443    
     25780   976.75577     -5501.8136     -5308.0113      1796.0609      54330.668      74.27042     
     25790   978.4277      -5502.6475     -5308.5134      1728.8509      54316.364      74.308189    
     25800   981.1263      -5503.6318     -5308.9623      1714.3962      54301.208      74.35549     
     25810   991.12274     -5506.0393     -5309.3864      1605.7862      54285.049      74.408053    
     25820   986.91177     -5505.6317     -5309.8143      1554.8996      54267.668      74.460463    
     25830   968.89918     -5502.4629     -5310.2194      1602.3255      54248.924      74.497253    
     25840   956.94665     -5500.4344     -5310.5625      1624.0087      54228.857      74.506021    
     25850   949.70161     -5499.2483     -5310.8139      1746.7287      54207.76       74.488271    
     25860   937.32268     -5496.9261     -5310.9479      2063.7502      54185.97       74.457453    
     25870   952.44272     -5499.9613     -5310.983       2140.3059      54163.782      74.429166    
     25880   967.90066     -5503.0038     -5310.9584      2220.5429      54141.139      74.399892    
     25890   973.64185     -5504.1013     -5310.9168      2371.9783      54117.958      74.366595    
     25900   980.65791     -5505.4651     -5310.8885      2452.4024      54094.265      74.342719    
     25910   995.30317     -5508.3992     -5310.9168      2395.6909      54070.141      74.33358     
     25920   1004.4556     -5510.3265     -5311.0282      2371.8204      54045.516      74.334202    
     25930   1012.2346     -5512.1115     -5311.2696      2426.5219      54020.283      74.343865    
     25940   999.70646     -5510.0032     -5311.6471      2705.8369      53994.513      74.349548    
     25950   984.05926     -5507.3588     -5312.1073      2955.7463      53968.57       74.334378    
     25960   984.62335     -5507.9755     -5312.6121      2940.2084      53942.905      74.294826    
     25970   993.52696     -5510.3112     -5313.1812      2820.8795      53917.73       74.236669    
     25980   984.32133     -5509.1107     -5313.8073      2723.787       53892.977      74.177409    
     25990   976.91583     -5508.3146     -5314.4805      2591.1499      53868.462      74.122159    
     26000   958.93735     -5505.3995     -5315.1326      2587.4238      53844.048      74.067403    
     26010   950.15228     -5504.2423     -5315.7185      2458.9454      53819.801      74.004522    
     26020   947.93404     -5504.3071     -5316.2234      2250.4145      53795.633      73.945375    
     26030   936.3229      -5502.4175     -5316.6376      2216.7045      53771.173      73.91326     
     26040   922.31039     -5499.9272     -5316.9277      2262.1381      53746.178      73.913648    
     26050   934.30058     -5502.472      -5317.0934      2105.7846      53720.674      73.939192    
     26060   951.50983     -5505.9697     -5317.1765      1974.0097      53694.759      73.980683    
     26070   950.08959     -5505.7471     -5317.2357      2182.8638      53668.412      74.014995    
     26080   936.76237     -5503.1375     -5317.2704      2609.289       53641.704      74.020747    
     26090   927.974       -5501.3727     -5317.2493      2969.8314      53614.914      73.99614     
     26100   929.62966     -5501.6012     -5317.1494      3144.7556      53588.485      73.942323    
     26110   956.17017     -5506.7227     -5317.0048      3041.8644      53562.783      73.874987    
     26120   977.13629     -5510.7671     -5316.8893      2963.7118      53537.913      73.810997    
     26130   962.00643     -5507.7301     -5316.8542      3258.1406      53513.931      73.753807    
     26140   954.38106     -5506.2426     -5316.8797      3583.0206      53490.87       73.702205    
     26150   945.66601     -5504.5452     -5316.9115      3775.9131      53468.75       73.659176    
     26160   959.17095     -5507.2705     -5316.9573      3658.284       53447.602      73.628869    
     26170   972.52787     -5510.0083     -5317.0448      3552.4963      53427.29       73.606875    
     26180   967.37735     -5509.1492     -5317.2076      3717.3078      53407.753      73.592232    
     26190   968.70235     -5509.6483     -5317.4439      3789.3298      53389.197      73.587678    
     26200   981.7408      -5512.5443     -5317.7529      3737.9407      53371.912      73.593173    
     26210   982.20586     -5513.053      -5318.1693      3631.8969      53356.098      73.588448    
     26220   985.13966     -5514.1769     -5318.7111      3447.782       53341.734      73.557452    
     26230   988.44289     -5515.4934     -5319.3722      3232.5322      53328.732      73.521608    
     26240   992.11897     -5517.0026     -5320.1519      2995.2272      53316.892      73.504535    
     26250   996.72585     -5518.8201     -5321.0554      2851.2867      53305.805      73.508347    
     26260   979.38372     -5516.3423     -5322.0185      2934.1116      53295.226      73.519466    
     26270   974.23766     -5516.2654     -5322.9627      2905.3074      53285.161      73.532823    
     26280   970.71798     -5516.4547     -5323.8504      2852.4277      53275.642      73.552755    
     26290   963.18577     -5515.7644     -5324.6546      2941.0424      53266.696      73.575019    
     26300   963.68858     -5516.5858     -5325.3762      2947.7128      53258.442      73.593918    
     26310   968.39587     -5518.1876     -5326.044       2891.4359      53251.211      73.613588    
     26320   959.0276      -5516.9751     -5326.6903      2926.0373      53245.286      73.632071    
     26330   936.09465     -5513.0281     -5327.2935      2991.7903      53240.812      73.649739    
     26340   915.47368     -5509.459      -5327.8159      3005.7604      53237.94       73.672659    
     26350   887.20693     -5504.2357     -5328.2012      3102.4099      53236.8        73.694536    
     26360   882.84519     -5503.6044     -5328.4352      3107.0585      53237.505      73.702788    
     26370   883.28876     -5503.7688     -5328.5117      3128.7158      53240.179      73.706701    
     26380   904.78648     -5507.9824     -5328.4598      2885.3194      53244.954      73.726861    
     26390   940.91218     -5515.0312     -5328.3408      2514.8317      53251.442      73.766916    
     26400   947.50366     -5516.2606     -5328.2623      2466.6298      53259.023      73.812995    
     26410   953.74176     -5517.5083     -5328.2723      2509.5326      53267.433      73.856937    
     26420   948.77236     -5516.6298     -5328.3797      2604.5561      53276.562      73.90659     
     26430   945.9952      -5516.2793     -5328.5803      2641.0046      53286.338      73.974094    
     26440   945.09287     -5516.3866     -5328.8666      2738.5589      53296.51       74.05829     
     26450   931.41699     -5514.0458     -5329.2393      2949.9906      53306.814      74.159702    
     26460   920.71468     -5512.3337     -5329.6508      3099.9614      53317.347      74.282929    
     26470   916.52104     -5511.9324     -5330.0815      3128.0216      53328.309      74.41445     
     26480   911.44134     -5511.3497     -5330.5067      3056.3074      53339.787      74.536968    
     26490   909.32207     -5511.349      -5330.9265      2852.4024      53351.772      74.655128    
     26500   906.6358      -5511.2139     -5331.3243      2620.6045      53363.994      74.768783    
     26510   899.83087     -5510.2266     -5331.6872      2551.3548      53375.926      74.864637    
     26520   902.64713     -5511.1205     -5332.0224      2537.5257      53387.158      74.92507     
     26530   890.7836      -5509.0521     -5332.3079      2640.1267      53397.546      74.95087     
     26540   888.38827     -5508.8097     -5332.5407      2644.3523      53407.156      74.956648    
     26550   891.88395     -5509.6696     -5332.707       2478.6769      53416.062      74.960175    
     26560   905.52131     -5512.4967     -5332.8283      2208.9329      53424.278      74.983159    
     26570   915.86722     -5514.661      -5332.9398      2046.2229      53431.769      75.027143    
     26580   926.01985     -5516.8231     -5333.0875      1987.7695      53438.618      75.077377    
     26590   938.39833     -5519.5049     -5333.3132      2035.9872      53445.035      75.128408    
     26600   939.6921      -5520.1117     -5333.6633      2180.2799      53451.101      75.185663    
     26610   933.96754     -5519.4697     -5334.1572      2354.8312      53456.826      75.249571    
     26620   927.8265      -5518.8765     -5334.7824      2566.908       53462.259      75.3081      
     26630   924.60867     -5518.9823     -5335.5267      2722.2032      53467.442      75.347233    
     26640   924.01874     -5519.7085     -5336.3699      2795.9013      53472.409      75.374682    
     26650   929.1997      -5521.6849     -5337.3184      2828.0839      53477.234      75.405791    
     26660   914.40111     -5519.7448     -5338.3145      2881.5549      53482.025      75.444417    
     26670   918.75884     -5521.5996     -5339.3047      2752.19        53486.842      75.48498     
     26680   926.40965     -5524.084      -5340.271       2663.0368      53491.677      75.516727    
     26690   920.7334      -5523.8833     -5341.1966      2709.4056      53496.581      75.532965    
     26700   915.85221     -5523.7511     -5342.0329      2740.4443      53501.637      75.53976     
     26710   920.33197     -5525.3906     -5342.7836      2596.8745      53506.813      75.559015    
     26720   920.15242     -5526.0297     -5343.4582      2468.2585      53511.947      75.609817    
     26730   912.38638     -5525.0999     -5344.0693      2505.9512      53516.815      75.683535    
     26740   906.41041     -5524.4634     -5344.6186      2584.5049      53521.351      75.748599    
     26750   899.82028     -5523.6405     -5345.1033      2746.8128      53525.666      75.79787     
     26760   905.9969      -5525.3141     -5345.5513      2771.9438      53529.727      75.838059    
     26770   921.37127     -5528.8055     -5345.9923      2630.2787      53533.169      75.880309    
     26780   929.50721     -5530.9146     -5346.487       2410.8555      53535.764      75.936816    
     26790   929.11896     -5531.4203     -5347.0698      2178.6604      53537.608      76.000104    
     26800   926.49511     -5531.5638     -5347.7339      1977.8403      53538.828      76.052995    
     26810   914.01416     -5529.8181     -5348.4646      1988.2018      53539.314      76.093569    
     26820   889.76919     -5525.7426     -5349.1996      2107.4469      53539.097      76.13134     
     26830   869.03135     -5522.295      -5349.8668      2236.7869      53538.45       76.170925    
     26840   866.0451      -5522.2562     -5350.4205      2099.3064      53537.572      76.217301    
     26850   874.79873     -5524.4553     -5350.8827      1792.8483      53536.434      76.274668    
     26860   880.24328     -5525.9447     -5351.2918      1545.3821      53534.935      76.336497    
     26870   877.3309      -5525.7363     -5351.6613      1494.8619      53532.977      76.409112    
     26880   871.71532     -5524.9589     -5351.9981      1585.2388      53530.599      76.501892    
     26890   878.29622     -5526.5665     -5352.3         1715.8135      53527.997      76.600931    
     26900   893.14604     -5529.8049     -5352.592       1803.1478      53525.456      76.691258    
     26910   903.85553     -5532.2677     -5352.9298      1798.1417      53523.034      76.76698     
     26920   907.94798     -5533.5029     -5353.353       1737.8105      53520.542      76.827628    
     26930   908.50489     -5534.142      -5353.8816      1672.2367      53517.751      76.874558    
     26940   886.75411     -5530.4359     -5354.4912      1894.5358      53514.528      76.918211    
     26950   867.20684     -5527.1792     -5355.1129      2130.9579      53510.955      76.972948    
     26960   850.32861     -5524.3898     -5355.6724      2352.1377      53507.154      77.043608    
     26970   846.25909     -5524.0496     -5356.1396      2449.751       53503.224      77.111756    
     26980   848.11511     -5524.7783     -5356.5001      2463.735       53499.387      77.160331    
     26990   859.29703     -5527.2839     -5356.7871      2304.4346      53495.943      77.188962    
     27000   869.07568     -5529.4666     -5357.0295      2018.8069      53493.077      77.21725     
     27010   874.77421     -5530.8351     -5357.2674      1797.533       53490.605      77.261453    
     27020   868.9236      -5529.9272     -5357.5204      1777.3275      53488.153      77.314488    
     27030   862.08146     -5528.8143     -5357.765       1846.0596      53485.5        77.368502    
     27040   863.18639     -5529.2728     -5358.0043      1867.4205      53482.631      77.427371    
     27050   856.46829     -5528.1595     -5358.224       1957.1913      53479.632      77.489865    
     27060   846.95937     -5526.4633     -5358.4144      2074.2257      53476.574      77.538514    
     27070   839.35515     -5525.09       -5358.5499      2142.986       53473.551      77.560003    
     27080   841.33521     -5525.547      -5358.614       2054.0348      53470.666      77.556144    
     27090   856.585       -5528.5829     -5358.6242      1786.8909      53467.917      77.531234    
     27100   859.10915     -5529.0593     -5358.5998      1734.0339      53465.174      77.498734    
     27110   866.7949      -5530.5615     -5358.577       1698.679       53462.263      77.482037    
     27120   875.3283      -5532.2582     -5358.5805      1671.3509      53458.97       77.487596    
     27130   872.02864     -5531.6525     -5358.6295      1705.4967      53455.189      77.495594    
     27140   872.43066     -5531.8378     -5358.735       1660.3988      53450.95       77.494962    
     27150   876.68419     -5532.8621     -5358.9154      1661.4536      53446.252      77.496403    
     27160   868.08075     -5531.4247     -5359.185       1770.2686      53441.031      77.509349    
     27170   858.92676     -5529.9719     -5359.5486      1999.5153      53435.28       77.531703    
     27180   853.37468     -5529.3135     -5359.9917      2207.2118      53429.217      77.568138    
     27190   849.5805      -5529.0721     -5360.5032      2384.5872      53423.112      77.617919    
     27200   864.14851     -5532.5691     -5361.1097      2327.4996      53417.142      77.660771    
     27210   875.21193     -5535.5193     -5361.8647      2280.1918      53411.219      77.678013    
     27220   874.26244     -5536.2565     -5362.7903      2260.0247      53405.198      77.66263     
     27230   877.31099     -5537.9458     -5363.8747      2112.2084      53399.006      77.62483     
     27240   878.78275     -5539.4458     -5365.0827      1927.0312      53392.571      77.587896    
     27250   861.57611     -5537.2518     -5366.3028      1882.4949      53385.868      77.56021     
     27260   845.61743     -5535.1915     -5367.4089      1862.7902      53378.895      77.545444    
     27270   831.40051     -5533.262      -5368.3002      1735.6658      53371.674      77.552366    
     27280   830.91108     -5533.8549     -5368.9902      1507.8423      53364.169      77.587292    
     27290   831.97071     -5534.5807     -5369.5058      1390.4665      53356.199      77.640797    
     27300   828.33802     -5534.2515     -5369.8973      1479.2427      53347.637      77.696497    
     27310   825.8945      -5534.046      -5370.1767      1592.1886      53338.578      77.743234    
     27320   839.82301     -5537.0219     -5370.3889      1522.6072      53329.208      77.771685    
     27330   851.10224     -5539.4465     -5370.5757      1423.7062      53319.549      77.772872    
     27340   852.41616     -5539.9153     -5370.7837      1458.9691      53309.49       77.750087    
     27350   841.25226     -5537.9249     -5371.0084      1627.2682      53299.055      77.711974    
     27360   838.61957     -5537.6301     -5371.236       1730.5372      53288.463      77.666797    
     27370   836.12847     -5537.3555     -5371.4556      1904.5415      53277.972      77.627887    
     27380   830.54726     -5536.4524     -5371.6599      2198.1244      53267.906      77.604682    
     27390   832.56563     -5537.0402     -5371.8472      2489.0095      53258.619      77.594754    
     27400   837.79177     -5538.256      -5372.0261      2599.8599      53250.245      77.594575    
     27410   848.62261     -5540.6049     -5372.226       2456.4598      53242.616      77.595608    
     27420   866.93695     -5544.5079     -5372.4952      2181.9608      53235.415      77.599529    
     27430   866.68734     -5544.843      -5372.8798      2096.9544      53228.418      77.614383    
     27440   860.84996     -5544.193      -5373.388       2176.9908      53221.651      77.636572    
     27450   860.29938     -5544.6973     -5374.0015      2252.1069      53215.235      77.663545    
     27460   860.44363     -5545.4476     -5374.7233      2225.5058      53209.077      77.695209    
     27470   841.7111      -5542.5278     -5375.5203      2362.9488      53202.829      77.722788    
     27480   822.26893     -5539.4462     -5376.2962      2493.4468      53196.262      77.741109    
     27490   825.12993     -5540.7268     -5377.0092      2350.4784      53189.315      77.762361    
     27500   826.81671     -5541.7104     -5377.6582      2129.6847      53181.78       77.796152    
     27510   822.4052      -5541.4266     -5378.2497      1934.4609      53173.403      77.83998     
     27520   819.06206     -5541.2867     -5378.7731      1810.2494      53163.992      77.882132    
     27530   817.18732     -5541.3695     -5379.2278      1730.9174      53153.438      77.913881    
     27540   809.84538     -5540.302      -5379.6171      1777.8448      53141.732      77.926681    
     27550   805.32203     -5539.7183     -5379.9308      1851.5809      53128.889      77.911559    
     27560   804.36155     -5539.7681     -5380.1712      1995.2767      53114.925      77.866352    
     27570   806.0814      -5540.2899     -5380.3518      2073.0812      53099.881      77.797953    
     27580   813.99524     -5541.9884     -5380.4801      2044.1302      53083.799      77.718756    
     27590   829.70412     -5545.2231     -5380.598       1997.989       53066.679      77.638016    
     27600   836.08335     -5546.644      -5380.7531      2202.014       53048.518      77.560926    
[...]
     48200   599.18356     -5588.2167     -5469.3301      278.36457      54642.361      112.23276    
     48210   600.36716     -5588.4679     -5469.3465      125.86739      54631.795      112.23224    
     48220   603.77132     -5589.1655     -5469.3686      1.5409916      54622.133      112.21931    
     48230   603.12736     -5589.0758     -5469.4067     -49.243656      54612.54       112.201      
     48240   610.78849     -5590.6652     -5469.476      -156.30759      54602.531      112.18605    
     48250   615.09311     -5591.6594     -5469.6161     -143.49883      54591.512      112.18032    
     48260   610.15907     -5590.9362     -5469.8719      10.975817      54579.548      112.18168    
     48270   604.59929     -5590.2279     -5470.2667      224.77569      54567.719      112.17877    
     48280   602.28526     -5590.3184     -5470.8163      338.76514      54557.428      112.16687    
     48290   601.47782     -5590.8702     -5471.5284      380.92505      54549.471      112.15077    
     48300   602.56272     -5591.9418     -5472.3847      351.11164      54544.113      112.13696    
     48310   602.79859     -5592.9456     -5473.3417      283.90195      54541.197      112.13234    
     48320   602.50026     -5593.875      -5474.3303      214.2051       54540.282      112.13792    
     48330   603.14772     -5594.9652     -5475.2921      113.29417      54540.835      112.15013    
     48340   600.27949     -5595.2816     -5476.1776      13.85419       54542.178      112.16544    
     48350   587.71609     -5593.5608     -5476.9495     -12.044315      54543.671      112.17818    
     48360   575.44624     -5591.7363     -5477.5596     -73.297901      54545.03       112.18579    
     48370   571.76183     -5591.4503     -5478.0046     -168.90059      54545.868      112.19042    
     48380   567.68946     -5590.9332     -5478.2955     -252.17663      54545.539      112.19329    
     48390   567.245       -5590.9926     -5478.443      -288.31408      54543.472      112.19362    
     48400   571.52516     -5591.866      -5478.4672     -377.64308      54539.314      112.19289    
     48410   573.20172     -5592.1146     -5478.3832     -399.06508      54532.527      112.19026    
     48420   570.68763     -5591.4305     -5478.1979     -398.27449      54522.927      112.18089    
     48430   572.63031     -5591.5221     -5477.904      -448.09885      54510.498      112.15795    
     48440   579.41399     -5592.4742     -5477.5102     -465.658        54494.96       112.11796    
     48450   585.77005     -5593.2642     -5477.039      -397.83741      54476.157      112.0671     
     48460   589.20638     -5593.4235     -5476.5165     -209.60255      54454.545      112.02095    
     48470   587.72318     -5592.5764     -5475.9637      50.30578       54431.448      111.98888    
     48480   587.79174     -5592.0139     -5475.3876      205.31064      54408.558      111.96744    
     48490   588.69051     -5591.5983     -5474.7936      300.8849       54386.984      111.95611    
     48500   586.46087     -5590.5538     -5474.1916      439.66967      54367.472      111.95746    
     48510   582.63594     -5589.1857     -5473.5824      547.69995      54350.931      111.97253    
     48520   583.22736     -5588.6836     -5472.9629      578.72552      54338.095      111.99434    
     48530   584.70347     -5588.3558     -5472.3423      572.49374      54329.21       112.01498    
     48540   587.21506     -5588.2401     -5471.7282      541.70918      54324.235      112.03428    
     48550   592.50272     -5588.6946     -5471.1336      482.49459      54322.988      112.05635    
     48560   595.05146     -5588.6444     -5470.5777      414.92066      54325.087      112.08299    
     48570   596.51479     -5588.4236     -5470.0665      325.50005      54330.075      112.11048    
     48580   600.30685     -5588.71       -5469.6005      290.66028      54337.437      112.13745    
     48590   597.93427     -5587.8182     -5469.1795      317.3297       54346.894      112.16928    
     48600   590.55603     -5585.9659     -5468.7912      424.23981      54358.666      112.21193    
     48610   596.00994     -5586.6654     -5468.4085      397.68069      54373.374      112.2669     
     48620   607.60146     -5588.5968     -5468.04        277.04229      54390.916      112.32844    
     48630   611.52989     -5589.0542     -5467.7179      253.53007      54410.65       112.38917    
     48640   609.98426     -5588.4917     -5467.4621      222.01221      54432.353      112.45001    
     48650   610.11623     -5588.313      -5467.2572      176.93225      54455.814      112.51917    
     48660   611.08024     -5588.3514     -5467.1044      134.23696      54480.72       112.60251    
     48670   607.91856     -5587.6106     -5466.9908      144.58785      54506.852      112.69532    
     48680   609.56694     -5587.8669     -5466.9201      182.20835      54534.306      112.78858    
     48690   612.46582     -5588.4078     -5466.8858      177.60866      54563.294      112.87742    
     48700   614.29143     -5588.7883     -5466.9041      195.4317       54593.891      112.96739    
     48710   614.55783     -5588.9172     -5466.9802      122.96294      54626.136      113.06763    
     48720   605.72045     -5587.2927     -5467.1091      174.11259      54659.713      113.18004    
     48730   597.93848     -5585.9019     -5467.2623      197.56502      54694.865      113.30398    
     48740   599.245       -5586.3197     -5467.4209      174.15959      54731.823      113.43603    
     48750   598.07426     -5586.2443     -5467.5778      110.42513      54770.46       113.57411    
     48760   592.56646     -5585.3013     -5467.7276      43.356705      54810.369      113.71968    
     48770   591.98475     -5585.3196     -5467.8613     -84.901924      54851.059      113.87152    
     48780   592.85611     -5585.5964     -5467.9653     -290.09114      54891.61       114.02339    
     48790   596.73935     -5586.4493     -5468.0477     -511.46008      54930.625      114.16355    
     48800   599.7259      -5587.1173     -5468.1231     -669.94442      54966.571      114.27881    
     48810   601.088       -5587.4674     -5468.2029     -737.41564      54998.275      114.36502    
     48820   606.39605     -5588.6232     -5468.3055     -841.00485      55025.08       114.42978    
     48830   612.51838     -5589.9888     -5468.4564     -917.06635      55046.263      114.47931    
     48840   616.86223     -5591.0771     -5468.6828     -967.95589      55061.177      114.51808    
     48850   616.57241     -5591.3525     -5469.0157     -931.12402      55069.444      114.55418    
     48860   613.37512     -5591.1735     -5469.4711     -853.86175      55071.172      114.58964    
     48870   607.5382      -5590.5802     -5470.0359     -790.58737      55066.804      114.61251    
     48880   603.33524     -5590.4059     -5470.6955     -749.17371      55056.693      114.61537    
     48890   596.05537     -5589.6724     -5471.4064     -674.32363      55041.064      114.59513    
     48900   592.22888     -5589.6343     -5472.1276     -687.11475      55020.274      114.5495     
     48910   592.9837      -5590.4897     -5472.8333     -740.42279      54994.222      114.47777    
     48920   595.05157     -5591.5759     -5473.5092     -759.90753      54962.501      114.37833    
     48930   592.18462     -5591.6411     -5474.1432     -675.41342      54924.923      114.25274    
     48940   582.89651     -5590.3517     -5474.6967     -496.92053      54882.019      114.11569    
     48950   579.61975     -5590.1451     -5475.1403     -362.34695      54834.903      113.98264    
     48960   584.69599     -5591.4833     -5475.4712     -373.70568      54784.419      113.85833    
     48970   587.34745     -5592.2527     -5475.7145     -365.31384      54730.634      113.73664    
     48980   586.57263     -5592.2728     -5475.8884     -311.77383      54673.593      113.60862    
     48990   589.64765     -5592.9939     -5475.9994     -267.6015       54613.617      113.47352    
     49000   588.55854     -5592.8438     -5476.0653     -135.81518      54551.102      113.33664    
     49010   580.31378     -5591.2174     -5476.0748      29.465334      54486.941      113.20578    
     49020   576.04694     -5590.3037     -5476.0077      188.63151      54422.316      113.08293    
     49030   578.14092     -5590.5637     -5475.8523      344.93601      54358.372      112.95765    
     49040   581.07477     -5590.9109     -5475.6173      507.50411      54296.229      112.82404    
     49050   578.43806     -5590.0741     -5475.3037      751.78938      54237.154      112.68866    
     49060   583.9071      -5590.771      -5474.9155      847.6479       54182.726      112.56238    
     49070   601.3014      -5593.7977     -5474.4909      729.18706      54133.612      112.45445    
     49080   610.09387     -5595.1399     -5474.0885      646.11334      54089.208      112.36959    
     49090   609.74774     -5594.7345     -5473.7518      569.72705      54048.932      112.30549    
     49100   605.62566     -5593.6425     -5473.4777      566.19765      54012.367      112.25313    
     49110   609.27275     -5594.1434     -5473.255       511.86434      53979.362      112.20413    
     49120   612.08385     -5594.5276     -5473.0814      539.97243      53949.655      112.15534    
     49130   607.77818     -5593.5601     -5472.9682      671.82374      53923.451      112.11356    
     49140   597.1         -5591.3628     -5472.8896      941.52942      53901.732      112.09043    
     49150   590.08019     -5589.8903     -5472.8099      1151.1726      53886.26       112.08904    
     49160   592.34163     -5590.2396     -5472.7106      1182.0154      53878.438      112.10645    
     49170   597.49715     -5591.146      -5472.594       1067.0459      53878.569      112.14322    
     49180   598.04489     -5591.1412     -5472.4806      953.97766      53886.034      112.19656    
     49190   590.73372     -5589.579      -5472.3689      913.20602      53900.197      112.25721    
     49200   583.27344     -5587.9677     -5472.2378      829.05061      53920.777      112.31967    
     49210   583.24905     -5587.7911     -5472.0662      748.76182      53947.365      112.38716    
     49220   588.98861     -5588.7177     -5471.8539      652.0522       53979.473      112.46722    
     49230   590.65901     -5588.8165     -5471.6213      592.93386      54016.547      112.56484    
     49240   590.63204     -5588.5715     -5471.3817      583.63154      54058.274      112.68216    
     49250   593.72998     -5588.9484     -5471.1438      529.36749      54104.586      112.81644    
     49260   594.19186     -5588.8092     -5470.913       525.65056      54155.292      112.95918    
     49270   593.61592     -5588.4811     -5470.6992      489.18392      54210.309      113.10188    
     49280   593.41745     -5588.2375     -5470.495       401.13774      54269.436      113.23762    
     49290   596.42426     -5588.6429     -5470.3038      271.69554      54332.116      113.36386    
     49300   597.59326     -5588.6982     -5470.1272      100.37562      54397.472      113.48688    
     49310   597.24499     -5588.4624     -5469.9604     -67.946803      54464.345      113.61265    
     49320   600.96621     -5589.0494     -5469.8091     -204.34753      54531.555      113.74112    
     49330   602.2493      -5589.167      -5469.6721     -253.87727      54598.167      113.86973    
     49340   598.71861     -5588.354      -5469.5597     -232.88124      54663.752      114.0008     
     49350   592.39433     -5586.9957     -5469.4562     -226.13396      54728.323      114.14123    
     49360   583.59974     -5585.124      -5469.3295     -257.17226      54791.901      114.28592    
     49370   579.92093     -5584.2198     -5469.1552     -384.71495      54854.178      114.42054    
     49380   583.85774     -5584.7673     -5468.9216     -569.35135      54914.236      114.53267    
     49390   590.3141      -5585.7726     -5468.6458     -725.61292      54970.758      114.62079    
     49400   594.46142     -5586.2948     -5468.3451     -795.43382      55022.581      114.68996    
     49410   595.00226     -5586.1        -5468.043      -800.52362      55069.148      114.74904    
     49420   594.37369     -5585.6697     -5467.7374     -777.99006      55110.343      114.80158    
     49430   591.92376     -5584.8746     -5467.4285     -758.81423      55146.207      114.84595    
     49440   591.30681     -5584.4315     -5467.1078     -747.68728      55176.83       114.88655    
     49450   589.44546     -5583.7236     -5466.7692     -687.78174      55202.338      114.93016    
     49460   593.30915     -5584.1375     -5466.4164     -739.87655      55222.973      114.98087    
     49470   598.76921     -5584.8556     -5466.0512     -783.98018      55238.445      115.03446    
     49480   607.33738     -5586.2047     -5465.7003     -871.55218      55248.32       115.0811     
     49490   615.94359     -5587.6113     -5465.3993     -923.33378      55251.988      115.11507    
     49500   617.15348     -5587.6219     -5465.1699     -885.09892      55249.067      115.13573    
     49510   613.60065     -5586.7701     -5465.023      -736.36788      55239.82       115.14188    
     49520   611.31699     -5586.2303     -5464.9363     -570.03058      55225.193      115.12816    
     49530   612.34224     -5586.4054     -5464.9079     -414.02093      55206.332      115.09663    
     49540   606.93874     -5585.347      -5464.9217     -216.18455      55184.352      115.06719    
     49550   598.59752     -5583.7335     -5464.9632     -64.790774      55160.602      115.056      
     49560   597.63047     -5583.5841     -5465.0057     -38.114858      55136.123      115.06663    
     49570   596.35525     -5583.3622     -5465.0368     -80.651308      55111.119      115.09602    
     49580   595.51138     -5583.2175     -5465.0595     -104.27694      55085.318      115.13482    
     49590   596.0031      -5583.3146     -5465.059      -80.878719      55058.577      115.16739    
     49600   598.3417      -5583.7614     -5465.0418     -60.488263      55030.992      115.18348    
     49610   597.10568     -5583.4893     -5465.0149      21.087981      55002.758      115.18067    
     49620   596.87627     -5583.3951     -5464.9663      47.867365      54974.369      115.16371    
     49630   595.84119     -5583.1176     -5464.8941      110.45313      54946.13       115.14508    
     49640   597.80375     -5583.4017     -5464.7889      107.18359      54918.394      115.13503    
     49650   604.09588     -5584.5212     -5464.66        90.349221      54891.18       115.13564    
     49660   603.34023     -5584.2301     -5464.5188      193.91122      54864.442      115.1473     
     49670   597.48134     -5582.9103     -5464.3614      335.10965      54838.885      115.16326    
     49680   595.43974     -5582.3038     -5464.1601      402.13337      54815.454      115.17284    
     49690   596.93271     -5582.3335     -5463.8935      392.8524       54794.643      115.1707     
     49700   603.27283     -5583.2443     -5463.5463      239.91604      54776.323      115.16145    
     49710   614.52334     -5585.0654     -5463.1352      44.926733      54759.509      115.15697    
     49720   622.03574     -5586.1139     -5462.6931     -24.997245      54742.946      115.1623     
     49730   624.75562     -5586.2241     -5462.2637      46.600194      54726.177      115.17357    
     49740   625.59078     -5586.0037     -5461.8775      68.383726      54709.552      115.18972    
     49750   622.35907     -5585.0427     -5461.5578      102.74175      54693.269      115.21709    
     49760   618.0486      -5583.9287     -5461.299       88.398471      54677.522      115.25878    
     49770   614.44823     -5583.0165     -5461.1012      24.657346      54662.189      115.30438    
     49780   603.78884     -5580.7438     -5460.9434      34.754344      54646.912      115.33588    
     49790   601.04077     -5580.0531     -5460.798      -17.087623      54631.677      115.34389    
     49800   607.00058     -5581.0902     -5460.6526     -111.40992      54616.118      115.33221    
     49810   610.10155     -5581.5751     -5460.5222     -107.46422      54599.692      115.31615    
     49820   607.72078     -5581.0031     -5460.4225     -48.394677      54582.385      115.31041    
     49830   609.77641     -5581.34       -5460.3516     -62.499178      54564.537      115.32109    
     49840   620.16865     -5583.3717     -5460.3214     -161.49655      54546.014      115.34697    
     49850   626.13609     -5584.6036     -5460.3693     -158.06873      54526.204      115.38092    
     49860   620.12463     -5583.5632     -5460.5216      18.127403      54505.145      115.41175    
     49870   611.49748     -5582.0922     -5460.7623      294.52643      54484.044      115.42779    
     49880   613.53239     -5582.8033     -5461.0697      473.88048      54464.708      115.43283    
     49890   615.49595     -5583.5841     -5461.4609      590.69727      54448.436      115.44239    
     49900   611.49281     -5583.2615     -5461.9325      735.70646      54436.197      115.46722    
     49910   608.13428     -5583.13       -5462.4675      793.45943      54428.956      115.50692    
     49920   603.43369     -5582.7759     -5463.046       817.60244      54427.174      115.55508    
     49930   600.78496     -5582.8436     -5463.6393      829.73129      54431.08       115.61286    
     49940   603.62173     -5583.9983     -5464.2311      770.52921      54440.81       115.68767    
     49950   601.76715     -5584.2253     -5464.8261      706.21643      54456.038      115.78284    
     49960   594.72953     -5583.3929     -5465.3901      629.40134      54476.396      115.89503    
     49970   595.1748      -5583.9987     -5465.9075      389.39617      54501.299      116.0199     
     49980   594.39912     -5584.3026     -5466.3653      185.97698      54529.225      116.15102    
     49990   590.03298     -5583.8346     -5466.7636      150.35006      54558.864      116.27987    
     50000   590.07811     -5584.1774     -5467.0974      113.17278      54589.843      116.40072    
Loop time of 6082.49 on 1 procs for 20000 steps with 1536 atoms

Performance: 0.284 ns/day, 84.479 hours/ns, 3.288 timesteps/s, 5.051 katom-step/s
130.6% CPU use with 1 MPI tasks x 1 OpenMP threads

MPI task timing breakdown:
Section |  min time  |  avg time  |  max time  |%varavg| %total
---------------------------------------------------------------
Pair    | 5948.4     | 5948.4     | 5948.4     |   0.0 | 97.79
Bond    | 0.0062843  | 0.0062843  | 0.0062843  |   0.0 |  0.00
Neigh   | 5.103      | 5.103      | 5.103      |   0.0 |  0.08
Comm    | 0.63393    | 0.63393    | 0.63393    |   0.0 |  0.01
Output  | 126.76     | 126.76     | 126.76     |   0.0 |  2.08
Modify  | 1.4943     | 1.4943     | 1.4943     |   0.0 |  0.02
Other   |            | 0.1368     |            |       |  0.00

Nlocal:           1536 ave        1536 max        1536 min
Histogram: 1 0 0 0 0 0 0 0 0 0
Nghost:           2406 ave        2406 max        2406 min
Histogram: 1 0 0 0 0 0 0 0 0 0
Neighs:              0 ave           0 max           0 min
Histogram: 1 0 0 0 0 0 0 0 0 0
FullNghs:        43272 ave       43272 max       43272 min
Histogram: 1 0 0 0 0 0 0 0 0 0

Total # of neighbors = 43272
Ave neighs/atom = 28.171875
Ave special neighs/atom = 0
Neighbor list builds = 2000
Dangerous builds = 2000
unfix           3

write_data      structure.end.data
System init for write_data ...
write_restart   structure.end
System init for write_restart ...
                    
Total wall time: 2:37:23
