LAMMPS (29 Sep 2021 - Update 3)
OMP_NUM_THREADS environment is not set. Defaulting to 1 thread. (src/comm.cpp:98)
  using 1 OpenMP thread(s) per MPI task
units	metal
atom_style	full

read_data	mixed.data
Reading data file ...
  orthogonal box = (0.0000000 0.0000000 0.0000000) to (17.171819 17.292452 83.119182)
  1 by 2 by 8 MPI processor grid
  reading atoms ...
  864 atoms
Finding 1-2 1-3 1-4 neighbors ...
  special bond factors lj:    0        0        0       
  special bond factors coul:  0        0        0       
     0 = max # of 1-2 neighbors
     0 = max # of 1-3 neighbors
     0 = max # of 1-4 neighbors
     1 = max # of special neighbors
  special bonds CPU = 0.001 seconds
  read_data CPU = 0.027 seconds

pair_style	quip
pair_coeff	* * /ocean/projects/cts180021p/wuziqi/clease/mint-PD/PhaseDiagram-Clease/Liquid/GAP_potential/gap_LiKCl.xml "Potential xml_label=GAP_2021_9_27_0_1_17_37_618" 17 19 3

neighbor	0.3 bin
neigh_modify	delay 10

timestep	0.001
compute	msd all msd
thermo_style	custom step temp pe etotal press vol c_msd[4]
thermo	10
dump	1 all custom 10 xyz-mix.dump type id x y z
dump	2 all custom 10 force-mix.dump type id fx fy fz

fix     1 all nve
run     2000
Neighbor list info ...
  update every 1 steps, delay 10 steps, check yes
  max neighbors/atom: 2000, page size: 100000
  master list distance cutoff = 6.22
  ghost atom cutoff = 6.22
  binsize = 3.11, bins = 6 6 27
  1 neighbor lists, perpetual/occasional/extra = 1 0 0
  (1) pair quip, perpetual
      attributes: full, newton on
      pair build: full/bin
      stencil: full/bin/3d
      bin: standard
Per MPI rank memory allocation (min/avg/max) = 8.894 | 8.900 | 8.906 Mbytes
Step Temp PotEng TotEng Press Volume c_msd[4] 
       0            0   -7174.3834   -7174.3834   -3403.7864    24681.648            0 
      10    59.886459   -7181.0715   -7174.3911    -3591.811    24681.648 0.0004428069 
      20    152.53511   -7191.4143   -7174.3988    -3532.456    24681.648 0.0053913133 
      30    183.53475   -7194.8677   -7174.3941   -2645.2133    24681.648  0.017829876 
      40    202.66462   -7197.0001   -7174.3926   -1813.5571    24681.648  0.032805386 
      50    235.34035   -7200.6482   -7174.3956    -1646.813    24681.648   0.04588816 
      60    247.94168    -7202.052   -7174.3938   -1842.2959    24681.648   0.05765331 
      70    253.09642   -7202.6277   -7174.3944   -2064.7915    24681.648  0.069436765 
      80    250.99467   -7202.3926   -7174.3937   -2200.0016    24681.648  0.082900901 
      90    246.12852   -7201.8494   -7174.3934   -2173.7127    24681.648  0.099028065 
     100    244.92959   -7201.7179   -7174.3956   -1978.8699    24681.648   0.11746343 
     110    242.28341    -7201.419   -7174.3919   -1729.6413    24681.648   0.13557848 
     120    255.22195   -7202.8655   -7174.3951   -1848.0783    24681.648   0.15075494 
     130    256.29683   -7202.9842   -7174.3939     -2007.52    24681.648   0.16545013 
     140    255.59143   -7202.9057   -7174.3941   -2078.8051    24681.648   0.17976362 
     150    254.71653    -7202.809    -7174.395   -2143.2247    24681.648   0.19317961 
     160    251.90206   -7202.4945   -7174.3944   -2001.6951    24681.648   0.20534635 
     170    250.97219   -7202.3902   -7174.3939   -1889.6105    24681.648   0.21663825 
     180     257.3806   -7203.1055   -7174.3943   -1934.6918    24681.648    0.2288925 
     190     260.3621   -7203.4402   -7174.3964   -1958.2977    24681.648   0.24328518 
     200    252.18366   -7202.5243   -7174.3928   -1925.8316    24681.648   0.25702409 
     210    258.35994    -7203.215   -7174.3946   -1990.3907    24681.648   0.26669152 
     220    260.53492   -7203.4573   -7174.3943   -1988.9024    24681.648    0.2748492 
     230    258.23338   -7203.2005   -7174.3942   -1795.6857    24681.648   0.28332799 
     240    252.93197   -7202.6085   -7174.3936   -1566.3378    24681.648   0.29247854 
     250    254.73094   -7202.8097   -7174.3941   -1512.6013    24681.648   0.30118823 
     260    260.13921   -7203.4133   -7174.3944   -1595.4355    24681.648   0.30980823 
     270    263.33316   -7203.7692    -7174.394   -1672.2968    24681.648    0.3193726 
     280    266.81067   -7204.1584   -7174.3953   -1641.3932    24681.648   0.32972958 
     290    262.39696   -7203.6654   -7174.3946   -1516.4449    24681.648   0.34016636 
     300    261.07623   -7203.5192   -7174.3957   -1490.2694    24681.648   0.34870802 
     310    256.60645    -7203.019   -7174.3942   -1424.9004    24681.648   0.35616095 
     320    255.12221   -7202.8537   -7174.3944   -1431.1943    24681.648   0.36426417 
     330    257.21766   -7203.0875   -7174.3944   -1535.2284    24681.648   0.37294434 
     340    260.71445   -7203.4781    -7174.395   -1738.4386    24681.648   0.38207588 
     350    260.87542   -7203.4955   -7174.3944   -1787.8195    24681.648   0.39203939 
     360    259.24296   -7203.3137   -7174.3948   -1801.5109    24681.648   0.40305256 
     370     256.8045   -7203.0415   -7174.3946    -1871.197    24681.648   0.41474987 
     380    253.74937   -7202.7006   -7174.3945   -2006.2935    24681.648   0.42675018 
     390     250.3984   -7202.3262   -7174.3939   -2133.6916    24681.648    0.4387225 
     400    253.59482   -7202.6831   -7174.3942   -2227.7267    24681.648   0.44925493 
     410    258.62293   -7203.2446   -7174.3948   -2242.4151    24681.648   0.45744528 
     420    260.59152   -7203.4634   -7174.3941   -2202.0252    24681.648   0.46381779 
     430    265.56276   -7204.0186   -7174.3947   -2285.5748    24681.648   0.46928077 
     440    267.29796   -7204.2122   -7174.3947   -2340.4066    24681.648   0.47466356 
     450     263.7688   -7203.8177   -7174.3939   -2324.3833    24681.648   0.47995391 
     460    263.97331    -7203.841   -7174.3944   -2444.9636    24681.648   0.48477747 
     470    265.08715   -7203.9653   -7174.3944   -2633.9331    24681.648   0.48948207 
     480    264.24939   -7203.8716   -7174.3942   -2661.2403    24681.648   0.49464966 
     490    265.03895   -7203.9596   -7174.3941   -2483.9795    24681.648   0.50051068 
     500     268.0228   -7204.2928   -7174.3944   -2130.0039    24681.648   0.50762008 
     510    269.68559   -7204.4783   -7174.3945   -1895.8231    24681.648   0.51677182 
     520     269.3401     -7204.44   -7174.3947   -1772.5691    24681.648   0.52791571 
     530      266.526   -7204.1254    -7174.394   -1820.7728    24681.648   0.53993524 
     540    268.21801   -7204.3142   -7174.3941   -1957.9364    24681.648   0.55113406 
     550    273.27905   -7204.8799   -7174.3952   -1952.1322    24681.648   0.56047872 
     560     270.7895   -7204.6017   -7174.3947   -1784.6397    24681.648   0.56820517 
     570    267.63087   -7204.2482   -7174.3935    -1644.341    24681.648   0.57439114 
     580    274.75017   -7205.0438    -7174.395   -1642.7538    24681.648   0.57908351 
     590    278.06846    -7205.414    -7174.395   -1634.7568    24681.648   0.58273182 
     600    275.33483   -7205.1086   -7174.3946   -1546.2732    24681.648   0.58557023 
     610    272.73058   -7204.8178   -7174.3943   -1362.5514    24681.648   0.58813395 
     620     275.6395   -7205.1428   -7174.3948   -1228.8054    24681.648   0.59107932 
     630    277.82637   -7205.3871   -7174.3952    -1223.228    24681.648   0.59521422 
     640    275.21147   -7205.0945   -7174.3942   -1328.0133    24681.648   0.60059579 
     650    276.76341   -7205.2679   -7174.3945   -1587.9159    24681.648   0.60632225 
     660    280.29592   -7205.6626   -7174.3951   -1876.3308    24681.648   0.61197812 
     670    278.94874   -7205.5114   -7174.3943   -1988.9252    24681.648    0.6176124 
     680    279.62887   -7205.5876   -7174.3946    -1854.874    24681.648   0.62312175 
     690    278.35671   -7205.4465   -7174.3954     -1626.67    24681.648   0.62896185 
     700    269.37243   -7204.4429    -7174.394   -1418.2553    24681.648   0.63559784 
     710    266.45521   -7204.1181   -7174.3946   -1472.5221    24681.648   0.64215216 
     720    265.84495   -7204.0503   -7174.3949   -1709.2555    24681.648   0.64781464 
     730    263.59964   -7203.7992   -7174.3943   -1848.2285    24681.648   0.65193307 
     740    266.57701   -7204.1317   -7174.3946   -1895.4286    24681.648   0.65412735 
     750    271.76415   -7204.7106   -7174.3949   -1968.2386    24681.648   0.65547825 
     760      275.029   -7205.0755   -7174.3956   -2013.6107    24681.648   0.65726746 
     770     271.0675   -7204.6326   -7174.3946   -1846.7085    24681.648   0.65945095 
     780    271.60028    -7204.692   -7174.3946   -1756.0037    24681.648   0.66122261 
     790    276.79844    -7205.273   -7174.3957   -1802.9901    24681.648   0.66298127 
     800    272.61055    -7204.805   -7174.3949   -1872.3043    24681.648    0.6665383 
     810    266.19836   -7204.0894   -7174.3945   -1968.7863    24681.648   0.67221854 
     820    263.38752   -7203.7759   -7174.3946   -2141.6217    24681.648   0.67891951 
     830    264.77149   -7203.9298   -7174.3941   -2417.3308    24681.648   0.68520732 
     840    272.58637    -7204.803   -7174.3955   -2752.0813    24681.648   0.69025418 
     850    272.65549   -7204.8097   -7174.3946   -2928.1991    24681.648   0.69428736 
     860    273.59711   -7204.9144   -7174.3942   -2900.3005    24681.648    0.6970968 
     870    278.19824   -7205.4288   -7174.3953    -2707.162    24681.648    0.6996263 
     880    276.53864   -7205.2424   -7174.3941   -2500.9253    24681.648   0.70364771 
     890    279.23786   -7205.5442   -7174.3948   -2415.7746    24681.648   0.70924281 
     900    280.95843   -7205.7363    -7174.395    -2364.961    24681.648   0.71595523 
     910    278.43861   -7205.4551   -7174.3949   -2292.0963    24681.648   0.72276909 
     920    274.58034   -7205.0239    -7174.394   -2145.7325    24681.648    0.7279473 
     930    277.12312   -7205.3082   -7174.3947    -2157.167    24681.648   0.73037655 
     940    279.73337   -7205.5996   -7174.3949   -2169.2816    24681.648   0.73135876 
     950    279.22126   -7205.5421   -7174.3945   -2172.7349    24681.648   0.73362662 
     960    279.34211   -7205.5558   -7174.3947    -2162.325    24681.648   0.73879001 
     970    278.76831   -7205.4918   -7174.3948   -2041.5721    24681.648   0.74667297 
     980    277.67235   -7205.3697   -7174.3949   -1885.6852    24681.648   0.75580397 
     990    276.23383    -7205.209   -7174.3947   -1855.7306    24681.648   0.76364754 
    1000    276.65338   -7205.2559   -7174.3948   -1804.2694    24681.648   0.76766421 
    1010    277.15823    -7205.313   -7174.3956    -1670.983    24681.648   0.76766874 
    1020    269.42126   -7204.4494   -7174.3951   -1424.7931    24681.648   0.76610705 
    1030     260.7554   -7203.4818   -7174.3941   -1215.0065    24681.648   0.76554395 
    1040    261.30906   -7203.5441   -7174.3947   -1098.2689    24681.648   0.76665088 
    1050    265.20034   -7203.9786   -7174.3951   -1049.7855    24681.648   0.76872121 
    1060    265.37142   -7203.9979   -7174.3953     -1168.93    24681.648    0.7710414 
    1070    262.30523   -7203.6545    -7174.394   -1216.5846    24681.648   0.77312784 
    1080     269.2805   -7204.4336   -7174.3949   -1303.2806    24681.648   0.77456841 
    1090    278.21465   -7205.4311   -7174.3958   -1474.4916    24681.648   0.77578562 
    1100    279.83218   -7205.6107    -7174.395   -1575.5621    24681.648   0.77731718 
    1110    283.74367   -7206.0469   -7174.3949   -1579.9493    24681.648   0.77887111 
    1120    290.78719   -7206.8334   -7174.3957   -1573.7467    24681.648   0.78005841 
    1130    290.95381   -7206.8511   -7174.3948   -1519.3089    24681.648   0.78128493 
    1140    291.42672   -7206.9042   -7174.3951   -1587.1629    24681.648   0.78343187 
    1150    288.83961    -7206.616   -7174.3955   -1727.5352    24681.648   0.78763344 
    1160    278.98488   -7205.5156   -7174.3944   -1780.0997    24681.648   0.79353187 
    1170     274.5083   -7205.0159   -7174.3941   -1742.9948    24681.648   0.79894507 
    1180    278.08142   -7205.4157   -7174.3953   -1700.4448    24681.648   0.80276226 
    1190    278.86175    -7205.502   -7174.3946   -1575.2201    24681.648    0.8050797 
    1200    282.48118   -7205.9064   -7174.3952   -1531.0337    24681.648   0.80550341 
    1210     282.2015   -7205.8756   -7174.3956   -1582.1964    24681.648    0.8047093 
    1220    273.66019   -7204.9216   -7174.3943   -1443.9202    24681.648   0.80424724 
    1230    271.02344   -7204.6278   -7174.3947   -1294.8219    24681.648   0.80553838 
    1240    273.21828   -7204.8729    -7174.395   -1344.7406    24681.648   0.80963811 
    1250    274.53804   -7205.0205   -7174.3953   -1557.8461    24681.648   0.81626207 
    1260    273.33761   -7204.8857   -7174.3945   -1709.4029    24681.648    0.8238996 
    1270    277.03845    -7205.299   -7174.3949   -1861.8941    24681.648   0.83066888 
    1280    279.60921   -7205.5866   -7174.3958   -1776.8315    24681.648   0.83577326 
    1290     271.8553   -7204.7208   -7174.3949   -1451.3285    24681.648    0.8390946 
    1300    264.41726   -7203.8899   -7174.3937   -1174.9198    24681.648   0.84015079 
    1310    270.14381   -7204.5298   -7174.3948   -1305.4319    24681.648   0.83955817 
    1320    276.28563    -7205.216   -7174.3959   -1616.8447    24681.648    0.8394972 
    1330    269.37516    -7204.444   -7174.3948   -1792.2063    24681.648   0.84108811 
    1340    263.66565    -7203.806   -7174.3937   -1787.5686    24681.648   0.84324181 
    1350    271.75636   -7204.7105   -7174.3956   -1789.9886    24681.648   0.84491174 
    1360    274.27239   -7204.9909   -7174.3954   -1904.3466    24681.648   0.84675977 
    1370    271.14124   -7204.6406   -7174.3944   -2044.7094    24681.648   0.84884467 
    1380    273.68352    -7204.925   -7174.3952   -2173.0979    24681.648   0.85060846 
    1390    275.02452   -7205.0744    -7174.395   -2215.3954    24681.648   0.85231893 
    1400    276.25601   -7205.2118    -7174.395   -2238.0373    24681.648   0.85406463 
    1410    278.84188   -7205.4999   -7174.3947   -2167.4859    24681.648   0.85604751 
    1420    283.63171   -7206.0351   -7174.3956   -2106.7356    24681.648   0.85860197 
    1430     281.5104   -7205.7981   -7174.3952   -2039.7153    24681.648   0.86172051 
    1440    277.08643   -7205.3037   -7174.3943   -2134.4004    24681.648   0.86445233 
    1450    280.14663   -7205.6458    -7174.395   -2425.0475    24681.648   0.86616941 
    1460    284.16882   -7206.0946   -7174.3952   -2629.1536    24681.648   0.86801931 
    1470    286.02648   -7206.3014   -7174.3947   -2499.1716    24681.648   0.87115512 
    1480    288.85345   -7206.6176   -7174.3956   -2167.0023    24681.648   0.87530865 
    1490    284.31956   -7206.1114   -7174.3951   -1635.6837    24681.648   0.87953488 
    1500    278.98283   -7205.5151   -7174.3941    -1216.743    24681.648   0.88285916 
    1510    281.81212   -7205.8323   -7174.3957   -1229.4385    24681.648   0.88582692 
    1520    276.49173   -7205.2381   -7174.3951   -1562.5155    24681.648   0.89044229 
    1530    268.60167    -7204.357   -7174.3941   -1832.8137    24681.648   0.89739602 
    1540    268.44471   -7204.3404   -7174.3949   -2013.3452    24681.648   0.90578469 
    1550    268.16938   -7204.3093   -7174.3946   -2010.8653    24681.648   0.91410017 
    1560    269.46062   -7204.4535   -7174.3947   -1942.9791    24681.648   0.92102099 
    1570    272.53021   -7204.7961    -7174.395   -1895.4867    24681.648   0.92617748 
    1580    274.16463   -7204.9785   -7174.3951   -1823.6829    24681.648   0.92969488 
    1590    274.08365    -7204.969   -7174.3945   -1694.8776    24681.648   0.93183336 
    1600    276.38809   -7205.2266   -7174.3951   -1582.4042    24681.648   0.93327697 
    1610    276.47515   -7205.2358   -7174.3946    -1514.064    24681.648   0.93523754 
    1620    278.82635   -7205.4983   -7174.3948   -1527.2623    24681.648   0.93825527 
    1630    283.05477   -7205.9703   -7174.3951   -1480.4486    24681.648   0.94238563 
    1640    283.75544   -7206.0487   -7174.3953   -1428.7453    24681.648   0.94810451 
    1650    279.65577   -7205.5907   -7174.3946   -1482.0142    24681.648   0.95569667 
    1660    277.97149   -7205.4028   -7174.3947   -1644.7201    24681.648   0.96460041 
    1670    277.63235   -7205.3655   -7174.3952   -1799.5694    24681.648   0.97399532 
    1680     273.1457   -7204.8646   -7174.3948   -1807.2549    24681.648     0.982653 
    1690     269.1131   -7204.4145   -7174.3945    -1848.628    24681.648   0.98867138 
    1700    269.43844   -7204.4513    -7174.395   -2023.5742    24681.648   0.99116369 
    1710    269.78252   -7204.4896   -7174.3949   -2209.0436    24681.648    0.9917874 
    1720    270.65906   -7204.5872   -7174.3948   -2303.1156    24681.648   0.99313368 
    1730    273.04698    -7204.854   -7174.3952   -2347.4849    24681.648   0.99679692 
    1740    274.23892   -7204.9868   -7174.3951   -2237.2262    24681.648    1.0035992 
    1750    273.69441   -7204.9263   -7174.3952   -2020.2102    24681.648    1.0135583 
    1760    270.40125   -7204.5585   -7174.3949    -1788.634    24681.648    1.0251981 
    1770    270.68343   -7204.5897   -7174.3946   -1549.0244    24681.648    1.0353833 
    1780    277.90453   -7205.3964   -7174.3957    -1511.742    24681.648    1.0415834 
    1790    279.00509   -7205.5188   -7174.3954   -1597.8653    24681.648    1.0442507 
    1800    277.00732   -7205.2948   -7174.3942   -1788.7028    24681.648    1.0451598 
    1810    282.39257   -7205.8967   -7174.3954   -2040.7403    24681.648    1.0459368 
    1820    284.13814   -7206.0911   -7174.3951   -2280.9528    24681.648    1.0481335 
    1830    282.91429   -7205.9545   -7174.3949   -2430.6285    24681.648    1.0523919 
    1840     281.3318   -7205.7782   -7174.3952   -2306.2747    24681.648    1.0583276 
    1850    277.24801   -7205.3224    -7174.395   -2023.8294    24681.648    1.0646013 
    1860    275.86189   -7205.1669   -7174.3941   -1648.8281    24681.648    1.0693247 
    1870    285.01658   -7206.1898   -7174.3957   -1237.5386    24681.648    1.0720376 
    1880    287.69204   -7206.4885    -7174.396   -948.96764    24681.648    1.0743863 
    1890    280.11635   -7205.6423   -7174.3949   -885.51677    24681.648    1.0774135 
    1900    276.31656   -7205.2185    -7174.395   -989.28796    24681.648    1.0809193 
    1910      276.623   -7205.2529   -7174.3952   -1167.7604    24681.648    1.0845535 
    1920    277.67777   -7205.3704    -7174.395   -1316.9346    24681.648    1.0879417 
    1930    280.71277   -7205.7092   -7174.3953   -1469.0337    24681.648    1.0909294 
    1940    281.53928   -7205.8014   -7174.3953   -1673.5867    24681.648     1.094033 
    1950    279.58172   -7205.5827    -7174.395   -1827.7357    24681.648    1.0978665 
    1960    278.22672   -7205.4318   -7174.3952   -1824.7991    24681.648    1.1027058 
    1970    275.53555   -7205.1314    -7174.395    -1644.041    24681.648    1.1084664 
    1980    273.96064   -7204.9552   -7174.3945   -1378.9505    24681.648    1.1145371 
    1990    277.66865   -7205.3694    -7174.395   -1245.5747    24681.648    1.1207676 
    2000    280.84548   -7205.7241   -7174.3953   -1211.1794    24681.648    1.1274187 
Loop time of 1324.77 on 16 procs for 2000 steps with 864 atoms

Performance: 0.130 ns/day, 183.996 hours/ns, 1.510 timesteps/s
97.8% CPU use with 16 MPI tasks x 1 OpenMP threads

MPI task timing breakdown:
Section |  min time  |  avg time  |  max time  |%varavg| %total
---------------------------------------------------------------
Pair    | 548.04     | 1066.1     | 1310.8     | 615.3 | 80.48
Bond    | 0.00014591 | 0.00034153 | 0.00073314 |   0.0 |  0.00
Neigh   | 0.017905   | 0.027741   | 0.040068   |   3.1 |  0.00
Comm    | 13.201     | 243.77     | 752.81     |1254.8 | 18.40
Output  | 0.13529    | 7.2688     | 18.952     | 236.0 |  0.55
Modify  | 0.0087821  | 0.018413   | 0.14147    |  23.4 |  0.00
Other   |            | 7.563      |            |       |  0.57

Nlocal:        54.0000 ave          68 max          38 min
Histogram: 2 0 1 2 1 3 1 3 1 2
Nghost:        453.312 ave         541 max         363 min
Histogram: 1 1 1 3 2 1 4 1 1 1
Neighs:         0.00000 ave           0 max           0 min
Histogram: 16 0 0 0 0 0 0 0 0 0
FullNghs:      1935.12 ave        2876 max         990 min
Histogram: 2 0 2 1 4 1 2 1 2 1

Total # of neighbors = 30962
Ave neighs/atom = 35.835648
Ave special neighs/atom = 0.0000000
Neighbor list builds = 199
Dangerous builds = 198
unfix   1

velocity    all create 412.5 1312343 dist gaussian
fix     2 all npt temp 412.5 412.5 $(100.0*dt) aniso 0.0 1.01325 $(1000.0*dt)
fix     2 all npt temp 412.5 412.5 0.10000000000000000555 aniso 0.0 1.01325 $(1000.0*dt)
fix     2 all npt temp 412.5 412.5 0.10000000000000000555 aniso 0.0 1.01325 1
run     3000
Per MPI rank memory allocation (min/avg/max) = 8.894 | 8.901 | 8.907 Mbytes
Step Temp PotEng TotEng Press Volume c_msd[4] 
    2000        412.5   -7205.7241   -7159.7091      -575.62    24681.648    1.1274187 
    2010    390.09185   -7203.2156   -7159.7003   -466.65125    24680.609    1.1303703 
    2020    368.15214   -7200.7173   -7159.6494   -351.07916    24677.831    1.1341802 
    2030    365.29358   -7200.2674   -7159.5184    -329.7562    24673.718    1.1382988 
    2040    350.51225   -7198.3885   -7159.2883    -249.2427     24668.41     1.143678 
    2050    334.76505    -7196.296   -7158.9525   -166.13469    24662.178    1.1493139 
    2060    339.30245   -7196.3519   -7158.5022   -185.99043    24655.302    1.1536803 
    2070    348.42171   -7196.8347   -7157.9678   -297.84332     24647.71    1.1568089 
    2080    353.88397   -7196.9096   -7157.4333   -457.47636    24638.989    1.1588434 
    2090     358.7602   -7196.9778   -7156.9576   -590.57049    24628.574    1.1601992 
    2100    364.18737   -7197.1723   -7156.5467   -534.66426    24616.038    1.1619227 
    2110    365.73019   -7196.9708    -7156.173   -237.91646    24601.592    1.1646956 
    2120    367.71607   -7196.8272   -7155.8079   -11.623362    24586.208    1.1680652 
    2130    368.04905   -7196.4854    -7155.429    64.985758    24570.728    1.1715846 
    2140    370.41837   -7196.3485   -7155.0277    4.8377925    24555.411    1.1749516 
    2150    372.73489    -7196.179   -7154.5999    -104.2066    24540.071    1.1774361 
    2160    371.89998   -7195.6353   -7154.1493   -242.44854    24524.316    1.1790721 
    2170    370.90928   -7195.0566   -7153.6812   -344.59795    24507.642    1.1809408 
    2180    374.26152   -7194.9447   -7153.1953   -241.65184    24489.727    1.1838215 
    2190    373.25196    -7194.333   -7152.6962    16.492864    24470.926    1.1881344 
    2200     370.0885   -7193.4745   -7152.1905    336.68153    24452.164    1.1929866 
    2210    377.49761   -7193.7841   -7151.6737    602.57459    24434.564    1.1968825 
    2220     379.3455   -7193.4672   -7151.1507     636.6744    24419.012    1.2003022 
    2230    371.74333   -7192.1076   -7150.6391    593.19985      24405.7    1.2046521 
    2240    374.36807   -7191.8916   -7150.1302    442.67295    24394.466    1.2105682 
    2250    383.87364   -7192.4345   -7149.6129    135.31069    24384.741    1.2183876 
    2260    386.14842   -7192.1757   -7149.1003    -110.4836    24375.499    1.2280502 
    2270    392.02715   -7192.3341   -7148.6029   -219.02478    24365.876    1.2382508 
    2280    394.54192   -7192.1307   -7148.1189   -285.26088    24355.416    1.2476355 
    2290    391.23007    -7191.294   -7147.6517   -246.85594    24343.901    1.2561009 
    2300    391.85834    -7190.904   -7147.1916   -222.92128    24331.418      1.26411 
    2310    397.15526   -7191.0341   -7146.7309   -227.72476    24318.039    1.2716538 
    2320    402.23972   -7191.1458   -7146.2753   -41.403751    24303.833    1.2785876 
    2330    408.50844   -7191.4013   -7145.8316    304.67969    24289.443     1.284536 
    2340    405.06546   -7190.5921   -7145.4064    734.07053    24276.102    1.2892817 
    2350    412.96722   -7191.0688   -7145.0017    888.66816    24265.246     1.292445 
    2360    414.86052   -7190.8972   -7144.6189    841.24626    24257.462     1.295594 
    2370    398.20337   -7188.6857   -7144.2655    887.26591    24252.706    1.3005123 
    2380    402.58088    -7188.828   -7143.9195    765.98812    24251.046    1.3064568 
    2390    419.12443    -7190.316    -7143.562    617.98884    24252.119    1.3131141 
    2400    428.99965   -7191.0807   -7143.2252    675.97846    24255.506    1.3216376 
    2410    425.98856   -7190.4563   -7142.9366    810.55915    24261.386    1.3328351 
    2420    411.47597   -7188.5941   -7142.6934    693.38844    24270.158    1.3460207 
    2430    410.57029   -7188.2675   -7142.4677    132.16497     24281.36    1.3591163 
    2440    406.94646   -7187.6323   -7142.2369   -287.33181    24293.202    1.3702492 
    2450    401.46282   -7186.7826   -7141.9988   -357.53692    24304.243    1.3769885 
    2460    405.92338   -7187.0282   -7141.7469    -246.6544    24314.134    1.3784903 
    2470    412.77474   -7187.5294   -7141.4837    30.359041    24323.277     1.377371 
    2480    415.95292    -7187.622   -7141.2218    245.96675    24332.593    1.3770353 
    2490    415.89593    -7187.361   -7140.9672    292.16642    24342.839    1.3789131 
    2500    424.66909   -7188.0932   -7140.7207     207.5411    24354.224    1.3828054 
    2510    439.90678   -7189.5717   -7140.4995   -80.493443    24366.392    1.3885696 
    2520    442.47261   -7189.6952   -7140.3367   -197.71283    24378.451    1.3960007 
    2530    437.88231   -7189.0915    -7140.245    -102.6998    24389.965    1.4034726 
    2540     444.3684   -7189.7912   -7140.2213   -44.315062    24401.181    1.4093563 
    2550    445.13982   -7189.9282   -7140.2722    39.766043    24412.343     1.413864 
    2560    431.29875   -7188.5085   -7140.3965    117.99994    24423.745    1.4179043 
    2570    414.30596   -7186.7758   -7140.5594    89.237447    24435.667    1.4228909 
    2580    411.49759   -7186.6325   -7140.7293   -37.318174    24447.992    1.4301363 
    2590    411.94707   -7186.8483    -7140.895   -22.364873    24460.333    1.4402415 
    2600    407.30899   -7186.4874   -7141.0514    128.68541    24472.742    1.4524317 
    2610    412.66987   -7187.2304   -7141.1964    -28.10745    24485.613    1.4651511 
    2620     424.4844   -7188.7021   -7141.3502   -226.39185    24498.486    1.4782358 
    2630    420.46168    -7188.433   -7141.5299    -165.2665    24510.713    1.4915448 
    2640    415.73338   -7188.1012   -7141.7256   -87.414611    24522.424    1.5031686 
    2650    426.48544   -7189.5135   -7141.9384   -222.70871    24533.834    1.5120218 
    2660    426.04041   -7189.7069   -7142.1815   -367.59018    24544.531    1.5192185 
    2670    416.83672   -7188.9463   -7142.4476   -595.78244    24553.949    1.5254913 
    2680     411.1152   -7188.5725    -7142.712   -889.95904    24561.232    1.5313117 
    2690    420.01501   -7189.8299   -7142.9766   -943.35133    24565.371    1.5372409 
    2700    423.59588   -7190.5101   -7143.2573   -664.12387    24566.168    1.5443797 
    2710    419.65993   -7190.3685   -7143.5548   -227.02125    24564.589    1.5533675 
    2720    415.93828   -7190.2558   -7143.8572    139.20222    24562.142    1.5635722 
    2730    417.88131   -7190.7762   -7144.1609    418.59045    24560.172     1.572316 
    2740    419.78768   -7191.2965   -7144.4686    635.68342    24559.718    1.5772152 
    2750    412.85659   -7190.8319   -7144.7771    884.35533    24561.632    1.5789041 
    2760     403.5485   -7190.0823   -7145.0659    995.13458    24566.789    1.5802596 
    2770    399.76672   -7189.9164   -7145.3218    967.55404     24575.64    1.5836838 
    2780    395.79151    -7189.691   -7145.5399    853.46362     24588.15    1.5899305 
    2790    393.62596   -7189.6246   -7145.7151     508.3912    24603.892    1.5987825 
    2800    402.42308   -7190.7402   -7145.8493   -55.049195      24621.6    1.6085351 
    2810     410.6576   -7191.7658   -7145.9563   -431.56892    24639.353    1.6171872 
    2820     409.3258   -7191.7091   -7146.0482    -493.9591    24655.782    1.6242161 
    2830    407.74024   -7191.6074   -7146.1233   -540.71149    24670.526    1.6295464 
    2840    409.65188   -7191.8793    -7146.182   -690.68365    24683.337    1.6332648 
    2850    406.65979   -7191.5918   -7146.2283   -842.16099    24693.691    1.6363496 
    2860     402.9112     -7191.21   -7146.2647   -1165.3162    24700.917    1.6395802 
    2870    397.24728   -7190.5981   -7146.2846   -1293.5582    24703.939    1.6426903 
    2880    391.96489   -7190.0001   -7146.2758   -1250.2305    24702.238    1.6457679 
    2890    388.91384    -7189.607   -7146.2231   -1252.0049    24695.851    1.6502503 
    2900    390.98395   -7189.7318   -7146.1169   -1253.7486    24684.782    1.6572374 
    2910    398.13941   -7190.3752   -7145.9622   -1244.5832        24669    1.6657731 
    2920    401.64793   -7190.5751   -7145.7706   -1121.0047    24648.578     1.673277 
    2930    407.80453   -7191.0453   -7145.5541   -956.22239    24623.934    1.6774865 
    2940    414.05675   -7191.5093   -7145.3206   -709.97199    24595.677    1.6782335 
    2950    418.09574   -7191.7208   -7145.0816   -331.75201    24564.747    1.6773245 
    2960    418.54951   -7191.5356   -7144.8458    130.90254    24532.532    1.6777185 
    2970    411.85355     -7190.56   -7144.6171    472.54992    24500.673    1.6814444 
    2980    408.86616    -7190.001   -7144.3914    626.03466    24470.403    1.6891216 
    2990    409.56186     -7189.85   -7144.1628    563.93232    24442.263    1.6997921 
    3000    409.34295   -7189.5946   -7143.9318    497.31395    24416.122    1.7098627 
    3010    418.39273   -7190.3753    -7143.703    312.82692    24391.686    1.7162967 
    3020    423.99315    -7190.786   -7143.4889    221.46864    24368.367    1.7207201 
    3030    417.50158   -7189.8723   -7143.2994    429.37449    24345.906    1.7254221 
    3040     417.4277   -7189.6919   -7143.1272    613.45877    24324.927    1.7303864 
    3050    418.60601   -7189.6606   -7142.9644    724.24335    24306.089    1.7358595 
    3060    415.75927   -7189.1957   -7142.8171    818.39855    24289.812     1.742749 
    3070    409.65001   -7188.3782   -7142.6811    826.65957    24276.421    1.7506842 
    3080    412.25223   -7188.5352   -7142.5478    599.90694    24265.875    1.7574833 
    3090    417.91198   -7189.0368   -7142.4181    485.97602    24257.497    1.7628053 
    3100    409.61701   -7187.9877   -7142.2944    540.38572    24250.894    1.7686699 
    3110    414.33798   -7188.3924   -7142.1724    510.88912    24246.169    1.7752905 
    3120     422.4337   -7189.1762    -7142.053    509.52117    24243.263    1.7815713 
    3130    412.76984   -7187.9944   -7141.9493     636.8573    24242.222    1.7868232 
    3140    400.02405   -7186.4681   -7141.8448     682.6797     24243.44    1.7910304 
    3150    413.63737    -7187.863   -7141.7212    357.68495    24246.988       1.7947 
    3160    433.30467   -7189.9256   -7141.5898    6.6964409    24251.846    1.7997681 
    3170    432.24534   -7189.7085   -7141.4908     29.39333     24256.89    1.8082948 
    3180    422.49456   -7188.5614   -7141.4315    175.34245    24262.109    1.8194556 
    3190    423.61053   -7188.6493   -7141.3949    101.38052    24267.922    1.8297884 
    3200    427.51159   -7189.0705   -7141.3809   -99.550944      24274.1    1.8364645 
    3210    421.35366   -7188.3982   -7141.3956   -166.24001    24280.044     1.838796 
    3220    421.76944   -7188.4853   -7141.4363   -401.85024    24285.373    1.8382615 
    3230    430.95588   -7189.5835   -7141.5097   -613.58062    24289.324    1.8385649 
    3240    434.21383   -7190.0837   -7141.6465   -645.82579    24291.192     1.841936 
    3250    431.94189   -7190.0601   -7141.8764    -704.8268    24290.756    1.8476971 
    3260     424.2201   -7189.5293   -7142.2069   -860.05088    24287.749    1.8552448 
    3270    424.63384   -7190.0089   -7142.6403   -1033.5126    24281.615    1.8638044 
    3280    422.54077   -7190.3064   -7143.1714   -1081.1273    24271.728    1.8717989 
    3290    412.28829   -7189.7401   -7143.7488   -800.39983    24257.976     1.877392 
    3300    413.02815   -7190.3888   -7144.3149   -542.57726    24241.175    1.8796013 
    3310    410.88802   -7190.6615   -7144.8263    -168.1334    24222.281     1.881255 
    3320    400.38126   -7189.9035   -7145.2404    266.93145    24202.594    1.8854644 
    3330    397.29729   -7189.8697   -7145.5505    517.49715    24183.576    1.8921091 
    3340    395.65691   -7189.9065   -7145.7704    868.37099    24166.267    1.8995839 
    3350    394.34524   -7189.9101   -7145.9203    1084.7818    24151.824    1.9058803 
    3360    391.26868   -7189.6595   -7146.0129    1219.2654    24141.091    1.9101031 
    3370    397.60861   -7190.4131   -7146.0593     1180.894    24134.545    1.9119637 
    3380     408.1876   -7191.6091   -7146.0752    1069.0683    24132.118    1.9123013 
    3390    407.01477   -7191.4739   -7146.0708    1039.5919     24133.51    1.9119445 
    3400    411.76508   -7191.9895   -7146.0565    942.77643    24138.621    1.9103511 
    3410    415.36209   -7192.3759   -7146.0417    762.46834    24147.151    1.9077837 
    3420    408.39471   -7191.5914   -7146.0344    553.19409    24158.502    1.9059183 
    3430    396.27025   -7190.2231   -7146.0186    488.69613    24172.055     1.905185 
    3440    396.72168   -7190.2243   -7145.9694    415.17308    24187.527     1.904805 
    3450    406.52915   -7191.2295   -7145.8806    361.17251    24204.683    1.9058979 
    3460    406.56802   -7191.1213    -7145.768    503.87979     24223.43    1.9098704 
    3470    408.55644   -7191.2177   -7145.6427     512.9026    24244.178    1.9165046 
    3480    416.81796   -7192.0015   -7145.5048    350.37965    24266.999    1.9245605 
    3490    423.87472   -7192.6535   -7145.3696    87.744577    24291.349    1.9323855 
    3500    423.59604   -7192.5067   -7145.2539   -206.54066     24316.32    1.9388852 
    3510    416.31755   -7191.5978    -7145.157   -497.75638    24340.886    1.9442205 
    3520    413.71287   -7191.2173    -7145.067    -941.2186    24363.892    1.9494477 
    3530    409.38028   -7190.6415   -7144.9745   -1319.9818    24383.795    1.9556251 
    3540    403.85871   -7189.9239   -7144.8729   -1517.9852    24399.219    1.9623906 
    3550    412.11077    -7190.731   -7144.7594   -1645.0021    24409.322    1.9692445 
    3560    416.94688   -7191.1518   -7144.6408   -1613.4592    24413.605    1.9772655 
    3570    410.14739   -7190.2805   -7144.5279    -1372.934    24412.126    1.9871082 
    3580    405.14644   -7189.6039   -7144.4092    -1240.485    24405.564    1.9974488 
    3590    406.50091   -7189.6096   -7144.2638   -1148.4342    24394.381    2.0065387 
    3600    415.97574   -7190.4938   -7144.0911   -1092.3383    24378.853    2.0131637 
    3610    411.60757   -7189.8211   -7143.9057   -935.82063    24359.178    2.0173268 
    3620    388.77073   -7187.0681   -7143.7002   -534.24439    24335.945    2.0195234 
    3630    382.94634    -7186.157   -7143.4388   -197.58873     24310.46    2.0198349 
    3640    387.38334   -7186.3046   -7143.0914    47.753908    24283.929    2.0202933 
    3650    394.75945   -7186.7082   -7142.6722    117.49489    24257.191    2.0228857 
    3660    402.60143   -7187.1272   -7142.2164    118.81614    24230.565    2.0280572 
    3670    414.78053   -7188.0403   -7141.7709   -63.800115    24204.001    2.0355807 
    3680    429.31499   -7189.2722   -7141.3815   -104.62257    24176.975    2.0453161 
    3690     433.1601      -7189.4   -7141.0804    187.14678    24149.396    2.0570442 
    3700    430.99735   -7188.9467   -7140.8683    605.11673    24122.251    2.0690759 
    3710    429.64807   -7188.6525   -7140.7246    976.88037    24096.995    2.0798644 
    3720     426.1051   -7188.1641   -7140.6315    1327.8118    24074.993    2.0900924 
    3730    428.21756   -7188.3471   -7140.5788    1423.3968    24057.414    2.1008121 
    3740     442.0695   -7189.8889   -7140.5753     1234.295    24044.619    2.1131413 
    3750    442.52194   -7190.0043   -7140.6403    1050.3203    24036.081    2.1301034 
    3760    423.65897    -7188.018   -7140.7582    1096.0017    24031.265    2.1526839 
    3770    413.87295   -7187.0577   -7140.8896     1260.911    24030.316     2.176073 
    3780    417.40703   -7187.5823     -7141.02    1395.6623     24033.81    2.1949621 
    3790    424.22089   -7188.4843   -7141.1618    1365.8564    24042.227    2.2083794 
    3800    427.99551   -7189.0778   -7141.3343    1300.3866    24055.557    2.2187595 
    3810    422.20888   -7188.6359   -7141.5378    1263.4945    24073.633    2.2291823 
    3820    420.87978   -7188.7076   -7141.7578    1063.8576    24096.315    2.2419489 
    3830    429.75908   -7189.9297   -7141.9894    556.08703    24122.871    2.2587381 
    3840    422.77623    -7189.389   -7142.2276    111.65567    24151.654    2.2803352 
    3850    409.10193   -7188.0921   -7142.4562   -116.84483    24181.138    2.3038663 
    3860    409.43548   -7188.3329   -7142.6598   -362.20546    24210.406     2.324777 
    3870    416.04133   -7189.2559   -7142.8459   -502.15383    24238.622    2.3404234 
    3880    415.36019   -7189.3605   -7143.0265   -559.29289    24265.239    2.3503897 
    3890    412.17389   -7189.1814   -7143.2027   -690.91022     24289.98    2.3560658 
    3900    400.76631   -7188.0672   -7143.3611   -833.77808    24312.379    2.3598645 
    3910    391.75126   -7187.1827   -7143.4823   -983.87041    24331.903    2.3633306 
    3920    393.69367   -7187.4723   -7143.5551   -1351.6569    24347.883    2.3676576 
    3930    398.36041   -7188.0244   -7143.5867   -1640.6685    24359.105    2.3735053 
    3940    405.59235   -7188.8401   -7143.5956   -1822.3534    24364.481    2.3805145 
    3950     415.5107   -7189.9534   -7143.6026   -1710.0555     24363.39    2.3882038 
    3960    415.56877   -7189.9797   -7143.6223   -1342.7757    24356.169     2.396501 
    3970    408.28324   -7189.1965   -7143.6519    -1158.431    24343.984    2.4046169 
    3980    404.92527   -7188.8513   -7143.6813   -1275.1709    24327.447    2.4120854 
    3990    400.64117     -7188.39   -7143.6979   -1427.1314     24306.19    2.4185401 
    4000    399.09357   -7188.2146   -7143.6951   -1250.7141    24279.782    2.4221817 
    4010    396.81669   -7187.9217   -7143.6562   -700.99992    24248.851    2.4217025 
    4020    400.95278   -7188.2984   -7143.5715   -58.852094    24215.288    2.4168757 
    4030    403.95172   -7188.5018   -7143.4403    447.34377    24181.339    2.4088177 
    4040    410.47804   -7189.0611   -7143.2716    697.64482    24148.776     2.399351 
    4050    418.63025   -7189.7779    -7143.079    872.87551    24118.585    2.3904963 
    4060    416.31018    -7189.314   -7142.8739    1060.1454     24091.43    2.3827607 
    4070    419.47395   -7189.4553   -7142.6624    1035.3572    24067.919    2.3749637 
    4080    423.58234   -7189.7025   -7142.4513    883.36691    24047.998    2.3667955 
    4090    416.92285    -7188.758   -7142.2496    888.46082    24031.243     2.358554 
    4100    419.65027   -7188.8614   -7142.0488    719.40275    24017.547    2.3493245 
    4110    431.07271   -7189.9212   -7141.8344    487.96026    24006.353    2.3390704 
    4120      437.345   -7190.4044   -7141.6179    355.25488    23996.881    2.3293941 
    4130     431.3036    -7189.533   -7141.4205    422.76222    23988.729    2.3209732 
    4140    425.27653   -7188.6776   -7141.2373    696.79267     23982.13    2.3128991 
    4150     430.5097   -7189.0802   -7141.0562    953.63357    23977.972    2.3053266 
    4160    426.36666   -7188.4369   -7140.8751    1175.6839    23977.167    2.3000925 
    4170    424.48584   -7188.0524   -7140.7004    1183.5916    23980.401    2.2967706 
    4180    427.95898   -7188.2625    -7140.523    995.29369    23987.712    2.2942242 
    4190    432.86564   -7188.6341   -7140.3473    707.13887    23998.459    2.2917088 
    4200    436.42149   -7188.8695   -7140.1861    624.67572    24011.735    2.2889956 
    4210    432.11125   -7188.2548   -7140.0522    708.79652    24027.221    2.2870183 
    4220    431.56909   -7188.0923   -7139.9501    758.90875    24045.142    2.2872711 
    4230    431.57521   -7188.0265   -7139.8836    842.18807    24065.707    2.2916458 
    4240    432.51384   -7188.1106   -7139.8631    734.54395     24089.13    2.3002223 
    4250    424.62788   -7187.2555   -7139.8876    571.87538    24115.061    2.3111061 
    4260    412.62648   -7185.9728   -7139.9437     407.3322    24142.938    2.3218241 
    4270    414.84333   -7186.2868   -7140.0104    195.69856    24172.166    2.3305387 
    4280    426.37049   -7187.6523     -7140.09    25.131815    24202.014     2.335787 
    4290    438.50105   -7189.1286   -7140.2131   -135.72474    24231.866    2.3377506 
    4300    434.71168   -7188.8981   -7140.4053   -311.45881    24261.124    2.3388196 
    4310    422.74089   -7187.8135   -7140.6561   -499.04608    24289.154    2.3399037 
    4320     419.4167    -7187.731   -7140.9444    -634.0216    24315.295     2.340275 
    4330     415.4486   -7187.5972   -7141.2532   -743.83088    24339.052    2.3400054 
    4340    417.10295   -7188.1026   -7141.5742   -957.55316     24359.98    2.3399287 
    4350    416.70602   -7188.3825   -7141.8983    -1168.246    24377.335    2.3407534 
    4360    412.14839   -7188.1935   -7142.2177   -1386.5036    24390.362    2.3426601 
    4370    412.30691   -7188.5156   -7142.5221   -1658.1683    24398.295     2.345639 
    4380    415.73937   -7189.1906   -7142.8143   -1791.2511    24400.236    2.3495551 
    4390    411.03107   -7188.9461    -7143.095   -1523.4209    24395.824    2.3532822 
    4400    400.93597     -7188.07    -7143.345   -1007.2909    24386.032    2.3548406 
    4410     400.3283   -7188.2089   -7143.5517   -623.60465    24372.649    2.3524743 
    4420     405.3277   -7188.9345   -7143.7196   -503.37767    24357.025    2.3448397 
    4430    415.86448   -7190.2569   -7143.8666   -497.71536    24339.672    2.3324171 
    4440    424.12492   -7191.3259   -7144.0141   -390.31101     24320.71    2.3193713 
    4450    422.60429   -7191.3172   -7144.1751   -13.233976    24300.602    2.3089684 
    4460    418.35718   -7191.0119   -7144.3435     327.3064    24280.612    2.3018268 
    4470    417.54401   -7191.0982   -7144.5205    439.08756     24261.89    2.2974052 
    4480    411.56387    -7190.604   -7144.6934    582.48223    24244.952    2.2943186 
    4490    414.59808   -7191.1097   -7144.8606    615.42241     24230.19    2.2901583 
    4500    408.27128   -7190.5589   -7145.0156    860.54699     24217.82    2.2840307 
    4510     407.5416   -7190.6167   -7145.1549    1195.3465    24208.644    2.2757458 
    4520    416.74106   -7191.7757   -7145.2876    1477.1421     24203.79    2.2670251 
    4530    414.01084   -7191.6122   -7145.4286    1740.7556    24204.219     2.260301 
    4540    403.72604   -7190.6078   -7145.5716    1901.2686    24210.828    2.2560365 
    4550    404.24569   -7190.7978   -7145.7036     1507.132     24223.96    2.2536879 
    4560    398.95357   -7190.3194   -7145.8156     987.7934     24242.33    2.2536558 
    4570    381.72007   -7188.4662   -7145.8847     660.7428     24264.16    2.2555061 
    4580    393.15267   -7189.7528    -7145.896    285.28789    24288.163    2.2564614 
    4590    418.94382   -7192.5961   -7145.8622   -98.256007    24313.004    2.2558836 
    4600    423.89593   -7193.1165   -7145.8302   -284.03983    24337.371    2.2549459 
    4610    415.00617   -7192.1129   -7145.8183   -400.92741    24360.563    2.2534002 
    4620    414.64605   -7192.0692   -7145.8148   -703.26398     24382.06    2.2514273 
    4630    413.27589   -7191.9154   -7145.8138   -928.20292    24400.868    2.2507815 
    4640    404.56273   -7190.9401   -7145.8106   -1029.8903    24416.195    2.2510955 
    4650    407.61399   -7191.2657   -7145.7957   -1205.0564    24427.632    2.2501077 
    4660     409.9089   -7191.4959   -7145.7699    -1318.913    24434.622    2.2477721 
    4670    400.03716   -7190.3586   -7145.7339   -1201.1459     24436.87    2.2452072 
    4680    397.39434   -7190.0001   -7145.6702   -1277.3175    24434.665    2.2428123 
    4690    398.15279   -7189.9737   -7145.5592   -1310.7794    24427.888    2.2404439 
    4700    400.72374   -7190.0934   -7145.3921   -1224.3174    24416.483    2.2376923 
    4710     405.5057   -7190.3919   -7145.1571   -1023.5768    24400.828     2.234459 
    4720    413.87442   -7191.0209   -7144.8525   -725.14323    24381.691    2.2308756 
    4730    413.74875   -7190.6384   -7144.4841   -275.93809    24360.213    2.2268655 
    4740    406.80125     -7189.44   -7144.0607    313.63038    24338.065     2.222518 
    4750    415.61622   -7189.9525   -7143.5899    668.43348    24317.249    2.2181731 
    4760    440.26962    -7192.214   -7143.1012    845.24342    24299.054    2.2148006 
    4770    440.99847   -7191.8621    -7142.668    1080.1829    24284.156    2.2139246 
    4780    429.84132   -7190.2831   -7142.3336     1234.244    24273.284    2.2143404 
    4790    432.17749   -7190.2897   -7142.0796    1260.0306    24266.917    2.2141115 
    4800    430.49989   -7189.9132   -7141.8902    1327.8125    24265.143    2.2146735 
    4810     424.0431   -7189.0638   -7141.7611    1334.5548    24268.108    2.2186669 
    4820    421.97768   -7188.7454   -7141.6731    1047.5046    24275.709    2.2263149 
    4830    429.21973   -7189.5004   -7141.6203    626.18831    24286.889    2.2357838 
    4840    427.12486   -7189.2501   -7141.6037    525.06854    24300.273    2.2451819 
    4850    427.98479   -7189.3683    -7141.626    389.73046    24315.333    2.2521779 
    4860    424.78025    -7189.068   -7141.6831    216.69389     24331.58    2.2555076 
    4870    420.07112   -7188.6245    -7141.765    38.306731    24348.383    2.2557496 
    4880    422.00065   -7188.9377   -7141.8629   -56.606616    24365.133    2.2562208 
    4890    421.50726   -7188.9914   -7141.9716   -231.41786    24381.425    2.2618758 
    4900    425.43578   -7189.5546   -7142.0966   -468.19364    24396.649    2.2742401 
    4910    424.04085   -7189.5479   -7142.2455   -494.17268    24410.067    2.2920627 
    4920    410.11226   -7188.1582   -7142.4096   -529.87985    24421.501    2.3127324 
    4930    400.05648   -7187.1908   -7142.5639   -602.41582    24430.857    2.3319804 
    4940    401.96252   -7187.5357   -7142.6962    -652.0544    24437.911    2.3459447 
    4950    400.86188   -7187.5213   -7142.8046   -656.04137    24442.515     2.352957 
    4960    400.37928    -7187.549   -7142.8861   -646.03587    24444.696    2.3526655 
    4970    406.80969   -7188.3249   -7142.9447   -593.40409    24444.528    2.3470727 
    4980     413.6553   -7189.1348   -7142.9909   -426.19366    24442.248    2.3402381 
    4990    430.78805   -7191.1039   -7143.0488   -307.63994    24438.449    2.3355857 
    5000    447.06499   -7193.0308     -7143.16   -337.54232    24433.543    2.3359988 
Loop time of 2166 on 16 procs for 3000 steps with 864 atoms

Performance: 0.120 ns/day, 200.555 hours/ns, 1.385 timesteps/s
97.7% CPU use with 16 MPI tasks x 1 OpenMP threads

MPI task timing breakdown:
Section |  min time  |  avg time  |  max time  |%varavg| %total
---------------------------------------------------------------
Pair    | 1299.1     | 1860.9     | 2149.9     | 519.2 | 85.91
Bond    | 0.00026727 | 0.00067551 | 0.0011947  |   0.0 |  0.00
Neigh   | 0.029114   | 0.041017   | 0.054362   |   3.3 |  0.00
Comm    | 15.457     | 227.67     | 702.81     |1273.4 | 10.51
Output  | 0.19391    | 0.19655    | 0.23542    |   2.3 |  0.01
Modify  | 0.37772    | 77.208     | 185.41     | 785.3 |  3.56
Other   |            | 0.01363    |            |       |  0.00

Nlocal:        54.0000 ave          67 max          43 min
Histogram: 1 2 2 3 0 5 0 1 0 2
Nghost:        449.562 ave         528 max         377 min
Histogram: 1 2 2 2 2 1 2 2 1 1
Neighs:         0.00000 ave           0 max           0 min
Histogram: 16 0 0 0 0 0 0 0 0 0
FullNghs:      1932.88 ave        2819 max        1195 min
Histogram: 1 2 1 2 4 2 2 0 1 1

Total # of neighbors = 30926
Ave neighs/atom = 35.793981
Ave special neighs/atom = 0.0000000
Neighbor list builds = 300
Dangerous builds = 300
unfix   2

fix     3 all npt temp 412.5 412.5 $(100.0*dt) aniso 1.01325 1.01325 $(1000.0*dt)
fix     3 all npt temp 412.5 412.5 0.10000000000000000555 aniso 1.01325 1.01325 $(1000.0*dt)
fix     3 all npt temp 412.5 412.5 0.10000000000000000555 aniso 1.01325 1.01325 1
run     20000
Per MPI rank memory allocation (min/avg/max) = 8.895 | 8.901 | 8.907 Mbytes
Step Temp PotEng TotEng Press Volume c_msd[4] 
    5000    447.06499   -7193.0308     -7143.16   -337.54232    24433.543    2.3359988 
    5010    445.08294   -7192.8516   -7143.2019   -194.25229    24432.986    2.3397992 
    5020    434.99718    -7191.846   -7143.3214    120.77603    24431.802    2.3468399 
    5030    424.73998   -7190.8727   -7143.4923    160.10472    24430.976    2.3531418 
    5040    419.87901   -7190.5302   -7143.6921   -26.807376    24430.679    2.3550737 
    5050     422.1254   -7191.0019   -7143.9132    -322.9286    24430.255    2.3512345 
    5060    427.51882   -7191.8546   -7144.1642   -614.38348    24428.668    2.3434861 
    5070    426.22022   -7191.9966   -7144.4511    -684.2294    24424.919    2.3352816 
    5080    421.34988   -7191.7644   -7144.7622   -638.47685    24418.711    2.3295901 
    5090    426.03713   -7192.6154   -7145.0903   -612.36669    24410.166    2.3272928 
    5100    426.24706    -7192.982   -7145.4335   -477.09225    24399.413    2.3285175 
    5110    423.83589   -7193.0567   -7145.7771   -233.16185    24386.954    2.3319632 
    5120    424.56662   -7193.4737   -7146.1126   -127.63122    24373.559     2.334208 
    5130    410.68665   -7192.2288   -7146.4161    248.03109    24359.777    2.3329402 
    5140    400.09198   -7191.2886   -7146.6577    653.17522    24346.862    2.3277029 
    5150    396.98001   -7191.1139   -7146.8301    906.35741    24336.216    2.3204198 
    5160    399.43263   -7191.4998   -7146.9424     1027.687    24328.784    2.3142857 
    5170      406.204   -7192.3283   -7147.0156    931.57331    24324.978    2.3112763 
    5180    396.88178   -7191.3322   -7147.0594     746.5336    24324.481    2.3116476 
    5190     386.1909   -7190.1461   -7147.0659    518.48064    24326.678     2.313496 
    5200    393.15935   -7190.8829   -7147.0254    -1.283676    24330.643    2.3149236 
    5210    406.13045   -7192.2533   -7146.9488   -386.65802    24334.677     2.315529 
    5220     413.8248   -7193.0277   -7146.8649   -435.75961    24337.446    2.3162058 
    5230    406.88304   -7192.1736   -7146.7852   -398.05816    24338.674    2.3176909 
    5240    398.57078   -7191.1588   -7146.6976   -509.29653     24338.42    2.3196269 
    5250    402.71253   -7191.5127   -7146.5895   -648.63961    24336.323    2.3217007 
    5260    406.16753   -7191.7716    -7146.463   -615.31707    24331.938    2.3243729 
    5270     404.6909   -7191.4721   -7146.3283   -541.38978    24325.313    2.3277617 
    5280    394.82814   -7190.2233   -7146.1796     -346.112    24316.755    2.3313839 
    5290    395.72904   -7190.1497   -7146.0055   -354.42901    24306.816    2.3340003 
    5300    408.12265   -7191.3301   -7145.8034   -484.32769    24295.514    2.3345506 
    5310     409.5056   -7191.2726   -7145.5916   -591.35987      24282.4    2.3330961 
    5320    409.70942   -7191.0872   -7145.3835   -492.64868    24267.161    2.3301305 
    5330    413.27611   -7191.2804   -7145.1789   -257.01222    24250.095    2.3264924 
    5340    403.83876   -7190.0264   -7144.9776    123.61214    24232.058    2.3223477 
    5350      391.466   -7188.4383   -7144.7697     391.9681    24214.299    2.3171574 
    5360    390.39499   -7188.0806   -7144.5314    500.94081    24197.782    2.3119932 
    5370    403.87217    -7189.315   -7144.2624    392.12258    24182.865    2.3080717 
    5380    414.90155    -7190.269   -7143.9862    450.93001    24169.315    2.3054542 
    5390    417.67899   -7190.3242   -7143.7314    772.62273    24157.361    2.3034652 
    5400    417.04227   -7190.0286   -7143.5069     1215.885    24148.116    2.3020665 
    5410    427.80355   -7191.0396   -7143.3175    1194.1966     24142.99    2.3022318 
    5420    439.37659   -7192.1928   -7143.1797     698.9582    24141.946    2.3052371 
    5430    436.22751   -7191.7734   -7143.1116    199.85025     24143.38    2.3107383 
    5440    427.88899   -7190.8358   -7143.1041     103.2788    24145.681    2.3161521 
    5450    421.09885   -7190.1055   -7143.1313    295.06486    24148.463    2.3193091 
    5460    424.25073   -7190.5066   -7143.1808    573.10421    24152.353     2.320598 
    5470     427.6699   -7190.9619   -7143.2546    882.76445    24158.363    2.3220558 
    5480    433.81198   -7191.7559   -7143.3635    894.25155    24167.509    2.3251731 
    5490    440.44213   -7192.6523   -7143.5204    667.00981    24179.906    2.3316855 
    5500    425.15916   -7191.1469   -7143.7198    382.27667    24194.825    2.3426973 
    5510     402.2357    -7188.789    -7143.919    96.549328     24211.29    2.3556432 
    5520    397.29075   -7188.3958   -7144.0775   -229.17162     24228.29      2.36608 
    5530    407.72718   -7189.6763   -7144.1937   -506.44787     24244.69    2.3720575 
    5540    414.38661   -7190.5141   -7144.2886   -702.57974    24259.478    2.3743133 
    5550    413.73634    -7190.531   -7144.3781   -748.53209    24271.961     2.374679 
    5560    408.17864    -7189.992    -7144.459   -771.66175    24281.922    2.3756053 
    5570    404.55693   -7189.6507   -7144.5218   -991.69048    24289.162    2.3779866 
    5580    411.98781   -7190.5247   -7144.5669   -1215.8112    24292.915    2.3805153 
    5590    427.13154   -7192.2666   -7144.6195   -1262.0037    24292.373    2.3824946 
    5600    421.70832   -7191.7432    -7144.701   -986.55711     24287.38    2.3852121 
    5610    403.20707   -7189.7693   -7144.7909   -586.81442    24278.796    2.3880813 
    5620    406.59263   -7190.2192   -7144.8631   -160.77343    24267.998    2.3884953 
    5630    410.25178   -7190.6813   -7144.9171    203.05146    24256.471    2.3871794 
    5640    400.98036    -7189.686    -7144.956    451.66678    24245.519    2.3861604 
    5650     399.0071   -7189.4819   -7144.9721    303.78388    24235.919    2.3866836 
    5660    400.08459   -7189.5892   -7144.9592     172.0809    24227.315    2.3894705 
    5670    402.41817   -7189.8103   -7144.9199   -5.6227924    24219.196    2.3930134 
    5680    410.59633   -7190.6673   -7144.8647    -267.6982    24210.927    2.3954005 
    5690    413.12945   -7190.8888   -7144.8035    -463.3628    24201.604    2.3967153 
    5700     420.0971   -7191.6125   -7144.7501    -618.4483    24190.472    2.3971924 
    5710    426.35489    -7192.277   -7144.7165   -432.67122    24177.091    2.3972679 
    5720    416.88087   -7191.2118   -7144.7081   -187.46988    24161.973    2.3984339 
    5730    411.97756   -7190.6679   -7144.7111    17.829872     24145.96    2.4009897 
    5740    417.70146   -7191.3101   -7144.7149    24.436023    24129.706    2.4046801 
    5750    418.72932    -7191.437   -7144.7271  0.064745976      24113.3    2.4093183 
    5760    413.30341   -7190.8549   -7144.7503    43.307007    24096.664    2.4142494 
    5770    406.23736   -7190.0893   -7144.7729    200.85464    24079.967    2.4190122 
    5780    406.22656   -7190.0987   -7144.7835     359.5047    24063.717    2.4226513 
    5790    415.96567   -7191.1874   -7144.7858    421.17973    24048.446    2.4254004 
    5800    422.85214   -7191.9697   -7144.7999    450.03922    24034.426    2.4308146 
    5810    413.98691   -7191.0189    -7144.838    677.77952    24021.844     2.441022 
    5820    405.53402   -7190.1282   -7144.8902    1087.9758    24011.526    2.4529868 
    5830    411.06534   -7190.8055   -7144.9505    1310.3012    24004.826    2.4631993 
    5840    412.50662   -7191.0438   -7145.0281    1428.5039    24002.623     2.471135 
    5850    410.92312    -7190.973   -7145.1339    1283.2418     24005.35    2.4779087 
    5860    414.87135   -7191.5529   -7145.2734    1028.2161    24012.629    2.4846424 
    5870    416.78993   -7191.9464   -7145.4529     989.1743    24023.746    2.4922591 
    5880    410.79643      -7191.5    -7145.675    1065.3726    24038.599     2.500943 
    5890    403.30465   -7190.9086   -7145.9194    1178.0239    24057.512    2.5090978 
    5900    407.97671   -7191.6797   -7146.1693    1196.2979    24080.911    2.5154776 
    5910    414.83335    -7192.705   -7146.4297    1114.6314    24108.935    2.5214398 
    5920    404.38198   -7191.8057   -7146.6963    1023.6335    24141.409     2.529267 
    5930    397.89546   -7191.3338   -7146.9479    847.16938     24178.08    2.5396054 
    5940    401.83445   -7191.9973   -7147.1721    603.53341    24218.382     2.552273 
    5950     400.0136    -7191.987   -7147.3649    389.33009    24261.515    2.5664352 
    5960    401.24945    -7192.286   -7147.5261    32.306308    24306.654     2.580897 
    5970    401.01826   -7192.3884   -7147.6542   -313.23011    24352.569    2.5951153 
    5980    394.06271    -7191.703   -7147.7447   -664.93443    24397.978    2.6085591 
    5990     396.0674   -7191.9693   -7147.7874   -1288.9278    24441.445      2.62131 
    6000     398.2063   -7192.2022   -7147.7817   -1803.6159    24480.755    2.6348391 
    6010    398.10337   -7192.1527   -7147.7437   -2098.4924    24513.962     2.649777 
    6020    395.73841   -7191.8251   -7147.6799   -2338.5255    24539.819    2.6659608 
    6030    393.46779   -7191.4818   -7147.5899   -2428.1521    24557.369    2.6830595 
    6040    396.48926   -7191.6987   -7147.4697   -2364.9525    24566.184     2.699206 
    6050    400.31877   -7191.9771   -7147.3209   -2136.6088    24566.426    2.7112223 
    6060    394.60233   -7191.1629   -7147.1444   -1747.9882    24558.856      2.71735 
    6070    391.04137   -7190.5534   -7146.9322   -1406.0692    24544.762    2.7177935 
    6080    393.93422   -7190.6182   -7146.6743   -1117.4764    24525.356    2.7149374 
    6090    396.23829   -7190.5744   -7146.3734   -933.26864    24501.633    2.7123354 
    6100    397.85325   -7190.4237   -7146.0426   -821.77125    24474.251     2.711989 
    6110    395.30298   -7189.7875   -7145.6908   -433.83631    24443.737    2.7128157 
    6120    402.64405   -7190.2392   -7145.3236    36.477704    24411.418    2.7122839 
    6130    418.16526   -7191.6055   -7144.9585    280.68844    24378.888    2.7097397 
    6140    419.61294   -7191.4407   -7144.6323     532.6216    24347.131    2.7065768 
    6150    418.11679   -7191.0016   -7144.3601    762.61259    24317.049    2.7034958 
    6160    427.09371   -7191.7795   -7144.1366    844.51718    24289.462    2.6998588 
    6170    424.89842   -7191.3615   -7143.9634    1032.3598    24264.765    2.6958232 
    6180    418.28988   -7190.4957   -7143.8349    1249.9225    24243.619     2.691548 
    6190     414.6733   -7189.9906   -7143.7331     1240.986    24226.737    2.6880073 
    6200    405.37935   -7188.8584   -7143.6378    1140.8281    24214.164    2.6861811 
    6210    412.00295   -7189.4991   -7143.5395    824.89865    24205.483    2.6851084 
    6220    419.68534   -7190.2595   -7143.4429    703.23798    24199.759    2.6852904 
    6230    419.60007   -7190.1699   -7143.3629    759.75731    24196.564    2.6867421 
    6240    422.05811   -7190.3846   -7143.3034    773.38308    24196.057    2.6883126 
    6250    431.82091   -7191.4446   -7143.2743    634.41562    24198.288    2.6911949 
    6260    437.09121   -7192.0522    -7143.294    335.39934    24202.762     2.697046 
    6270    428.69679   -7191.1915   -7143.3697    69.634239    24208.497    2.7040235 
    6280     421.4924    -7190.504   -7143.4859   -205.24729    24214.523    2.7089476 
    6290    419.47899   -7190.4156   -7143.6221   -329.14592    24219.927    2.7109191 
    6300    421.32617   -7190.7682   -7143.7687    -513.2566    24224.159    2.7109822 
    6310    421.36448   -7190.9361   -7143.9323   -746.48104    24226.563    2.7110549 
    6320    413.36355   -7190.2248   -7144.1134   -717.14785    24226.396    2.7120252 
    6330     409.9727    -7190.033   -7144.2999   -353.21024    24223.752    2.7127575 
    6340    418.92068   -7191.2211   -7144.4898   -51.322753    24219.807    2.7126732 
    6350    427.74687   -7192.4226   -7144.7067   -22.404906     24215.56    2.7131843 
    6360    421.00475   -7191.9277    -7144.964    159.41886    24211.256    2.7152308 
    6370    416.09174   -7191.6584   -7145.2427    492.34395    24207.561    2.7179864 
    6380    423.36451   -7192.7631   -7145.5362    497.05596    24205.495    2.7203709 
    6390    422.60396   -7192.9879   -7145.8458    520.54254    24205.234    2.7223603 
    6400    415.45094   -7192.5053   -7146.1612    615.09359    24206.859    2.7241519 
    6410    405.59245    -7191.702   -7146.4575    741.66301    24210.697    2.7256088 
    6420    400.19237   -7191.3536   -7146.7115    874.61217    24217.227    2.7262815 
    6430     406.3037   -7192.2431   -7146.9193    834.94011    24226.856    2.7264753 
    6440    410.35031   -7192.8679   -7147.0927    716.73137    24239.488    2.7271889 
    6450    407.46891   -7192.6934   -7147.2397    606.51621    24254.765    2.7282177 
    6460    403.85564   -7192.4069   -7147.3562    336.36335    24272.226    2.7284954 
    6470    396.60698   -7191.6754   -7147.4333    188.89128    24291.038    2.7277775 
    6480    394.27177   -7191.4489   -7147.4673    94.934927    24310.643    2.7262151 
    6490    402.21084   -7192.3318   -7147.4646    10.429827    24330.706    2.7240523 
    6500    403.33952   -7192.4324   -7147.4393    6.7863448    24350.929     2.721832 
    6510    400.28986   -7192.0536   -7147.4006    141.69164    24371.339    2.7197467 
    6520    406.04918   -7192.6436   -7147.3482    141.94856    24392.326     2.717745 
    6530    413.25696   -7193.3886   -7147.2892    50.511594    24413.909     2.715779 
    6540    421.21908   -7194.2261   -7147.2385   -41.730267    24435.794    2.7144183 
    6550    424.32547   -7194.5436   -7147.2095   -118.42424    24457.638    2.7153562 
    6560    417.64959   -7193.7933   -7147.2039   -222.68768    24479.151    2.7186344 
    6570    415.07886   -7193.5142   -7147.2116   -345.20359    24499.954    2.7222026 
    6580    420.03335   -7194.0844    -7147.229    -531.7733    24519.588    2.7232652 
    6590     423.8327   -7194.5396   -7147.2604   -662.03407    24537.402      2.72091 
    6600    426.25738   -7194.8642   -7147.3145   -643.63651    24552.917    2.7168605 
    6610    420.13669   -7194.2557   -7147.3888   -493.46278    24566.182    2.7133333 
    6620    415.03237   -7193.7704    -7147.473   -518.14768    24577.614    2.7111046 
    6630    415.31103   -7193.8877   -7147.5591   -875.56858     24587.06    2.7110778 
    6640    409.44633     -7193.32   -7147.6457   -1300.5061    24593.287    2.7136639 
    6650    402.50471   -7192.6244   -7147.7244   -1562.9414    24594.807    2.7160232 
    6660    405.85857   -7193.0655   -7147.7914   -1530.2478    24590.675    2.7149955 
    6670    408.14871   -7193.3797   -7147.8501   -1241.2764    24580.968    2.7112337 
    6680    401.08384   -7192.6414   -7147.8999   -865.19055    24566.692    2.7076171 
    6690    392.71122   -7191.7278   -7147.9203   -563.44447    24549.179    2.7050733 
    6700    393.36652   -7191.7793   -7147.8987   -433.81896    24529.504    2.7031985 
    6710    391.57888    -7191.512   -7147.8308   -389.21093    24508.191    2.7022865 
    6720    391.87856   -7191.4292   -7147.7145   -479.41979    24485.406    2.7013802 
    6730    400.66059   -7192.2484   -7147.5541   -667.97789     24460.82    2.6989325 
    6740    406.14771   -7192.6623    -7147.356   -498.44259    24433.922    2.6948318 
    6750    409.16133   -7192.7674   -7147.1248    134.21514    24405.394     2.689603 
    6760     408.5995   -7192.4361   -7146.8562    746.70732    24377.406    2.6839609 
    6770    413.47915   -7192.6808   -7146.5566    868.48048    24352.033     2.678904 
    6780    423.20945   -7193.4471   -7146.2375    637.45409    24329.777    2.6755777 
    6790    425.25813    -7193.363   -7145.9248    473.49625    24309.934    2.6739072 
    6800    420.12636   -7192.5008   -7145.6351    561.10772    24291.942    2.6728528 
    6810    417.98744   -7191.9879   -7145.3608     790.5783    24276.075    2.6717675 
    6820    421.09549   -7192.0684   -7145.0946    1077.0194    24263.132    2.6705395 
    6830    419.88558   -7191.6794   -7144.8405    1361.3572    24254.126    2.6683536 
    6840    422.40055   -7191.7237   -7144.6043    1324.7524    24249.936    2.6634632 
    6850    433.33034   -7192.7322   -7144.3936    968.34269    24250.412    2.6562861 
    6860     426.5181   -7191.8005   -7144.2217    823.91669    24254.425    2.6494321 
    6870    417.82116   -7190.6951   -7144.0865    805.28436    24261.413    2.6438402 
    6880    425.70941    -7191.458   -7143.9695    447.28691    24271.127    2.6392635 
    6890    433.91758   -7192.2841     -7143.88    149.42999    24282.415     2.636916 
    6900     428.1698   -7191.5995   -7143.8366    158.16382    24294.295    2.6378366 
    6910    423.23922   -7191.0503   -7143.8373    116.63358     24306.64    2.6406595 
    6920    418.47981   -7190.5466   -7143.8646    209.28004    24319.393     2.643702 
    6930    423.51097   -7191.1616   -7143.9183      345.846    24332.846    2.6474685 
    6940    423.27527   -7191.2227   -7144.0057    451.24481    24347.476    2.6542483 
    6950    423.71468    -7191.407    -7144.141    380.22227    24363.615     2.665047 
    6960    427.81161   -7192.0716   -7144.3486    186.01464    24381.008    2.6789682 
    6970    417.63545   -7191.2493   -7144.6615    157.97512    24399.075    2.6927639 
    6980    414.49467   -7191.3462   -7145.1087   -10.614799    24417.607    2.7027624 
    6990    416.68405   -7192.2019   -7145.7202   -420.05401    24435.949    2.7090256 
    7000    399.16063   -7190.9663   -7146.4393   -687.98388    24452.754    2.7149663 
    7010    393.78046   -7191.0595   -7147.1327   -786.95522    24467.049    2.7227768 
    7020    404.62795   -7192.8721   -7147.7352   -785.30951     24478.44    2.7336602 
    7030    398.25388   -7192.6394   -7148.2136   -640.58957     24486.97     2.746751 
    7040    393.14404   -7192.4151   -7148.5593   -630.17405    24493.092    2.7576177 
    7050    402.25858   -7193.6711   -7148.7985   -887.21319    24496.795    2.7626875 
    7060    405.92025   -7194.2545   -7148.9735   -944.93848     24497.33     2.763096 
    7070    391.61022   -7192.7848   -7149.1001   -623.46627    24494.561    2.7629229 
    7080     383.4015   -7191.9371   -7149.1681   -442.28414    24489.472    2.7645202 
    7090    394.18255   -7193.1502   -7149.1785   -531.17152    24482.716    2.7688878 
    7100    405.41362   -7194.3763   -7149.1518   -636.09802    24474.079    2.7775269 
    7110    411.87285   -7195.0567   -7149.1117   -636.71332    24463.227    2.7892308 
    7120    415.35793   -7195.4037   -7149.0699   -533.86422    24450.157    2.7991181 
    7130    410.82292   -7194.8617   -7149.0338   -419.72193    24435.225    2.8026311 
    7140    397.50398   -7193.3336   -7148.9914    -362.3323    24418.842    2.7978762 
    7150    396.92052   -7193.2007   -7148.9236   -305.82489    24401.256    2.7856972 
    7160    401.50043   -7193.6071   -7148.8191   -189.95681    24382.716    2.7714555 
    7170    404.77562   -7193.8372   -7148.6839   -128.61435    24363.611    2.7615148 
    7180    406.14212   -7193.8283   -7148.5225   -124.58847    24344.175    2.7580994 
    7190    407.12916     -7193.76   -7148.3441   -187.71323    24324.414    2.7600061 
    7200     405.6712   -7193.4044   -7148.1512   -154.71439    24304.172    2.7642765 
    7210    405.55919   -7193.1851   -7147.9444   -112.46708    24283.504    2.7670205 
    7220    403.73461   -7192.7569   -7147.7197    147.48505    24262.678     2.765734 
    7230    401.28388   -7192.2377   -7147.4739    390.73238    24242.505    2.7608384 
    7240    407.43862   -7192.6555   -7147.2051    777.01304    24223.919    2.7536367 
    7250    412.44646   -7192.9305   -7146.9215    1354.4548    24208.306    2.7459377 
    7260    409.87211   -7192.3631   -7146.6413    1831.3913    24197.605    2.7413183 
    7270    410.24477   -7192.1395   -7146.3761    1991.3929    24193.377    2.7415278 
    7280    406.36893   -7191.4538   -7146.1228    2199.7405    24196.305    2.7447521 
    7290    413.93197   -7192.0614   -7145.8867     2228.774    24206.989      2.74933 
    7300    417.00405   -7192.1869   -7145.6695    2047.7486    24225.477     2.755944 
    7310    418.46945   -7192.1616   -7145.4807    1691.7818    24251.102    2.7634995 
    7320    422.43114   -7192.4418    -7145.319     1322.115     24282.62    2.7701758 
    7330    425.91599   -7192.7001   -7145.1885    1011.2725    24318.716    2.7756236 
    7340    426.99743   -7192.7233   -7145.0911    525.49299    24358.165    2.7807388 
    7350    424.65722   -7192.3897   -7145.0186   -45.021698    24399.219    2.7867806 
    7360    419.70643   -7191.7828   -7144.9639   -444.90563     24439.87    2.7932521 
    7370     416.6739   -7191.3999   -7144.9193   -659.93446    24478.645    2.7972532 
    7380    413.20116   -7190.9724   -7144.8791   -793.76547    24514.707     2.796806 
    7390     412.6372   -7190.8706   -7144.8403   -1102.7766    24547.478    2.7931004 
    7400    419.31875   -7191.5795   -7144.8038   -1581.1284    24575.824    2.7886417 
    7410    422.76156   -7191.9444   -7144.7847   -1735.5356    24598.179    2.7848491 
    7420    429.69952   -7192.7358   -7144.8022   -1784.3222    24613.924    2.7817874 
    7430     431.8194   -7193.0383   -7144.8682   -1791.4637    24622.951    2.7794899 
    7440    423.83254   -7192.2631   -7144.9839   -1752.9795    24625.298     2.777851 
    7450    418.66103    -7191.838   -7145.1358   -1676.9845    24621.209    2.7756993 
    7460    423.89598   -7192.6097   -7145.3234   -1701.4312    24611.025    2.7725313 
    7470    423.93809   -7192.8473   -7145.5564   -1703.3612    24594.812    2.7693725 
    7480     409.8413   -7191.5408   -7145.8224   -1470.9586    24572.742    2.7662907 
    7490    404.05706   -7191.1644   -7146.0912   -1251.3654    24545.724    2.7616668 
    7500    412.62783   -7192.3943   -7146.3651   -1180.1691    24514.667    2.7544457 
    7510    409.85184   -7192.3701   -7146.6505   -1095.2223    24480.011    2.7453731 
    7520    400.22252   -7191.5789   -7146.9335   -996.28286    24442.211    2.7344351 
    7530    395.74837   -7191.3441   -7147.1978   -880.27592    24401.798    2.7211448 
    7540    398.78892   -7191.9174   -7147.4319   -781.81079    24359.309    2.7063421 
    7550    406.24959   -7192.9625   -7147.6448   -610.31486    24315.259    2.6924293 
    7560    406.44079   -7193.1811    -7147.842   -139.58993    24270.482    2.6826255 
    7570    409.28466   -7193.6844   -7148.0281    273.08632    24226.611    2.6783406 
    7580    409.22562    -7193.865   -7148.2153    689.50671    24185.178    2.6790292 
    7590     402.1921   -7193.2647   -7148.3996     1173.792    24147.616    2.6815576 
    7600    403.94412   -7193.6404   -7148.5798    1506.0858    24115.443    2.6809462 
    7610    409.94132   -7194.4968   -7148.7673    1587.8518    24089.574    2.6751817 
    7620    410.79789    -7194.803   -7148.9779     1596.649    24070.125    2.6662141 
    7630    405.47778   -7194.4475   -7149.2158    1485.8762    24056.878     2.658252 
    7640    403.98213   -7194.5424   -7149.4776      1289.06    24049.221    2.6553085 
    7650    401.44966    -7194.538   -7149.7557    1204.0229    24046.319    2.6580441 
    7660    396.31007   -7194.2509   -7150.0419     1202.369      24047.7     2.663638 
    7670    395.80516   -7194.4843   -7150.3317    1231.4584    24053.201    2.6693865 
    7680    395.97646   -7194.7952   -7150.6234     1406.429    24062.835    2.6749551 
    7690    389.92202   -7194.4096   -7150.9132    1535.9465     24076.99    2.6805317 
    7700    384.18728   -7194.0459   -7151.1892    1395.7404    24095.887    2.6854739 
    7710    387.55932   -7194.6743   -7151.4415    1054.4594    24118.911    2.6892773 
    7720    391.75448   -7195.3702   -7151.6694    603.73268    24144.741    2.6919199 
    7730    391.93431   -7195.5975   -7151.8766    338.95175    24171.817    2.6935627 
    7740    391.51361   -7195.7412   -7152.0672    141.34414      24199.1    2.6943941 
    7750    388.01507   -7195.5218   -7152.2381    40.258108     24225.92    2.6957069 
    7760    390.77485   -7195.9765    -7152.385   -278.38372    24251.822    2.6994169 
    7770    396.64515   -7196.7523    -7152.506   -746.07323    24275.739    2.7070538 
    7780    395.71496   -7196.7496    -7152.607   -957.74655    24296.227    2.7184922 
    7790     391.1651    -7196.327   -7152.6919   -902.89517    24312.677    2.7320133 
    7800    388.81662    -7196.125   -7152.7519   -848.21553    24325.322    2.7456244 
    7810     391.1713    -7196.414   -7152.7783   -675.89581    24334.554    2.7571703 
    7820    391.02044   -7196.3841   -7152.7652   -497.23858    24341.065    2.7660936 
    7830    390.06145   -7196.2159    -7152.704   -406.46755     24345.57    2.7728342 
    7840    387.59155   -7195.8158   -7152.5793   -476.38988    24348.435    2.7766872 
    7850    384.31878   -7195.2504    -7152.379   -640.20498    24349.491    2.7766564 
    7860    387.95758   -7195.3724   -7152.0952   -925.88456    24348.191    2.7739817 
    7870    392.33348   -7195.4988   -7151.7334   -1031.8063    24343.703    2.7713923 
    7880    392.87441   -7195.1423   -7151.3165   -889.84741    24335.778    2.7706248 
    7890    394.80916   -7194.9131   -7150.8716    -656.9072        24325    2.7721038 
    7900     399.9118    -7195.031   -7150.4202   -380.04699    24312.271    2.7755031 
    7910    406.63284    -7195.347   -7149.9865   -166.66452    24298.582    2.7799859 
    7920    408.39729   -7195.1512   -7149.5938    134.98154    24284.795    2.7840332 
    7930     404.0223   -7194.3149   -7149.2456    445.52162    24271.941    2.7862357 
    7940      406.928   -7194.3234     -7148.93    593.33212    24261.024    2.7860862 
    7950    413.63998   -7194.7834   -7148.6412    600.64258    24252.486    2.7857211 
    7960    417.93713     -7195.01   -7148.3885    647.88507    24246.331    2.7875533 
    7970    421.07565   -7195.1488   -7148.1772    665.78501    24242.645     2.792367 
    7980     421.8822   -7195.0654   -7148.0038    553.27575     24241.38    2.8013929 
    7990    420.98432   -7194.8269   -7147.8654    442.75363    24242.102    2.8145252 
    8000    413.45201   -7193.8744   -7147.7532      493.502    24244.423    2.8288449 
    8010    407.59537   -7193.1202   -7147.6523    730.21417    24248.503    2.8400081 
    8020    406.62441   -7192.9058   -7147.5462    908.72155    24255.069    2.8457022 
    8030    407.34048   -7192.8686   -7147.4291     1001.912    24264.699    2.8473409 
    8040    409.13187    -7192.944   -7147.3047    908.42955    24277.613    2.8482629 
    8050    406.05305   -7192.4647   -7147.1689    599.59598    24293.442    2.8515619 
    8060    414.82144   -7193.2946   -7147.0206    27.019912    24310.996     2.857426 
    8070    415.89435   -7193.2583   -7146.8646   -449.29907     24328.36    2.8649525 
    8080    406.59374   -7192.0665   -7146.7104   -802.95867    24343.844    2.8737462 
    8090    404.37162    -7191.654   -7146.5457   -1015.3464    24356.242    2.8833282 
    8100    412.94492   -7192.4287    -7146.364   -1108.0875    24364.847    2.8929151 
    8110    423.41781   -7193.4152   -7146.1824   -963.86949    24369.415    2.9021474 
    8120    416.51609   -7192.4843   -7146.0213   -415.85365    24370.595    2.9109933 
    8130    409.03848   -7191.5022   -7145.8733    237.14256    24370.301     2.918047 
    8140    422.00835   -7192.8028   -7145.7271    415.58375    24370.705    2.9225272 
    8150    428.32892   -7193.3781   -7145.5973    267.43223    24372.511    2.9260958 
    8160    420.07341   -7192.3606   -7145.5008    232.62377    24375.312    2.9306119 
    8170    416.85427   -7191.9279   -7145.4272    262.42061    24378.944    2.9371629 
    8180    416.26772    -7191.797   -7145.3617    265.28233     24383.46    2.9459887 
    8190    408.56053   -7190.8693   -7145.2937    385.30032    24388.931    2.9554338 
    8200    410.37415   -7190.9946   -7145.2167    471.48576    24395.733    2.9623505 
    8210    419.36005   -7191.9143   -7145.1341    481.69919    24404.159    2.9665197 
    8220    422.59498   -7192.1991    -7145.058    331.93467    24414.183    2.9702869 
    8230    424.97322   -7192.4033   -7144.9969   -71.001873    24425.204    2.9751435 
    8240    424.34111   -7192.2865   -7144.9506   -474.09261    24435.853    2.9816836 
    8250    419.03376   -7191.6635   -7144.9197   -671.49551    24444.747    2.9900606 
    8260    417.83001   -7191.5141   -7144.9045   -721.23636    24451.179    3.0002569 
    8270    416.02146   -7191.3095   -7144.9017   -663.73755    24454.964     3.011865 
    8280     410.4943   -7190.6936   -7144.9024   -431.91302    24456.381    3.0231994 
    8290    410.54631   -7190.6949   -7144.8978   -224.45846    24456.223    3.0324174 
    8300     408.2657   -7190.4246    -7144.882   -204.44733    24455.188      3.03935 
    8310    403.50711   -7189.8615   -7144.8497    -317.5736    24453.381    3.0444178 
    8320    407.94995   -7190.3056   -7144.7981   -463.82297    24450.438    3.0476548 
    8330    409.87428   -7190.4542   -7144.7321   -521.91828    24445.864    3.0484768 
    8340    411.45241   -7190.5546   -7144.6564   -512.03264    24439.475    3.0456788 
    8350    419.35096   -7191.3532    -7144.574   -486.54337    24431.313    3.0397313 
    8360    421.26448   -7191.4858   -7144.4932   -358.57099    24421.498    3.0340681 
    8370    427.70435   -7192.1369   -7144.4258   -290.30833    24410.462    3.0310933 
    8380    434.25445    -7192.829   -7144.3873   -415.89831    24398.417    3.0309177 
    8390    432.62347   -7192.6544   -7144.3946    -500.9782    24384.997    3.0326982 
    8400    433.83381   -7192.8521   -7144.4573   -541.68438    24369.892    3.0350883 
    8410    429.77544   -7192.5205   -7144.5784   -469.35852    24353.003    3.0383504 
    8420    417.05592   -7191.2682    -7144.745   -213.37162    24334.627    3.0431139 
    8430    417.75976   -7191.5425   -7144.9408    97.611668    24315.663    3.0481156 
    8440    420.65123   -7192.0895   -7145.1652    314.25262    24297.189    3.0533837 
    8450    419.63152   -7192.2328   -7145.4223    438.65074    24279.962    3.0597619 
    8460    418.25544   -7192.3647   -7145.7077    480.08456     24264.43    3.0665817 
    8470    415.24002   -7192.3336   -7146.0129    320.56427    24250.681    3.0732463 
[...]
   22890    391.29865   -7196.1823   -7152.5324    -1028.246    24479.715    4.9212174 
   22900    399.41111   -7197.0827   -7152.5278   -1168.1349    24486.966    4.9357383 
   22910    405.29798   -7197.7051   -7152.4935    -1087.551    24490.087     4.949496 
   22920    401.46154   -7197.2136   -7152.4299   -724.68363    24489.351    4.9605702 
   22930    409.55179   -7198.0121    -7152.326   -496.59562    24485.883    4.9681339 
   22940    417.76126    -7198.777   -7152.1751   -293.38799     24480.56    4.9733764 
   22950    416.68774   -7198.4694   -7151.9872   -138.35826    24474.088     4.977892 
   22960    414.82474   -7198.0375   -7151.7632   -93.233614    24467.013    4.9814822 
   22970    421.50342   -7198.5241   -7151.5048   -217.10876    24459.455    4.9828504 
   22980    420.89162   -7198.1772   -7151.2261   -429.15077    24450.961    4.9831004 
   22990    412.26432   -7196.9304   -7150.9417   -429.85075    24440.856    4.9842675 
   23000    408.83144   -7196.2521   -7150.6463   -205.57021    24429.092    4.9872858 
   23010    404.60839    -7195.465   -7150.3303    163.77115    24416.453    4.9930217 
   23020    400.33367   -7194.6514   -7149.9936    346.08177    24404.189    5.0015309 
   23030    409.85803   -7195.3592    -7149.639    44.872819    24392.841    5.0119966 
   23040     428.2944   -7197.0627   -7149.2858   -253.52943    24381.491    5.0227183 
   23050    426.59535   -7196.5607   -7148.9734   -301.59945    24369.131    5.0311054 
   23060    415.47948   -7195.0594   -7148.7121   -107.37094    24355.586    5.0347073 
   23070    422.47864   -7195.6106   -7148.4824    16.575615    24341.403     5.033972 
   23080    422.04285   -7195.3615   -7148.2819    211.70992    24327.081    5.0307405 
   23090    406.23932   -7193.4235   -7148.1068    510.10903    24313.352     5.025906 
   23100    414.80737   -7194.2124     -7147.94    402.09813      24301.1    5.0186986 
   23110    421.60056   -7194.8083   -7147.7781    209.35651    24290.088     5.010429 
   23120    417.80824   -7194.2455   -7147.6384    179.90429    24279.705    5.0032067 
   23130     424.1002   -7194.8283   -7147.5193    196.82988    24269.799    4.9974466 
   23140    431.31942   -7195.5407   -7147.4263    78.089725    24260.398    4.9935198 
   23150    432.52766   -7195.6267   -7147.3776   -266.08801    24251.044    4.9919248 
   23160    427.10337   -7195.0205   -7147.3765   -561.19033    24240.589    4.9935277 
   23170    416.49689   -7193.8699   -7147.4091   -755.90985    24227.946    4.9972064 
   23180    415.16932   -7193.7734   -7147.4606   -870.33459    24212.358    4.9995229 
   23190    415.23437   -7193.8426   -7147.5225   -794.96177    24193.431    4.9991796 
   23200    415.83864   -7193.9838   -7147.5964   -651.36492    24171.315    4.9969149 
   23210    414.60431    -7193.929   -7147.6793    -328.7667    24146.514    4.9937641 
   23220    412.95247   -7193.8279   -7147.7625    255.16757      24120.2    4.9908187 
   23230    421.06059   -7194.8134   -7147.8435    766.12953    24094.329    4.9877145 
   23240    426.92408   -7195.5675   -7147.9434    1038.4054    24070.686    4.9839405 
   23250    422.39037   -7195.1951   -7148.0769    1086.2916    24050.256     4.980147 
   23260    424.19955    -7195.566   -7148.2459    1008.8456    24033.312    4.9752046 
   23270    428.89327   -7196.3049   -7148.4612    789.95624    24019.631    4.9673204 
   23280    423.67927   -7195.9935   -7148.7314    707.92116    24008.585     4.957975 
   23290    415.13953   -7195.3473   -7149.0379    776.15803    23999.909    4.9513834 
   23300    419.59996    -7196.172    -7149.365    780.91103    23993.796     4.951157 
   23310    418.63811   -7196.4106   -7149.7109      974.975    23990.401    4.9569325 
   23320    409.40771   -7195.7256   -7150.0556     1247.936    23990.429    4.9631378 
   23330    408.60884    -7195.968   -7150.3871    1287.4088    23994.799    4.9629389 
   23340    401.16254   -7195.4363    -7150.686    1170.1352    24003.772    4.9527896 
   23350    405.17289   -7196.1419   -7150.9443    752.20495    24016.949    4.9335127 
   23360    409.86924   -7196.8839   -7151.1624    422.11738    24033.072    4.9124139 
   23370    408.91272   -7196.9619    -7151.347    259.01342    24051.019    4.8995413 
   23380    409.29209   -7197.1564   -7151.4993    129.75551     24070.22    4.9006066 
   23390    421.84854   -7198.6884   -7151.6306   -21.685047     24090.22    4.9131227 
   23400    437.33944   -7200.5601   -7151.7743   -23.454339    24110.523    4.9308247 
   23410    434.98888   -7200.4804   -7151.9568    282.91967    24131.189    4.9477426 
   23420    423.86016   -7199.4532   -7152.1709     587.9417    24153.226    4.9593875 
   23430    415.96114   -7198.7865   -7152.3854    580.86124    24177.676    4.9645464 
   23440    416.03992   -7198.9943   -7152.5845     303.4402    24204.586    4.9645963 
   23450    408.07769   -7198.2803   -7152.7586   -19.562342    24233.059    4.9641486 
   23460    397.37156   -7197.2176   -7152.8902   -355.65904    24261.941    4.9679665 
   23470    396.47441   -7197.1928   -7152.9655   -715.06965    24290.007    4.9785278 
   23480    399.43599   -7197.5485   -7152.9908   -1007.7527    24315.947    4.9954702 
   23490    397.70196   -7197.3423    -7152.978   -1208.3438    24338.637    5.0156652 
   23500      398.295   -7197.3681   -7152.9377   -1267.1903    24357.316    5.0334835 
   23510    402.47086   -7197.7725   -7152.8762   -1224.1267    24371.692    5.0440004 
   23520    406.04088   -7198.0965   -7152.8021   -1200.8782    24381.806    5.0463428 
   23530    407.05001   -7198.1274   -7152.7204   -1133.7219    24387.703    5.0425106 
   23540    405.84889   -7197.9019   -7152.6288   -974.08928     24389.57    5.0354314 
   23550    408.95531   -7198.1489   -7152.5293   -828.00139    24387.901    5.0273171 
   23560    411.30423   -7198.3104   -7152.4288   -759.29715    24383.177    5.0195327 
   23570    408.24407   -7197.8711   -7152.3308   -684.08421    24375.637    5.0127648 
   23580    408.05018   -7197.7489   -7152.2303    -501.6116    24365.564    5.0081168 
   23590    411.01682    -7197.969   -7152.1195   -351.32931    24353.527    5.0071275 
   23600    405.82852   -7197.2653   -7151.9946   -106.04854    24340.123    5.0087858 
   23610    402.67691   -7196.7716   -7151.8524    57.301839    24326.156    5.0093029 
   23620    402.47905    -7196.587   -7151.6898    71.077722     24312.21    5.0078938 
   23630    399.45375   -7196.0624   -7151.5027    51.797849    24298.397    5.0074801 
   23640    406.56594   -7196.6448   -7151.2917   -103.55952     24284.62    5.0100313 
   23650    408.28735   -7196.6082   -7151.0631   -290.11639    24270.315    5.0146438 
   23660    405.55794   -7196.0677   -7150.8271   -171.86021    24254.941    5.0175199 
   23670    412.85356   -7196.6384    -7150.584    50.433236    24238.842    5.0155178 
   23680    414.66765   -7196.5977   -7150.3409    335.12307      24222.8    5.0097042 
   23690    418.12912   -7196.7529     -7150.11    511.21905    24207.787    5.0031909 
   23700    432.14855   -7198.1101   -7149.9033    418.28312    24194.401    4.9988106 
   23710    433.19171   -7198.0668   -7149.7436    363.56012    24182.424    4.9980821 
   23720    420.27561   -7196.5201   -7149.6377    509.81448      24171.7    5.0004531 
   23730    410.66187    -7195.368    -7149.558    720.44273    24162.732     5.004317 
   23740    423.09094   -7196.6847   -7149.4883     661.5112    24156.179    5.0080236 
   23750    435.95569   -7198.0769   -7149.4453    396.70682    24151.867    5.0100814 
   23760    429.38151    -7197.349   -7149.4508    101.54635    24148.929    5.0099012 
   23770    424.22679   -7196.8191    -7149.496   -414.86676    24146.254    5.0079603 
   23780    428.10476   -7197.3276   -7149.5719   -908.22735    24142.086    5.0049848 
   23790      422.822   -7196.8409   -7149.6744   -964.15307    24134.763    5.0022993 
   23800    413.43858   -7195.9062   -7149.7865   -497.62926    24124.074    5.0010749 
   23810    410.27002   -7195.6506   -7149.8844    167.79596    24111.539    5.0019682 
   23820      414.726   -7196.2254   -7149.9621    763.68932    24099.452    5.0046875 
   23830    422.44526   -7197.1582   -7150.0338    964.81564    24089.822    5.0093463 
   23840    424.84323   -7197.5072   -7150.1153    936.40158    24083.442    5.0171695 
   23850    426.02401   -7197.7335   -7150.2099    821.39811    24080.286    5.0283693 
   23860    431.28178   -7198.4331    -7150.323    743.26414    24080.023    5.0408784 
   23870    421.79579   -7197.4996   -7150.4476    892.83765    24082.499    5.0512535 
   23880    416.96012   -7197.0822   -7150.5697    1002.2524    24088.168    5.0564035 
   23890    416.35537    -7197.126    -7150.681    1007.2818    24097.459    5.0574269 
   23900    410.54516   -7196.5739    -7150.777    808.48294    24110.414    5.0574019 
   23910    407.07547   -7196.2612   -7150.8513    499.74137    24126.412    5.0571731 
   23920    405.26143   -7196.1065   -7150.8989    237.53599     24144.45     5.057271 
   23930    410.42105   -7196.7087   -7150.9256   -73.254243    24163.594    5.0601405 
   23940    414.75438   -7197.2092   -7150.9427   -434.81816    24182.729    5.0679333 
   23950     411.4868    -7196.862     -7150.96   -622.39529    24200.633    5.0794135 
   23960    409.54583    -7196.661   -7150.9755   -584.78098    24216.639    5.0912754 
   23970    416.80454   -7197.4841   -7150.9889   -465.52743    24230.799    5.1002954 
   23980    423.62066   -7198.2672   -7151.0117   -440.79004    24243.454    5.1052063 
   23990    419.60538   -7197.8616    -7151.054    -519.6835    24254.691    5.1063095 
   24000    407.20556   -7196.5286   -7151.1042   -599.82452    24264.227    5.1037678 
   24010    403.83546   -7196.1924   -7151.1439   -672.06146    24271.759    5.0970742 
   24020    407.47533   -7196.6241   -7151.1696   -782.77862    24276.968    5.0873286 
   24030     407.4858   -7196.6419   -7151.1862   -1002.6361    24279.379    5.0765815 
   24040    406.54063   -7196.5487   -7151.1985   -1144.7119    24278.242    5.0663634 
   24050    401.07721   -7195.9399   -7151.1991    -1200.432    24272.983    5.0583476 
   24060    407.30824   -7196.6188   -7151.1829   -1293.6042    24263.294    5.0530338 
   24070     414.3058   -7197.3716   -7151.1552   -1324.1592     24248.81     5.050888 
   24080    411.76354   -7197.0594   -7151.1265   -1138.5411    24229.416    5.0524424 
   24090    414.17131   -7197.2977   -7151.0963   -755.79837    24205.729    5.0573511 
   24100    423.76873   -7198.3335   -7151.0615   -410.57171    24179.017    5.0639573 
   24110      430.125   -7199.0201    -7151.039   -105.27151    24150.498    5.0687602 
   24120    425.11782   -7198.4658   -7151.0432    262.19322    24121.307    5.0696648 
   24130    425.29945   -7198.5263   -7151.0835      403.363    24092.632    5.0680412 
   24140    416.65747   -7197.6318    -7151.153    593.60843     24065.11    5.0674407 
   24150    408.15524   -7196.7667   -7151.2363     732.1896    24039.396    5.0702225 
   24160    408.40424   -7196.8829   -7151.3248    733.21568    24015.968     5.077187 
   24170    399.75317   -7196.0049   -7151.4118    943.77843     23995.01    5.0873771 
   24180    393.31434   -7195.3584   -7151.4836    1127.6575    23977.184     5.097617 
   24190    398.12452   -7195.9404    -7151.529    1225.5905    23963.153    5.1062852 
   24200    404.03451   -7196.6214   -7151.5507    1338.8431    23953.329    5.1135743 
   24210    409.64047   -7197.2553   -7151.5593    1314.2362    23948.087    5.1201211 
   24220    416.10695   -7197.9852   -7151.5678    1261.8335    23947.405    5.1262791 
   24230    413.33983   -7197.6929   -7151.5842    1410.5597    23951.192    5.1336746 
   24240    408.06846   -7197.1255   -7151.6049    1585.5743    23959.955    5.1459183 
   24250    410.16946   -7197.3775   -7151.6225    1565.7033    23974.287    5.1654944 
   24260    412.42225   -7197.6429   -7151.6366     1246.838    23994.117    5.1909642 
   24270    406.72296   -7197.0149   -7151.6444     929.5324    24018.463    5.2180491 
   24280    407.11349   -7197.0541     -7151.64    543.23928    24046.203    5.2426904 
   24290    414.96135   -7197.9073   -7151.6177   -8.2767976    24075.969    5.2640693 
   24300    414.53862    -7197.827   -7151.5846   -651.43128    24105.807    5.2808957 
   24310    406.22399   -7196.8622   -7151.5473   -1055.4393    24133.558     5.290261 
   24320    400.22538   -7196.1421   -7151.4964   -1276.0114    24157.717    5.2912635 
   24330    400.94005    -7196.147   -7151.4216   -1204.4585    24177.537    5.2876534 
   24340    404.02434   -7196.3927   -7151.3232   -1028.4801    24193.186    5.2853883 
   24350    406.50716   -7196.5509   -7151.2044   -999.36625    24205.176    5.2871622 
   24360    406.86388   -7196.4527   -7151.0665   -1031.0324    24213.609     5.292493 
   24370    407.44732   -7196.3608   -7150.9094   -958.75898    24218.432    5.2985161 
   24380    409.99438   -7196.4693   -7150.7338   -875.82863    24219.851    5.3024402 
   24390    410.51318   -7196.3351   -7150.5417   -708.44817    24218.159     5.303946 
   24400    416.28018   -7196.7746   -7150.3379   -393.32935    24213.974    5.3036084 
   24410     416.0364   -7196.5372   -7150.1277   -64.852728    24208.355    5.3018306 
   24420    404.81545   -7195.0706   -7149.9128    283.55494    24202.479    5.2983273 
   24430    407.04011   -7195.0889   -7149.6829    457.04298    24197.538    5.2925082 
   24440     427.0477   -7197.0741   -7149.4362    542.14354    24194.187    5.2857737 
   24450    438.75701   -7198.1516   -7149.2076    702.61929    24192.777    5.2807615 
   24460    432.83143   -7197.3173   -7149.0343    879.19627    24193.874    5.2781637 
   24470     425.7265   -7196.4003   -7148.9098    917.41085    24198.081    5.2766922 
   24480    431.22412    -7196.923   -7148.8193    860.96819    24205.562    5.2762778 
   24490    435.42029    -7197.342   -7148.7703    941.02477     24216.21    5.2798678 
   24500    425.26525   -7196.2075   -7148.7685    1111.1816    24230.293    5.2886758 
   24510    419.09914   -7195.5487   -7148.7975    971.24426    24248.297    5.3016627 
   24520     427.0455   -7196.4813   -7148.8437    532.80156    24269.762     5.317882 
   24530    426.05121   -7196.4387    -7148.912    36.314576    24293.191    5.3357361 
   24540    423.41273   -7196.2425   -7149.0102   -446.03894    24316.829    5.3521512 
   24550    422.32747   -7196.2532    -7149.142   -821.97689    24338.964    5.3649136 
   24560    411.56748   -7195.2117   -7149.3007   -988.42237     24358.24    5.3728727 
   24570    406.65093   -7194.8368   -7149.4742   -947.42991    24374.049    5.3766209 
   24580    404.46305   -7194.7683   -7149.6498   -881.67497    24386.468    5.3791653 
   24590    410.28578   -7195.5974   -7149.8294    -991.7619    24395.664    5.3833208 
   24600    416.92517   -7196.5352   -7150.0266   -1181.0432    24401.265    5.3913788 
   24610    414.65095   -7196.5068   -7150.2519   -1219.8904    24402.649     5.403896 
   24620    411.43457   -7196.3987   -7150.5026   -1162.7392    24399.632    5.4187796 
   24630    411.39431   -7196.6639   -7150.7723   -874.31012    24392.473    5.4324439 
   24640    408.56272   -7196.6311   -7151.0553   -532.05528    24382.143    5.4412942 
   24650    403.54841   -7196.3575   -7151.3411   -448.02719    24369.761    5.4437063 
   24660    392.60112    -7195.407   -7151.6118   -422.81777    24355.729    5.4405974 
   24670     386.4014   -7194.9425   -7151.8389   -226.11908    24340.211    5.4335028 
   24680    404.73617   -7197.1761   -7152.0271   -121.81295    24323.799     5.424176 
   24690    414.15898   -7198.4076   -7152.2076   -29.994204    24306.918    5.4158385 
   24700    399.91402   -7196.9961   -7152.3851     163.2039    24289.918    5.4118588 
   24710    392.35485   -7196.3052   -7152.5375     267.8385    24273.429    5.4131694 
   24720    396.06021    -7196.837   -7152.6559    75.474043    24257.751    5.4187567 
   24730    399.08729   -7197.2643   -7152.7455   -32.724716    24242.339    5.4260219 
   24740    403.51046   -7197.8258   -7152.8136     32.32869    24226.801    5.4325787 
   24750    405.04105   -7198.0504   -7152.8674    170.14255     24211.34    5.4372641 
   24760    394.88987   -7196.9553   -7152.9048    177.64326     24196.39    5.4404623 
   24770    383.30426   -7195.6648   -7152.9066    38.588221    24181.985    5.4424628 
   24780    384.91395   -7195.7871   -7152.8494   -289.64756     24167.57      5.44338 
   24790    395.98703   -7196.8918   -7152.7189   -476.44475    24152.117    5.4432671 
   24800    403.08064   -7197.4746   -7152.5104    -481.1162    24134.969    5.4427442 
   24810    404.46167   -7197.3378   -7152.2195   -357.42956    24116.075    5.4433141 
   24820    414.35352    -7198.062   -7151.8402   -267.60903    24095.808    5.4464975 
   24830    420.82258   -7198.3226   -7151.3793    31.237988    24074.564    5.4534497 
   24840    414.63644   -7197.1271   -7150.8738    509.71093    24053.381    5.4634766 
   24850    417.32925   -7196.9067    -7150.353    736.97134    24033.816    5.4745429 
   24860    431.21492   -7197.9505   -7149.8478    855.37587    24016.722    5.4851788 
   24870    434.88149   -7197.9211   -7149.4094     1107.748    24002.607    5.4935458 
   24880    424.74057    -7196.449   -7149.0686    1536.2497    23992.373    5.4979491 
   24890    418.06429   -7195.4451   -7148.8094    1894.2383    23987.464     5.499366 
   24900    422.92756   -7195.7858   -7148.6076    1895.7281    23989.082    5.5014911 
   24910    430.42942   -7196.4783   -7148.4632    1683.9261    23997.335    5.5063969 
   24920    424.02204   -7195.6749   -7148.3746    1361.5353    24011.556    5.5128105 
   24930    422.91567   -7195.5051   -7148.3282    955.80754    24030.654    5.5188748 
   24940    425.68626   -7195.7948   -7148.3089    877.82184    24053.412    5.5237486 
   24950    430.66389   -7196.3635   -7148.3223    820.30139    24079.467    5.5276921 
   24960    431.27466   -7196.4845   -7148.3752    603.62347    24108.592    5.5322796 
   24970    417.76725    -7195.062   -7148.4595    418.11969    24140.128    5.5396283 
   24980    408.23188    -7194.086   -7148.5471    148.77871     24173.39    5.5505324 
   24990    409.79852   -7194.3327   -7148.6191   -164.88224    24207.427     5.563665 
   25000    412.33398   -7194.6719   -7148.6755   -483.93728    24241.111    5.5762226 
Loop time of 14499.7 on 16 procs for 20000 steps with 864 atoms

Performance: 0.119 ns/day, 201.385 hours/ns, 1.379 timesteps/s
97.7% CPU use with 16 MPI tasks x 1 OpenMP threads

MPI task timing breakdown:
Section |  min time  |  avg time  |  max time  |%varavg| %total
---------------------------------------------------------------
Pair    | 9709.2     | 12594      | 14479      |1062.0 | 86.86
Bond    | 0.0020649  | 0.0050144  | 0.0088203  |   2.9 |  0.00
Neigh   | 0.20806    | 0.27193    | 0.35509    |   7.1 |  0.00
Comm    | 14.236     | 1425.3     | 3967.4     |2771.5 |  9.83
Output  | 1.8955     | 1.917      | 2.2332     |   5.9 |  0.01
Modify  | 3.6429     | 478.4      | 887.76     |1729.9 |  3.30
Other   |            | 0.0888     |            |       |  0.00

Nlocal:        54.0000 ave          69 max          43 min
Histogram: 1 2 0 5 3 2 1 1 0 1
Nghost:        460.562 ave         540 max         401 min
Histogram: 2 0 5 1 1 4 0 2 0 1
Neighs:         0.00000 ave           0 max           0 min
Histogram: 16 0 0 0 0 0 0 0 0 0
FullNghs:      1938.12 ave        2888 max        1335 min
Histogram: 3 0 3 3 3 1 2 0 0 1

Total # of neighbors = 31010
Ave neighs/atom = 35.891204
Ave special neighs/atom = 0.0000000
Neighbor list builds = 2000
Dangerous builds = 2000
unfix   3
                
Total wall time: 4:59:57
