LAMMPS data file via write_data, version 2 Aug 2023, timestep = 20000, units = metal

1536 atoms
2 atom types

-0.38706366638409406 20.724042378782425 xlo xhi
-0.348598649992935 20.6855773623911 ylo yhi
-23.970409034614164 84.98134517180912 zlo zhi

Masses

1 35.45
2 6.94

Atoms # full

392 0 1 -1 4.712287916481434 2.389371390710966 -23.83982893496411 0 0 0
388 0 2 1 7.6084465296583215 1.9846488769839872 -23.79801884057761 0 0 0
772 0 2 1 12.945507563857495 2.0119701465507682 -23.810718127339733 0 0 0
1157 0 1 -1 17.790615564406565 -0.33583852572426276 -23.731716530350404 0 0 0
8 0 1 -1 20.654457529670566 2.2072465349790624 -23.86253358275022 -1 0 0
865 0 2 1 9.963663074127627 5.01672405733042 -23.95655873123073 0 0 0
100 0 2 1 2.128973228398284 7.422776773096335 -23.82095997965751 0 0 0
488 0 1 -1 4.964528490061782 7.645058672156179 -23.963511025594613 0 0 0
577 0 2 1 5.094092816821201 9.851615060527392 -23.77034409376188 0 0 0
484 0 2 1 7.415195347822058 7.582424091145155 -23.963088265611848 0 0 0
581 0 1 -1 7.536201776047541 10.115704675938613 -23.802763388323303 0 0 0
961 0 2 1 10.41346669313128 10.120921168427362 -23.650540458107955 0 0 0
1345 0 2 1 15.20614733391001 10.118253031528065 -23.630563904359622 0 0 0
197 0 1 -1 1.9323438638471435 10.225417209778412 -23.948239587633733 0 0 0
968 0 1 -1 10.128252927432902 12.84644071527749 -23.73231131328388 0 0 0
965 0 1 -1 12.86139777985256 10.233158621929224 -23.571159280651056 0 0 0
964 0 2 1 12.788243649930624 13.07352206648749 -23.962652995713178 0 0 0
1349 0 1 -1 17.815810700452204 10.400179153917035 -23.96335927367208 0 0 0
293 0 1 -1 2.160432611090668 15.520106612554493 -23.80038825280905 0 0 0
677 0 1 -1 7.445002874480086 15.450061087126103 -23.900713919917177 0 0 0
289 0 2 1 20.342809876963273 15.678539577494474 -23.518361365354906 -1 0 0
5 0 1 -1 1.9859903123080667 20.484499674884162 -23.631770356465545 0 -1 0
292 0 2 1 2.346073282657795 18.24200681026248 -23.898030046476713 0 0 0
680 0 1 -1 4.776660290771027 18.0224246981183 -23.81146272342442 0 0 0
773 0 1 -1 12.933057009468369 20.491200433716067 -23.908023320707333 0 -1 0
1060 0 2 1 12.843222818238504 17.962227909747426 -23.742225601540678 0 0 0
296 0 1 -1 20.522866907143502 18.11731696427075 -23.654642938086354 -1 0 0
1444 0 2 1 18.018481904533665 18.18457632565071 -23.560912571883744 0 0 0
6 0 1 -1 2.0048164152334436 2.440157142305227 -19.43717628166772 0 0 0
3 0 2 1 1.959597626819272 -0.33655798121458474 -19.504844603243114 0 0 0
386 0 2 1 4.700460619234956 2.054942232496808 -19.441898513016113 0 0 0
390 0 1 -1 7.679569660813836 2.241132814731994 -19.87996227362762 0 0 0
774 0 1 -1 12.779159412772707 2.1209135665749574 -19.65493563331048 0 0 0
770 0 2 1 10.203694523808403 1.9059851810397568 -19.25573384309328 0 0 0
1154 0 2 1 15.381003390877902 2.2341422946975475 -19.25716467785835 0 0 0
1159 0 1 -1 15.434034578302679 -0.3268643855894433 -19.433061154649884 0 0 0
2 0 2 1 20.59740650248633 2.3809118173205044 -19.24614004091758 -1 0 0
7 0 1 -1 20.430015903223023 0.02872072811656845 -19.538753043763283 -1 0 0
1158 0 1 -1 17.930547912458064 2.4521547441840426 -19.106785310487243 0 0 0
1155 0 2 1 18.134720500936254 -0.21901286050498006 -18.944439787914483 0 0 0
99 0 2 1 2.220113323839562 5.112061435722026 -19.407305133657687 0 0 0
487 0 1 -1 4.75471543512104 5.058719773376684 -19.288901656457227 0 0 0
483 0 2 1 7.54338457051401 4.86707082826173 -20.076331816291102 0 0 0
871 0 1 -1 10.410054457934294 4.913520705588731 -19.66780735592791 0 0 0
867 0 2 1 12.891260303728673 4.75497557907219 -19.786557337536646 0 0 0
1255 0 1 -1 15.30946935556845 4.7367056204037805 -19.92575187393543 0 0 0
1251 0 2 1 17.842391355090708 4.813091030116322 -20.5048483369153 0 0 0
103 0 1 -1 20.643973743697156 5.263613750853057 -19.64052987433301 -1 0 0
102 0 1 -1 2.313264344769632 7.753687742858087 -19.533357997861565 0 0 0
482 0 2 1 4.85548281757839 7.500048427549957 -19.817892261649856 0 0 0
486 0 1 -1 7.336828958106301 7.643995856243418 -19.39390376746745 0 0 0
870 0 1 -1 12.893351699745178 7.295369801291583 -19.89864164118604 0 0 0
967 0 1 -1 10.256669387695446 9.994486225232356 -19.31690561785785 0 0 0
866 0 2 1 10.421417049025887 7.429029390747182 -19.338463840187764 0 0 0
963 0 2 1 12.70043258058436 10.117217728110294 -19.441501934854003 0 0 0
1250 0 2 1 15.737787119900204 7.25010460764155 -19.77186292824317 0 0 0
1254 0 1 -1 17.88266128595516 7.73173239295836 -20.25483352734342 0 0 0
98 0 2 1 20.60882225500347 7.76850546251284 -19.621903987560312 -1 0 0
1347 0 2 1 17.9001415481345 10.057405909441684 -19.620379835532415 0 0 0
195 0 2 1 1.8927787385656076 10.299131478268835 -19.73226069051987 0 0 0
198 0 1 -1 2.181503590597743 12.893273421931019 -19.513861077935633 0 0 0
578 0 2 1 4.556256782171515 12.43271733291426 -19.888730731391572 0 0 0
583 0 1 -1 4.885863959135439 10.19981372085479 -19.427422637812132 0 0 0
962 0 2 1 9.963459815995511 12.662583598834198 -19.631974572753492 0 0 0
582 0 1 -1 7.456719850355273 12.70619655099718 -19.57478662219224 0 0 0
579 0 2 1 7.430084057316899 10.259039307784278 -19.192466684756035 0 0 0
966 0 1 -1 12.73119413937093 12.890150672143532 -19.40523462792988 0 0 0
1346 0 2 1 15.588260600171946 12.804630499618245 -19.99960883114537 0 0 0
1351 0 1 -1 15.274494997015363 10.295226278687414 -19.597665463997295 0 0 0
194 0 2 1 20.51654149808376 12.821225169047946 -20.155236113429435 -1 0 0
1350 0 1 -1 18.02978575574321 13.036058721224144 -19.809483634692306 0 0 0
199 0 1 -1 20.532844017606525 10.29924115887279 -19.48932393455794 -1 0 0
291 0 2 1 2.4207809751186984 15.727620988320526 -19.788262980468044 0 0 0
679 0 1 -1 4.863114692538516 15.510969345069364 -19.469962338219382 0 0 0
675 0 2 1 7.540223970090066 15.481380516696623 -19.8021307545683 0 0 0
1063 0 1 -1 10.062622834969986 15.34819191431327 -19.536384452520718 0 0 0
1059 0 2 1 13.06756192584228 15.295179772395812 -19.149060760283497 0 0 0
1447 0 1 -1 15.568957712003984 15.288222686737678 -19.52417132610353 0 0 0
1443 0 2 1 18.098071226965484 15.672970136869507 -19.352091592492346 0 0 0
295 0 1 -1 20.718457667099344 15.390287168569824 -18.931129833112806 -1 0 0
294 0 1 -1 2.1664359647165856 18.21048231655095 -19.503011596129372 0 0 0
290 0 2 1 -0.1640973183986179 17.59891589130865 -19.322044636654663 0 0 0
391 0 1 -1 4.897074711598378 20.669248160231803 -19.5299516199848 0 -1 0
674 0 2 1 4.664957587831249 18.079037072719522 -19.149286822018897 0 0 0
387 0 2 1 7.889894953557391 20.601475219770897 -20.029528704124917 0 -1 0
678 0 1 -1 7.361510989385016 18.215212087114388 -19.9408235363478 0 0 0
1058 0 2 1 10.01171299919779 17.87667375325224 -19.862012944432788 0 0 0
775 0 1 -1 10.3947783022095 20.6609957758836 -20.067532536433582 0 -1 0
771 0 2 1 12.773479879431923 20.56152373410869 -19.56977051238551 0 -1 0
1062 0 1 -1 12.760217496516688 17.81059242446601 -19.55085409667035 0 0 0
1442 0 2 1 15.472774810999587 18.28243124347096 -19.52090547784034 0 0 0
1446 0 1 -1 18.19673832708999 17.921870537696627 -19.529414675300366 0 0 0
12 0 2 1 2.0541847251141574 2.5551712270921074 -14.830180330949991 0 0 0
400 0 1 -1 4.616011591314274 2.451451000947137 -15.23135527899147 0 0 0
393 0 2 1 5.190903454937519 -0.13809518721687555 -15.06520098817678 0 0 0
784 0 1 -1 10.139113392289335 2.41609129135349 -15.453238399285961 0 0 0
396 0 2 1 7.618767595362165 2.3144097430634707 -15.24202299329021 0 0 0
397 0 1 -1 7.43542304229605 -0.26101156018585536 -14.770645658022003 0 0 0
780 0 2 1 12.794793642256407 2.3820324391439405 -15.591268264685183 0 0 0
1168 0 1 -1 15.473208538290212 1.9748665764391657 -14.8978231159695 0 0 0
16 0 1 -1 20.70092182344242 2.4398983156360075 -14.820613470653964 -1 0 0
1164 0 2 1 17.921790838927535 2.611039985311924 -14.672646924368019 0 0 0
109 0 1 -1 2.067358135937128 5.269854926579278 -14.913125013373376 0 0 0
489 0 2 1 4.837840319374324 5.006271564879678 -14.742334953010515 0 0 0
493 0 1 -1 7.333787283875215 5.007540701776088 -15.293516649342086 0 0 0
873 0 2 1 10.121266131433213 5.059192888933724 -15.357400243479107 0 0 0
877 0 1 -1 13.014528702821153 4.692736129135147 -15.233185089766183 0 0 0
1257 0 2 1 15.816725454867516 4.879446712389566 -15.360661100401371 0 0 0
1261 0 1 -1 18.08219169099517 5.035733512633174 -14.537611797695096 0 0 0
105 0 2 1 20.618426392353545 5.278683451365318 -14.490529968202656 -1 0 0
108 0 2 1 2.088557109337083 8.018274133000572 -15.440514966416295 0 0 0
496 0 1 -1 4.578329970744015 7.681950322759409 -14.955617741772961 0 0 0
585 0 2 1 4.5391041652029 10.059849802149088 -15.09211843182089 0 0 0
492 0 2 1 7.519335907702582 7.480826285413822 -15.460717521297031 0 0 0
589 0 1 -1 7.567413011181447 10.138236745843278 -14.83720703331087 0 0 0
880 0 1 -1 10.004955075286434 7.398935192238877 -15.150736105898934 0 0 0
969 0 2 1 10.111863338809693 9.989283004526115 -14.982694769602677 0 0 0
876 0 2 1 13.098184187818934 7.0763013109711 -15.183689472315546 0 0 0
973 0 1 -1 12.607153215774606 9.882204810830574 -14.705940919374854 0 0 0
1264 0 1 -1 15.439654516040138 7.432070092740809 -14.728871433411772 0 0 0
112 0 1 -1 20.568268476929482 7.8728020320927055 -14.799453648847468 -1 0 0
201 0 2 1 20.646410249838286 10.157679121841756 -14.91181757631699 -1 0 0
1260 0 2 1 17.706406003497236 7.669538685702742 -14.308749874289688 0 0 0
205 0 1 -1 2.1037695093136937 10.495630288978468 -14.888435907295204 0 0 0
204 0 2 1 2.517834745437137 13.096425513188555 -15.065683016932454 0 0 0
592 0 1 -1 4.689853819796513 12.663437785248227 -15.052662711242206 0 0 0
588 0 2 1 7.641803392818254 12.595488081760994 -14.869581512199538 0 0 0
976 0 1 -1 10.057937271577256 12.721909695548675 -15.12762863255402 0 0 0
972 0 2 1 12.94113851990414 12.878920542626757 -15.03518523971642 0 0 0
1353 0 2 1 15.408756906875158 10.241326300965078 -14.584996884367486 0 0 0
1360 0 1 -1 15.3601640115421 12.949720806867706 -15.107601806104139 0 0 0
1356 0 2 1 17.903325767249907 12.879503979804488 -15.301739569748142 0 0 0
1357 0 1 -1 17.840714473040915 10.284005036285713 -14.99597279339099 0 0 0
208 0 1 -1 20.444901431871656 12.807189379936265 -14.883527680234401 -1 0 0
301 0 1 -1 2.3996760038461846 15.713192677081873 -14.988841494820457 0 0 0
297 0 2 1 0.023070014274806816 15.559409026617493 -14.763900109835209 0 0 0
681 0 2 1 4.818754557961903 15.171277954264296 -15.20764501798635 0 0 0
685 0 1 -1 7.515198713759438 15.31162091568336 -15.215988903092793 0 0 0
1065 0 2 1 9.911503645708475 15.53923124737144 -14.738701913256572 0 0 0
1069 0 1 -1 12.739097667141284 15.575102250396993 -14.47333500501345 0 0 0
1449 0 2 1 15.580734526598627 15.554371084933527 -14.742343420590885 0 0 0
1453 0 1 -1 18.018552036600497 15.664361561469748 -14.653109788740542 0 0 0
13 0 1 -1 2.6113209628282052 20.669684740109524 -15.079343085900534 0 -1 0
300 0 2 1 2.771877023293637 18.192516579204444 -15.018043346487776 0 0 0
304 0 1 -1 -0.22230980220304683 18.11895754333961 -15.131000918206126 0 0 0
688 0 1 -1 5.165149723862792 17.850551009626137 -14.99189645597091 0 0 0
684 0 2 1 7.44224254177004 18.12813613000477 -14.705080581386103 0 0 0
1072 0 1 -1 10.161524056534802 18.07028673117506 -14.823591597676312 0 0 0
781 0 1 -1 12.616274475071 20.431208311548858 -15.409599565985632 0 -1 0
1068 0 2 1 12.665902931656717 18.085999713766213 -15.257327102810677 0 0 0
777 0 2 1 10.275307569547058 20.599022612295464 -15.075149746197843 0 -1 0
1161 0 2 1 15.41282492327268 20.48763090080483 -15.094321330122666 0 -1 0
1456 0 1 -1 15.407476559233519 18.050630532066286 -15.014553389597934 0 0 0
9 0 2 1 20.477323649175347 20.45237620932393 -14.678711417892888 -1 -1 0
1165 0 1 -1 18.096776956742733 20.23889846918722 -14.709458080116896 0 -1 0
1452 0 2 1 18.212436832573943 17.89486724892776 -14.783441542527424 0 0 0
394 0 2 1 5.04008704395685 2.356280586805489 -10.825504913330837 0 0 0
398 0 1 -1 7.576180966238735 2.622937687689512 -11.116942527205389 0 0 0
783 0 1 -1 10.241975409379874 -0.17635179047208355 -11.014315268350174 0 0 0
778 0 2 1 10.455903333848157 2.386911984902426 -10.94388966486351 0 0 0
878 0 1 -1 12.742441092677021 7.306642437572032 -10.855367293118572 0 0 0
586 0 2 1 5.110674093183484 12.604085390391893 -10.9587144212186 0 0 0
970 0 2 1 10.45462434190868 12.764571526418601 -10.942020963790272 0 0 0
974 0 1 -1 12.832191609492437 12.77396922513948 -10.959307002872055 0 0 0
202 0 2 1 20.684504816585775 12.659066544775003 -10.892491362381305 -1 0 0
14 0 1 -1 2.1817380106981012 2.5228334860008754 -10.171475660013453 0 0 0
399 0 1 -1 5.004678032336766 -0.10562260878849133 -9.969168160369575 0 0 0
395 0 2 1 7.826766105698937 -0.29785241708764165 -10.685607816842206 0 0 0
782 0 1 -1 12.821398867260424 2.166147849201341 -10.429593188591026 0 0 0
779 0 2 1 12.92311076660835 -0.19616642435693288 -10.190741744520173 0 0 0
1162 0 2 1 15.411527595668767 2.2527685569946927 -10.471471437753674 0 0 0
1167 0 1 -1 15.488622610870706 -0.24635814968231765 -10.380687093360745 0 0 0
10 0 2 1 20.54129307400915 2.264729144762951 -10.286873141725977 -1 0 0
1166 0 1 -1 18.105129874966643 2.4411809480039977 -10.471436344915407 0 0 0
107 0 2 1 2.358392912892904 5.23269493687611 -10.362262451697559 0 0 0
495 0 1 -1 4.983813932083262 4.9213081528815215 -10.423801218543783 0 0 0
491 0 2 1 7.569771305919673 4.959157226176058 -10.11662868409309 0 0 0
879 0 1 -1 10.154620673008065 4.932247329601762 -10.752470992914201 0 0 0
875 0 2 1 12.855686418088698 4.689154761544555 -10.486881805780252 0 0 0
1263 0 1 -1 15.43715322264698 4.694675900612698 -9.982369285711824 0 0 0
111 0 1 -1 20.49690673614564 5.282667204800915 -10.137146927095056 -1 0 0
1259 0 2 1 18.11034997955833 4.90530016413663 -10.520115691477502 0 0 0
110 0 1 -1 2.3498062063240788 7.522030313745245 -10.156824941315683 0 0 0
203 0 2 1 2.019917351659952 10.075077474110108 -10.512313065384124 0 0 0
106 0 2 1 -0.21438665338139104 7.681620606534453 -9.908797807028648 0 0 0
490 0 2 1 5.3024231474615915 7.828113610965403 -10.14894148706513 0 0 0
494 0 1 -1 7.59374899494076 7.4476833469135775 -10.520683547673764 0 0 0
874 0 2 1 10.056256894852355 7.503911280931909 -10.508687369377451 0 0 0
975 0 1 -1 10.084749841462253 10.115697874010605 -10.691857658636872 0 0 0
587 0 2 1 7.336292037380107 10.075243026993089 -10.636011875340367 0 0 0
971 0 2 1 13.072237481106074 10.090843750973384 -10.625471255821408 0 0 0
1258 0 2 1 15.264629978818885 7.16117153339999 -10.304939330691699 0 0 0
1359 0 1 -1 15.426862824992021 10.06711989950498 -10.659835431619843 0 0 0
1262 0 1 -1 17.910084524199416 7.6188006872320875 -10.430585343151247 0 0 0
1355 0 2 1 17.82435634124393 9.98665033421144 -10.364397949538148 0 0 0
206 0 1 -1 2.2718712861968817 12.928640787916589 -10.21341516909657 0 0 0
591 0 1 -1 5.059576931998242 10.196959857021454 -10.327844611559128 0 0 0
590 0 1 -1 7.569588100444088 13.1287695682218 -10.544688539539548 0 0 0
1354 0 2 1 15.510718783590253 12.992370809721717 -10.569801548767323 0 0 0
207 0 1 -1 20.636745236331574 10.33544363920239 -10.57432072332171 -1 0 0
1358 0 1 -1 17.87710396212484 12.719982229294391 -9.937634221567965 0 0 0
299 0 2 1 2.195398077506658 15.362317563081541 -10.229585521427097 0 0 0
303 0 1 -1 -0.16558259607147388 15.488807983413762 -10.017856625710003 0 0 0
687 0 1 -1 4.763641990477715 15.384805820528527 -10.394413158021914 0 0 0
683 0 2 1 7.57084411580309 15.548118447998238 -10.208012210836532 0 0 0
1071 0 1 -1 10.022868855274163 15.73871541757053 -10.259580080317217 0 0 0
1067 0 2 1 12.673436320081995 15.50641373190122 -10.38076452434937 0 0 0
1455 0 1 -1 15.053582124546383 15.183921804763326 -10.090697538947929 0 0 0
1451 0 2 1 17.745966034201576 15.04081556179455 -10.084426940032046 0 0 0
11 0 2 1 2.3888341329919958 20.660889549591325 -10.53985639285525 0 -1 0
302 0 1 -1 2.3626558759978034 18.240569119395296 -10.53435746292002 0 0 0
298 0 2 1 0.04415626038692089 18.01183035735663 -10.413972204967186 0 0 0
682 0 2 1 5.109340992728222 18.00215098379065 -10.5221649924853 0 0 0
686 0 1 -1 7.379048623639656 18.214700040677215 -10.295014685666295 0 0 0
1066 0 2 1 10.37192080846905 18.248509998229864 -10.45686040245406 0 0 0
1070 0 1 -1 12.923112169002211 18.366656197956523 -9.956303635494432 0 0 0
1450 0 2 1 15.35527106553127 17.80094733668779 -10.27030589692437 0 0 0
15 0 1 -1 20.71094789327377 20.66240183629248 -10.55502932186744 -1 -1 0
1163 0 2 1 18.06430186418532 20.489771965116958 -10.629928802558128 0 -1 0
1454 0 1 -1 18.19091942842093 18.088002629091285 -10.124237621232188 0 0 0
20 0 2 1 1.8780614857297033 2.507951117755586 -6.015062356447846 0 0 0
408 0 1 -1 4.872901922787093 2.4983901120684617 -5.566683208888598 0 0 0
401 0 2 1 5.247360042727298 -0.1340512719308046 -5.730666971808688 0 0 0
404 0 2 1 7.599363310800285 2.5452791254150195 -5.924509500532626 0 0 0
792 0 1 -1 10.112033935341548 2.5732015907202084 -6.349206299643402 0 0 0
405 0 1 -1 7.598760464154986 -0.03242439273755138 -6.159176246703858 0 0 0
788 0 2 1 12.490795020470227 2.3045311599830414 -5.4848735981236665 0 0 0
789 0 1 -1 12.706065161773653 -0.019856053383654093 -5.611452246370586 0 0 0
1176 0 1 -1 15.248890090678112 2.3425551539427842 -5.906413244719893 0 0 0
24 0 1 -1 20.56169366261747 2.3760729876011064 -6.23643284890489 -1 0 0
1172 0 2 1 18.117715835222885 2.4994349740286337 -5.569077188017637 0 0 0
1173 0 1 -1 18.12470280064432 -0.29260111065866307 -5.658525625904513 0 0 0
117 0 1 -1 2.2277944446181883 5.074807186504146 -5.901209524025507 0 0 0
113 0 2 1 -0.3252941846240789 5.23463264249532 -5.966028276407943 0 0 0
497 0 2 1 4.708910088261553 4.982544446896267 -5.985381365645381 0 0 0
501 0 1 -1 7.705350873192634 5.031740963821657 -5.919611036270606 0 0 0
881 0 2 1 10.244310739532285 4.874161585788435 -6.310613290441964 0 0 0
885 0 1 -1 12.803017363097242 5.02156513958144 -5.848406843899365 0 0 0
1265 0 2 1 15.571852126222765 4.590105026098414 -5.729307045087413 0 0 0
1269 0 1 -1 18.017205474904713 4.936356191112345 -5.609816279518213 0 0 0
116 0 2 1 2.4634826476770275 7.759389078900346 -6.052528362906891 0 0 0
120 0 1 -1 -0.33366308517998217 7.7406259941587585 -5.8692026528738275 0 0 0
504 0 1 -1 4.965674739411692 7.548082823502662 -6.282975068503308 0 0 0
500 0 2 1 7.593097106961993 7.299903181218428 -6.008612608659885 0 0 0
888 0 1 -1 10.1844157095424 7.552336844286122 -5.942975653681987 0 0 0
884 0 2 1 13.110270786602586 7.398993772315079 -6.25838065163844 0 0 0
981 0 1 -1 12.798322922744628 9.971641114273323 -5.824951623067893 0 0 0
1272 0 1 -1 15.459696122241464 7.69283138427631 -5.971085340693204 0 0 0
1268 0 2 1 18.137639024806013 7.398477078208964 -5.76644144079097 0 0 0
1365 0 1 -1 17.987998916062146 9.823664560885529 -5.4321563800337636 0 0 0
213 0 1 -1 2.420617244185399 10.32344495263765 -5.789527187046083 0 0 0
212 0 2 1 2.6309338545845846 12.873986321155025 -6.050143579789356 0 0 0
216 0 1 -1 -0.2480240655107912 12.530879116837118 -6.099132949118516 0 0 0
593 0 2 1 4.961670649601657 10.33926015979217 -5.89172999673934 0 0 0
600 0 1 -1 5.223926085768384 12.763860437712784 -5.9539346242373625 0 0 0
597 0 1 -1 7.757992481778768 10.267381801297597 -5.818778407246718 0 0 0
596 0 2 1 7.5073106283587165 12.649491592768625 -6.098530628803715 0 0 0
984 0 1 -1 9.952928065466372 12.624328808817975 -6.051870766946699 0 0 0
977 0 2 1 10.224776463321122 10.17912783315581 -6.233858540122704 0 0 0
980 0 2 1 12.880421174281981 12.51693811073696 -5.8533582859571 0 0 0
1361 0 2 1 15.27944075365463 10.234277827404291 -5.833740057961251 0 0 0
1368 0 1 -1 15.288495055508303 12.713806778801295 -5.853566171090886 0 0 0
209 0 2 1 20.720678832803024 10.30996641737251 -5.640198034116921 -1 0 0
1364 0 2 1 18.261928305488137 12.666530256800488 -5.645817774886833 0 0 0
309 0 1 -1 2.572255603063213 15.406663875246055 -5.732969680768267 0 0 0
689 0 2 1 4.956822709797983 15.278278527409906 -5.474929132773003 0 0 0
693 0 1 -1 7.477093397171181 15.21410953139727 -5.800195654346222 0 0 0
1073 0 2 1 10.03657178639202 15.173897287180333 -6.030840067522078 0 0 0
1077 0 1 -1 12.455807705340051 15.467084827156938 -6.050025552089831 0 0 0
1457 0 2 1 14.953323590951914 15.349272265909242 -5.770711956784847 0 0 0
305 0 2 1 20.503950749490922 15.468170970200203 -5.781838811524793 -1 0 0
1461 0 1 -1 18.28765271170718 15.239026865465156 -5.931021931763588 0 0 0
21 0 1 -1 2.217042693745864 20.598234902337005 -6.1279539971571495 0 -1 0
308 0 2 1 2.6796362383641497 18.240641859789065 -5.891231220092553 0 0 0
312 0 1 -1 -0.3744387926478168 17.983114772779082 -5.649218631045009 0 0 0
696 0 1 -1 5.073381296994177 17.905823878286107 -5.430504012985516 0 0 0
785 0 2 1 10.066475674382978 20.636933417623176 -6.449740437775944 0 -1 0
692 0 2 1 7.437228778558399 18.298032287449466 -5.829006151780138 0 0 0
1080 0 1 -1 10.139682570465997 18.127366329516356 -6.170917278666884 0 0 0
1076 0 2 1 12.54464735728724 17.895188847879922 -5.902533816535431 0 0 0
1169 0 2 1 15.46860084696718 20.652761238333248 -5.66415781069632 0 -1 0
1464 0 1 -1 15.51362734775437 17.665188832149276 -5.27825383736041 0 0 0
17 0 2 1 20.69904185670796 20.610053602642488 -6.138364254840571 -1 -1 0
1460 0 2 1 18.200378470418602 17.656531151431885 -5.882877507819593 0 0 0
19 0 2 1 2.349793447456194 -0.34484439674597983 -1.5638217802135657 0 0 0
22 0 1 -1 2.1152567025943427 2.3190014255951437 -0.9090821266456928 0 0 0
402 0 2 1 4.724147477480995 2.4541271513077976 -1.4725275903539163 0 0 0
406 0 1 -1 7.735705185883665 2.3134109770362254 -1.2811494168470539 0 0 0
786 0 2 1 10.033623567377033 2.5954505677957638 -1.478351259116998 0 0 0
791 0 1 -1 10.019267688201776 -0.2967743311647613 -1.1711632900882094 0 0 0
403 0 2 1 7.6549569679307226 -0.05104084436421302 -1.1799932535069289 0 0 0
787 0 2 1 12.401032012111111 -0.18536329836553334 -1.3894374908434202 0 0 0
790 0 1 -1 12.678913120092345 2.137945975820228 -1.015353863721888 0 0 0
1170 0 2 1 15.182719538576656 2.3066048201304703 -1.654519995420781 0 0 0
1175 0 1 -1 15.632507276537993 -0.1546085915501244 -1.3206639574040473 0 0 0
18 0 2 1 20.64942252701429 2.2966261050724674 -1.7352018915758123 -1 0 0
1174 0 1 -1 18.292154996276878 2.491871924239323 -1.3121845153508076 0 0 0
1171 0 2 1 17.99876747090056 -0.10746592676272135 -1.238984094077619 0 0 0
23 0 1 -1 20.700390436813002 0.005524739928339684 -1.3780229583581018 -1 0 0
115 0 2 1 2.084734092513522 4.923332283954099 -1.583304586235272 0 0 0
119 0 1 -1 -0.263286116782243 5.1544500981587795 -1.4971716224054532 0 0 0
503 0 1 -1 4.835211027926207 5.085513480212157 -1.551055134535499 0 0 0
499 0 2 1 7.407589237307777 5.31094082744326 -1.350632176764119 0 0 0
887 0 1 -1 10.154021316203805 4.94655363060546 -1.7496499894627533 0 0 0
883 0 2 1 12.614702017852379 5.082143905797369 -1.1757471599697915 0 0 0
1271 0 1 -1 15.152060634593223 4.743610669269244 -1.1348476829843115 0 0 0
1267 0 2 1 17.618234153883193 4.94527230931316 -1.0822589107105216 0 0 0
118 0 1 -1 2.373813725133667 7.595780753772811 -1.6794500832710497 0 0 0
211 0 2 1 2.381301271522553 9.993222553194707 -0.9600869051150482 0 0 0
498 0 2 1 4.8969942671798785 7.6411761804577045 -1.5741639055240029 0 0 0
502 0 1 -1 7.641938433744226 7.624386647364579 -1.4613127385443185 0 0 0
595 0 2 1 7.5854653111211325 10.137260102905682 -1.5387945816913202 0 0 0
882 0 2 1 10.192604839808112 7.735497135816022 -1.192381756183181 0 0 0
886 0 1 -1 12.932322937547207 7.565979255135774 -1.0895749182868997 0 0 0
983 0 1 -1 10.405811254289013 10.097227001828902 -1.595613984850793 0 0 0
114 0 2 1 20.378181445239473 7.503150131584304 -1.4612655307196682 -1 0 0
1270 0 1 -1 18.027321645355883 7.607075183960903 -1.3331670368400808 0 0 0
214 0 1 -1 2.355265040749836 12.770724543060334 -1.5222424019966496 0 0 0
210 0 2 1 -0.3764145104177953 12.652115092351586 -1.7462323788336604 0 0 0
599 0 1 -1 4.895210516453993 10.244287231488636 -1.4582501914588306 0 0 0
594 0 2 1 4.982190769170281 12.711087937279908 -1.464361881967065 0 0 0
598 0 1 -1 7.56558115122362 12.543528153253797 -0.9109611274196183 0 0 0
979 0 2 1 13.021155229516598 10.27661111452919 -1.4270019144003925 0 0 0
978 0 2 1 10.246203967592074 12.568905004273665 -1.4307328774518204 0 0 0
982 0 1 -1 12.811974183876824 12.769187197029641 -1.4151817646610496 0 0 0
1367 0 1 -1 15.419761311296929 10.449185602785947 -1.203179102949587 0 0 0
1362 0 2 1 15.37648588854823 12.976798406174067 -1.4630576505716135 0 0 0
1363 0 2 1 18.088356538431192 10.284431238407466 -1.4320885058904693 0 0 0
1366 0 1 -1 18.148489243440224 12.670258511193554 -1.3134211224143826 0 0 0
215 0 1 -1 20.695814316663746 10.286258312579784 -1.0173845869506835 -1 0 0
307 0 2 1 2.456979830793665 15.313609771297553 -1.4787890270281707 0 0 0
311 0 1 -1 -0.18912193190850057 15.285057673631973 -1.2483238076047378 0 0 0
695 0 1 -1 5.164147964613635 15.436735895486734 -0.8690857755657682 0 0 0
691 0 2 1 7.70145071777336 15.203085456817444 -1.240094143549026 0 0 0
1079 0 1 -1 10.235452873991466 15.311019447205668 -1.2816495177223395 0 0 0
1075 0 2 1 12.457667696102101 15.211756195171555 -0.9682478601759996 0 0 0
1463 0 1 -1 15.045414076153909 15.332271839478638 -1.2345235301922806 0 0 0
1459 0 2 1 18.57782134430366 15.435019328002065 -1.1396579037075405 0 0 0
306 0 2 1 -0.10991184783606217 17.95782034454185 -1.3730427013007223 0 0 0
407 0 1 -1 4.966054639955878 20.565130604052435 -1.4516348284587544 0 -1 0
694 0 1 -1 7.74418053927455 18.23466820730909 -1.8991408054788934 0 0 0
1074 0 2 1 10.199856926339013 17.943502578411355 -1.237512804886535 0 0 0
1078 0 1 -1 12.663267680186493 17.977483258956404 -1.2732518438934726 0 0 0
1458 0 2 1 15.80053114457268 17.81840911781157 -1.0733327484673687 0 0 0
1462 0 1 -1 18.30944706639038 17.86258091842268 -1.5680855622278642 0 0 0
1266 0 2 1 15.248499239168886 7.375334850264742 -0.8391967113806835 0 0 0
310 0 1 -1 2.3443654569471484 18.171223694753984 -0.8428364285306422 0 0 0
690 0 2 1 5.5425418100015005 17.90101407349011 -0.6100204290424251 0 0 0
28 0 2 1 2.367952694879064 2.1500154668711513 3.198196291596023 0 0 0
29 0 1 -1 2.18344642662843 -0.25231721414807873 3.346542044129638 0 0 0
416 0 1 -1 4.838622696078932 2.268795537451675 2.8966526810705417 0 0 0
800 0 1 -1 9.985447906628726 2.259618175152604 2.8759846268881795 0 0 0
412 0 2 1 7.481563275769138 2.461623218116518 3.4310393932849657 0 0 0
793 0 2 1 9.778104395050153 -0.19366648120517727 3.5288634342143474 0 0 0
797 0 1 -1 12.796112177643558 -0.3057663525417819 3.5106277448787964 0 0 0
796 0 2 1 12.656113308999787 2.1983219002493914 3.310861205372415 0 0 0
1184 0 1 -1 15.475834171891385 2.40006070560523 3.3576533874142136 0 0 0
1177 0 2 1 15.576433052324461 -0.24345018267789603 3.5638454129586634 0 0 0
25 0 2 1 20.533993410669048 0.021694703898675838 2.7905130366617925 -1 0 0
32 0 1 -1 20.705990670521402 2.457455552463339 3.4981250463381883 -1 0 0
1180 0 2 1 18.097698510831272 2.5490517873647627 3.458686864433467 0 0 0
1181 0 1 -1 18.054875882682552 -0.010176118446489857 3.3157826476894563 0 0 0
121 0 2 1 -0.3442091151432769 5.111436435513643 2.912981995379795 0 0 0
125 0 1 -1 2.2391194662242184 4.704436977630329 3.506987686616668 0 0 0
505 0 2 1 4.723914390763916 5.0012776832377615 2.880873249623601 0 0 0
509 0 1 -1 7.368347982277704 5.104226415582613 2.9801130878363864 0 0 0
889 0 2 1 10.276813636010946 4.90030179450268 3.200426408067841 0 0 0
893 0 1 -1 12.833636203481545 5.199120700611116 3.4041184622539973 0 0 0
1273 0 2 1 15.487898978842948 4.912843567741249 3.697139093033279 0 0 0
1277 0 1 -1 18.441341437703066 4.941258181600554 3.18736177344406 0 0 0
124 0 2 1 2.191810940600577 7.805720508328941 3.0037384962741136 0 0 0
512 0 1 -1 4.767615881614913 7.784989440682709 3.0172082715070836 0 0 0
601 0 2 1 4.788356447645864 10.158199540039396 3.1522779240357224 0 0 0
508 0 2 1 7.408536711030319 7.83511287183522 3.2253591802427692 0 0 0
896 0 1 -1 10.208905598520515 7.446389880248167 3.555974050860904 0 0 0
892 0 2 1 13.016124584154994 7.570180793698199 3.828681205652476 0 0 0
989 0 1 -1 12.999878206220487 10.14196804181895 3.497061247429869 0 0 0
985 0 2 1 10.64669153618437 10.089642771806885 3.670431279848831 0 0 0
1280 0 1 -1 15.598202565423241 7.4333278198897474 3.68307961807065 0 0 0
128 0 1 -1 20.599296005184556 7.75848496735493 3.415256210020253 -1 0 0
1276 0 2 1 18.06187649027854 7.289080874409978 3.591134341738748 0 0 0
221 0 1 -1 2.14320775413937 10.215386055348965 3.0713285899112535 0 0 0
220 0 2 1 2.458605519635193 12.52895441614113 2.6853753852743196 0 0 0
224 0 1 -1 -0.11632063728300485 12.869080758860656 3.2340499744372195 0 0 0
608 0 1 -1 4.825589208137244 12.729854650967043 3.377188277770024 0 0 0
604 0 2 1 7.562807527852958 12.709612768697415 3.0962175983969225 0 0 0
605 0 1 -1 7.641454305954296 10.252027039606569 3.0789720516115757 0 0 0
992 0 1 -1 10.310971440854189 12.794448572491007 3.1496932859238314 0 0 0
988 0 2 1 12.919671574700605 12.923772473439904 3.6382863882735883 0 0 0
1369 0 2 1 15.583088099102907 10.25032967057438 3.6180985293843797 0 0 0
1376 0 1 -1 15.367602075880242 12.946579271305282 3.5212622864203276 0 0 0
217 0 2 1 20.66013258034971 10.198657432467058 3.1322686445421013 -1 0 0
1373 0 1 -1 17.90070112890847 10.259056531176617 2.982462026351179 0 0 0
1372 0 2 1 18.232187070317487 12.980564529885825 3.483438970094756 0 0 0
313 0 2 1 0.05899465574427892 15.464913345610677 3.20904207558214 0 0 0
317 0 1 -1 2.435481834903247 15.349610910742976 3.1402509005385646 0 0 0
697 0 2 1 4.931936282320296 15.273170394240399 2.9563634312639984 0 0 0
701 0 1 -1 7.5978385014258425 15.45448468371683 3.373102685569151 0 0 0
1081 0 2 1 10.05421450713435 15.216726131961341 3.6544523409676586 0 0 0
1085 0 1 -1 12.823623961792215 15.491659965877464 3.506306560884255 0 0 0
1465 0 2 1 15.44006877327477 15.405993584283388 3.0253285462296695 0 0 0
1469 0 1 -1 18.226382812203077 15.48802009828862 3.0757056949900203 0 0 0
320 0 1 -1 -0.08660622149773639 17.905416695084917 3.4177711497824497 0 0 0
316 0 2 1 2.179403000890226 18.281649671480345 3.451237164069042 0 0 0