LAMMPS (29 Sep 2021 - Update 3)
OMP_NUM_THREADS environment is not set. Defaulting to 1 thread. (src/comm.cpp:98)
  using 1 OpenMP thread(s) per MPI task
units	metal
atom_style	full

read_data	mixed.data
Reading data file ...
  orthogonal box = (0.0000000 0.0000000 0.0000000) to (14.934386 14.958024 69.402279)
  1 by 2 by 8 MPI processor grid
  reading atoms ...
  864 atoms
Finding 1-2 1-3 1-4 neighbors ...
  special bond factors lj:    0        0        0       
  special bond factors coul:  0        0        0       
     0 = max # of 1-2 neighbors
     0 = max # of 1-3 neighbors
     0 = max # of 1-4 neighbors
     1 = max # of special neighbors
  special bonds CPU = 0.001 seconds
  read_data CPU = 0.023 seconds

pair_style	quip
pair_coeff	* * /ocean/projects/cts180021p/wuziqi/clease/mint-PD/PhaseDiagram-Clease/Liquid/GAP_potential/gap_LiKCl.xml "Potential xml_label=GAP_2021_9_27_0_1_17_37_618" 17 3

neighbor	0.3 bin
neigh_modify	delay 10

timestep	0.001
compute	msd all msd
thermo_style	custom step temp pe etotal press vol c_msd[4]
thermo	10
dump	1 all custom 10 xyz-mix.dump type id x y z
dump	2 all custom 10 force-mix.dump type id fx fy fz

fix     1 all nve
run     2000
Neighbor list info ...
  update every 1 steps, delay 10 steps, check yes
  max neighbors/atom: 2000, page size: 100000
  master list distance cutoff = 6.22
  ghost atom cutoff = 6.22
  binsize = 3.11, bins = 5 5 23
  1 neighbor lists, perpetual/occasional/extra = 1 0 0
  (1) pair quip, perpetual
      attributes: full, newton on
      pair build: full/bin
      stencil: full/bin/3d
      bin: standard
Per MPI rank memory allocation (min/avg/max) = 8.899 | 8.909 | 8.915 Mbytes
Step Temp PotEng TotEng Press Volume c_msd[4] 
       0            0   -6172.5374   -6172.5374   -7082.6594    15503.698            0 
      10     119.0518   -6185.8373   -6172.5569    -9934.496    15503.698 0.0010071496 
      20    261.33204   -6201.7236   -6172.5716   -11295.094    15503.698  0.011565216 
      30    255.25791   -6201.0293   -6172.5549   -7123.0934    15503.698  0.034561857 
      40    264.42457   -6202.0531   -6172.5561   -5862.3924    15503.698  0.056650094 
      50    312.68329   -6207.4417   -6172.5614   -8677.8799    15503.698  0.070921244 
      60    325.67352   -6208.8908   -6172.5615   -10844.072    15503.698  0.082468217 
      70    295.31701      -6205.5    -6172.557   -10469.186    15503.698  0.097559999 
      80     271.8645   -6202.8841   -6172.5572   -9026.4225    15503.698   0.11664668 
      90    265.91321   -6202.2182   -6172.5552   -8317.7174    15503.698   0.13792772 
     100     287.1964   -6204.5961   -6172.5589   -8346.2512    15503.698   0.15949482 
     110    302.68865   -6206.3257   -6172.5603   -7330.7252    15503.698   0.18154576 
     120    297.65715   -6205.7608   -6172.5567   -6310.0558    15503.698   0.20233128 
     130     308.5729   -6206.9825   -6172.5607   -7014.1109    15503.698   0.21603749 
     140    308.49663   -6206.9739   -6172.5606   -8254.7053    15503.698   0.22639086 
     150    300.11731   -6206.0386   -6172.5601   -9257.3775    15503.698   0.23678646 
     160    287.85788   -6204.6691   -6172.5581   -9955.8958    15503.698   0.24792738 
     170    289.66466   -6204.8731   -6172.5606   -10583.255    15503.698   0.25945006 
     180    289.75654   -6204.8819   -6172.5591   -10712.363    15503.698    0.2718679 
     190    295.13609   -6205.4836   -6172.5607   -10488.456    15503.698   0.28444874 
     200    294.99607   -6205.4677   -6172.5604   -10129.942    15503.698   0.29609877 
     210    286.95916   -6204.5707     -6172.56   -9663.0674    15503.698   0.30649264 
     220    275.72988   -6203.3179   -6172.5599   -9177.9183    15503.698   0.31608118 
     230    270.50861   -6202.7358   -6172.5602   -8672.5656    15503.698   0.32607004 
     240     272.7294   -6202.9827   -6172.5593   -8853.0275    15503.698   0.33522232 
     250    279.60122   -6203.7491   -6172.5591   -10041.178    15503.698   0.34187187 
     260    292.08827   -6205.1435   -6172.5606   -11551.724    15503.698   0.34819423 
     270    296.23245   -6205.6053   -6172.5602   -12576.966    15503.698   0.35504368 
     280    290.59525   -6204.9758   -6172.5595   -13159.977    15503.698   0.36200476 
     290    286.39853   -6204.5075   -6172.5593   -12930.633    15503.698   0.36806237 
     300    285.16596    -6204.371   -6172.5603    -12383.94    15503.698   0.37260207 
     310     276.3618   -6203.3874   -6172.5589   -11854.298    15503.698   0.37624334 
     320    275.40717   -6203.2805   -6172.5584   -11896.916    15503.698   0.38034324 
     330    285.09748   -6204.3645   -6172.5614   -12353.811    15503.698   0.38651832 
     340      285.616    -6204.421   -6172.5601   -12511.793    15503.698   0.39499421 
     350    284.89791    -6204.341   -6172.5602   -12689.242    15503.698   0.40459174 
     360    282.95249   -6204.1225   -6172.5588   -13170.846    15503.698   0.41246598 
     370     288.0353   -6204.6912   -6172.5604   -13564.963    15503.698   0.41769002 
     380    287.28249    -6204.606   -6172.5592   -13378.283    15503.698   0.42278811 
     390    286.02871   -6204.4671   -6172.5602   -13125.251    15503.698   0.42882483 
     400    278.58412   -6203.6357   -6172.5592   -12733.019    15503.698   0.43546846 
     410    278.85156   -6203.6642   -6172.5579   -12725.177    15503.698   0.44118431 
     420    295.44173    -6205.519   -6172.5621   -12919.137    15503.698   0.44580202 
     430    288.38426     -6204.73   -6172.5603   -12292.067    15503.698   0.45184932 
     440     275.0948   -6203.2448   -6172.5576   -11576.148    15503.698    0.4597765 
     450    284.42439   -6204.2884   -6172.5604   -11635.475    15503.698   0.46872177 
     460    290.54397   -6204.9708   -6172.5602   -11458.018    15503.698   0.47890159 
     470    292.27935   -6205.1639   -6172.5597   -11047.279    15503.698   0.48981965 
     480    296.29192   -6205.6126   -6172.5608    -11053.89    15503.698   0.50144177 
     490    293.83397   -6205.3377   -6172.5601   -10910.875    15503.698   0.51477503 
     500    290.42176   -6204.9561   -6172.5592   -10882.616    15503.698   0.52864067 
     510    294.71216   -6205.4358   -6172.5602   -11048.423    15503.698   0.54096764 
     520    300.63857   -6206.0957    -6172.559   -11015.275    15503.698   0.55107936 
     530    313.42009   -6207.5237   -6172.5612   -10936.323    15503.698   0.55907812 
     540    312.92089   -6207.4677   -6172.5609   -10452.207    15503.698   0.56684223 
     550    300.99117   -6206.1344   -6172.5584   -9517.9446    15503.698   0.57402283 
     560    302.90044   -6206.3497   -6172.5607   -8993.9278    15503.698   0.57911723 
     570    299.50947   -6205.9709   -6172.5601   -8662.1184    15503.698   0.58313152 
     580    295.81191   -6205.5583     -6172.56   -8542.5542    15503.698   0.58726222 
     590    298.86152   -6205.8988   -6172.5604   -8965.8336    15503.698   0.59231809 
     600    300.33785   -6206.0635   -6172.5604   -9037.6184    15503.698   0.59853829 
     610    299.59534   -6205.9801   -6172.5598   -8371.2403    15503.698   0.60481665 
     620    303.65017   -6206.4328   -6172.5602   -7934.1068    15503.698   0.60844579 
     630     310.3803   -6207.1838   -6172.5604   -7992.0375    15503.698    0.6082619 
     640    314.29708   -6207.6215   -6172.5612   -8062.2161    15503.698   0.60580975 
     650    306.12162   -6206.7094   -6172.5611   -7405.6951    15503.698   0.60391606 
     660    291.75553   -6205.1049   -6172.5592   -6325.4283    15503.698    0.6045726 
     670    291.74021   -6205.1042   -6172.5602   -5867.2382    15503.698   0.60858321 
     680    296.82247   -6205.6718   -6172.5608   -6353.8899    15503.698   0.61618731 
     690    294.97725   -6205.4661   -6172.5609   -6662.3101    15503.698   0.62550238 
     700    286.97788    -6204.572   -6172.5592   -6616.0858    15503.698   0.63468815 
     710    286.63209   -6204.5347   -6172.5604   -6895.7828    15503.698   0.64319605 
     720    286.56031   -6204.5259   -6172.5596   -7285.3623    15503.698   0.65049549 
     730    293.20359   -6205.2674   -6172.5601   -7851.0094    15503.698   0.65568367 
     740    300.27034   -6206.0564   -6172.5608    -8274.995    15503.698   0.65946026 
     750    300.05685   -6206.0319   -6172.5601   -8184.0951    15503.698   0.66343273 
     760    299.10417   -6205.9256   -6172.5601   -8091.5591    15503.698   0.66885484 
     770    298.48137   -6205.8564   -6172.5604   -8384.8598    15503.698   0.67752626 
     780    296.34645   -6205.6175   -6172.5596   -8914.1283    15503.698   0.69090215 
     790     300.5212   -6206.0841   -6172.5605   -9695.9101    15503.698   0.70830553 
     800    302.31484   -6206.2847    -6172.561   -9986.7534    15503.698   0.72733815 
     810    294.97177   -6205.4649   -6172.5603   -9788.8775    15503.698   0.74437354 
     820     293.9212   -6205.3466   -6172.5592   -10145.009    15503.698   0.75557997 
     830    306.06744   -6206.7043    -6172.562   -11121.711    15503.698   0.76034898 
     840    304.44992   -6206.5222   -6172.5604   -11386.671    15503.698   0.76099165 
     850    301.98739    -6206.247   -6172.5598   -11215.463    15503.698   0.75927071 
     860    307.80247   -6206.8965   -6172.5607   -11228.553    15503.698   0.75750628 
     870    309.83215   -6207.1239   -6172.5617   -11151.874    15503.698   0.75886791 
     880    299.41573   -6205.9598   -6172.5595   -10730.834    15503.698   0.76520132 
     890    300.36042   -6206.0655   -6172.5598    -10683.96    15503.698   0.77522034 
     900    311.77593   -6207.3403   -6172.5613   -10758.155    15503.698   0.78644376 
     910    315.99675   -6207.8108   -6172.5609   -10638.959    15503.698   0.79743278 
     920    314.15059    -6207.605    -6172.561   -10767.654    15503.698   0.80852246 
     930    307.53752    -6206.867   -6172.5608    -10698.33    15503.698   0.82057803 
     940     303.9545   -6206.4657   -6172.5591   -10673.594    15503.698   0.83272237 
     950    315.55545   -6207.7625   -6172.5618   -10985.253    15503.698   0.84367931 
     960    314.10987   -6207.6014   -6172.5619   -10894.557    15503.698   0.85299466 
     970    301.16419   -6206.1543    -6172.559   -10416.525    15503.698   0.85903246 
     980     308.2504   -6206.9471   -6172.5613   -10639.037    15503.698   0.86167882 
     990    312.94011   -6207.4711   -6172.5622   -11165.921    15503.698    0.8636759 
    1000    301.96747   -6206.2445   -6172.5596   -11241.512    15503.698   0.86586818 
    1010    300.61614   -6206.0948   -6172.5606   -11044.825    15503.698   0.86653935 
    1020    302.77876   -6206.3368   -6172.5614   -10173.016    15503.698   0.86594544 
    1030    299.21901   -6205.9387   -6172.5604   -9568.0249    15503.698   0.86577348 
    1040    303.27626   -6206.3913   -6172.5604   -9668.3301    15503.698   0.86795209 
    1050    311.27436   -6207.2857   -6172.5626   -9746.7712    15503.698   0.87468285 
    1060    305.20995   -6206.6064   -6172.5598   -9153.5585    15503.698   0.88502989 
    1070    311.29573   -6207.2863   -6172.5608   -9189.6446    15503.698    0.8942313 
    1080    322.44853    -6208.532   -6172.5624   -9605.9463    15503.698   0.89934301 
    1090    319.52235   -6208.2053   -6172.5621   -9453.8625    15503.698   0.89981604 
    1100    306.22248   -6206.7208   -6172.5613   -8468.1547    15503.698   0.89715132 
    1110    296.30205    -6205.613   -6172.5601    -7650.171    15503.698   0.89433263 
    1120    300.99444   -6206.1381   -6172.5617   -7521.4311    15503.698   0.89425009 
    1130    303.00562   -6206.3625   -6172.5618   -7250.5408    15503.698   0.89988551 
    1140    301.43418   -6206.1853   -6172.5599    -7085.438    15503.698   0.91163073 
    1150    311.96544   -6207.3626   -6172.5623   -7736.7346    15503.698    0.9268416 
    1160     312.5856   -6207.4304    -6172.561   -7839.2347    15503.698   0.94242274 
    1170    312.06024   -6207.3717   -6172.5609   -7435.8113    15503.698   0.95568522 
    1180    313.23796   -6207.5041    -6172.562   -7597.0074    15503.698   0.96595677 
    1190    304.81245   -6206.5631   -6172.5608   -7511.6145    15503.698   0.97359152 
    1200     299.0979   -6205.9251   -6172.5603   -7251.8311    15503.698   0.97805041 
    1210    305.15455   -6206.6011   -6172.5607    -7450.478    15503.698   0.97875856 
    1220    315.76305   -6207.7851   -6172.5613   -7721.2495    15503.698   0.97613125 
    1230    323.52085   -6208.6506   -6172.5614   -8298.0615    15503.698   0.97208704 
    1240    323.92258   -6208.6961    -6172.562   -8905.0264    15503.698   0.96947127 
    1250    314.21066   -6207.6112   -6172.5605   -8803.1488    15503.698   0.96950769 
    1260    310.48588   -6207.1962   -6172.5611   -8633.2414    15503.698   0.97168554 
    1270    312.14219   -6207.3806   -6172.5607   -8954.9044    15503.698   0.97601337 
    1280    318.00741   -6208.0362    -6172.562   -9703.4995    15503.698   0.98273502 
    1290    313.40704   -6207.5223   -6172.5613   -9709.8303    15503.698   0.99069247 
    1300    308.27437   -6206.9483   -6172.5599   -9084.9158    15503.698   0.99712643 
    1310    318.66184   -6208.1092    -6172.562   -8966.3518    15503.698    1.0004123 
    1320    322.68718    -6208.559   -6172.5627     -9092.73    15503.698    1.0011762 
    1330    315.12259   -6207.7131   -6172.5607   -9357.7266    15503.698    1.0005657 
    1340    312.67589    -6207.441   -6172.5616   -9635.4368    15503.698    1.0005228 
    1350    310.17176   -6207.1606   -6172.5605   -9416.0855    15503.698    1.0028772 
    1360    314.49055   -6207.6425   -6172.5606   -9164.6541    15503.698    1.0079702 
    1370    323.50129    -6208.649   -6172.5619   -9193.9683    15503.698    1.0153714 
    1380    326.37912   -6208.9696   -6172.5616   -9039.2041    15503.698    1.0248913 
    1390    323.92279   -6208.6957   -6172.5616   -8869.5163    15503.698    1.0364229 
    1400    319.34103   -6208.1833   -6172.5603   -8983.1353    15503.698    1.0490487 
    1410    321.61238   -6208.4383   -6172.5619   -9724.0908    15503.698    1.0614227 
    1420    313.62116   -6207.5462   -6172.5613   -9953.0368    15503.698    1.0731437 
    1430    300.52334   -6206.0835   -6172.5597   -9720.0447    15503.698    1.0830064 
    1440    300.36192   -6206.0665   -6172.5607    -9614.744    15503.698      1.08962 
    1450    306.73861   -6206.7776   -6172.5605   -9656.3094    15503.698     1.093293 
    1460    316.85349   -6207.9069   -6172.5614   -10025.839    15503.698    1.0957017 
    1470    320.74713   -6208.3419   -6172.5621   -10258.291    15503.698    1.0988536 
    1480    312.81785   -6207.4563    -6172.561    -9699.673    15503.698    1.1032374 
    1490    307.07992    -6206.815   -6172.5597   -9345.4725    15503.698    1.1078283 
    1500    314.94947   -6207.6952   -6172.5621   -10109.293    15503.698      1.11197 
    1510    312.15384   -6207.3831   -6172.5618   -10499.296    15503.698    1.1158975 
    1520    300.86994   -6206.1223   -6172.5598   -10154.793    15503.698    1.1187148 
    1530    304.63017   -6206.5423   -6172.5604   -10286.491    15503.698     1.120074 
    1540     316.6053   -6207.8803   -6172.5625   -10577.908    15503.698    1.1224081 
    1550    314.19679   -6207.6105   -6172.5614   -10225.585    15503.698     1.127527 
    1560    307.50491   -6206.8633   -6172.5607   -9981.2278    15503.698    1.1335146 
    1570    307.92574   -6206.9114   -6172.5618   -9797.2276    15503.698    1.1386182 
    1580    304.47423   -6206.5253   -6172.5608   -9231.0918    15503.698    1.1428585 
    1590    304.75818    -6206.557   -6172.5608   -9046.6425    15503.698     1.146434 
    1600    309.29518   -6207.0641   -6172.5617   -9089.5807    15503.698    1.1506592 
    1610    312.11475   -6207.3779    -6172.561   -9064.6157    15503.698    1.1564872 
    1620    317.92765   -6208.0276   -6172.5623   -9093.4548    15503.698    1.1626775 
    1630    316.46787   -6207.8641   -6172.5616   -8992.9119    15503.698    1.1682704 
    1640    314.04151    -6207.593   -6172.5612   -8900.7429    15503.698    1.1726064 
    1650    318.50503   -6208.0919   -6172.5622    -8542.242    15503.698    1.1748846 
    1660    316.60134   -6207.8799   -6172.5626   -7886.4206    15503.698    1.1745515 
    1670    308.69714   -6206.9957   -6172.5601   -7568.5249    15503.698    1.1711308 
    1680    316.93876   -6207.9176   -6172.5626   -8340.0367    15503.698    1.1653881 
    1690    319.15454   -6208.1638   -6172.5616   -9190.5276    15503.698    1.1592781 
    1700    322.43619   -6208.5294   -6172.5612   -9889.3018    15503.698    1.1530101 
    1710    329.18953   -6209.2845   -6172.5629   -10150.234    15503.698    1.1474958 
    1720    325.77678   -6208.9015   -6172.5606   -9516.3401    15503.698    1.1452333 
    1730    331.29454   -6209.5188   -6172.5624   -9155.7339    15503.698    1.1475308 
    1740    330.35608   -6209.4144   -6172.5627   -8888.6931    15503.698    1.1546423 
    1750    317.78506   -6208.0107   -6172.5613   -7939.8954    15503.698    1.1652477 
    1760     313.1009   -6207.4877   -6172.5608   -7063.6644    15503.698    1.1772564 
    1770    321.67088   -6208.4454   -6172.5625   -7023.5784    15503.698    1.1893408 
    1780    324.29279   -6208.7378   -6172.5625   -7153.9414    15503.698    1.2002526 
    1790    317.86621     -6208.02   -6172.5616   -6704.4499    15503.698    1.2084419 
    1800    312.64233    -6207.437   -6172.5613   -6458.5525    15503.698    1.2133333 
    1810    313.63482   -6207.5476   -6172.5611   -6837.7233    15503.698    1.2153402 
    1820    320.76249   -6208.3436   -6172.5621   -7424.7523    15503.698    1.2163716 
    1830    323.69246   -6208.6704   -6172.5621   -7655.5418    15503.698    1.2199147 
    1840    320.70012   -6208.3358   -6172.5612   -7675.0009    15503.698    1.2273463 
    1850    320.85656   -6208.3534   -6172.5613    -7994.814    15503.698    1.2362593 
    1860    322.53929    -6208.542   -6172.5623   -8199.3485    15503.698    1.2440189 
    1870    318.16027   -6208.0522   -6172.5609   -7977.1631    15503.698    1.2495611 
    1880    318.87076   -6208.1326    -6172.562   -7862.9105    15503.698    1.2525522 
    1890    316.76722   -6207.8976   -6172.5617   -7681.9854    15503.698    1.2534537 
    1900    315.73302   -6207.7812   -6172.5607   -7756.5226    15503.698    1.2533187 
    1910     323.8924   -6208.6936   -6172.5629   -8279.2539    15503.698    1.2538785 
    1920     321.2693   -6208.4004   -6172.5623   -8195.6393    15503.698    1.2564932 
    1930    313.40197   -6207.5214   -6172.5609   -7832.1304    15503.698    1.2602449 
    1940    315.43195   -6207.7487   -6172.5618    -7837.936    15503.698    1.2639341 
    1950    316.02421    -6207.815    -6172.562   -7999.0172    15503.698    1.2669873 
    1960    312.57749   -6207.4298   -6172.5613   -8182.2094    15503.698    1.2689421 
    1970    312.49232   -6207.4211   -6172.5621   -7924.5303    15503.698    1.2699253 
    1980    311.31231   -6207.2889   -6172.5615   -7681.6797    15503.698    1.2706159 
    1990    315.97456   -6207.8084    -6172.561   -7981.4275    15503.698    1.2709612 
    2000    328.15449   -6209.1691    -6172.563   -8517.2812    15503.698    1.2709699 
Loop time of 1971.37 on 16 procs for 2000 steps with 864 atoms

Performance: 0.088 ns/day, 273.802 hours/ns, 1.015 timesteps/s
95.2% CPU use with 16 MPI tasks x 1 OpenMP threads

MPI task timing breakdown:
Section |  min time  |  avg time  |  max time  |%varavg| %total
---------------------------------------------------------------
Pair    | 1150.4     | 1598.6     | 1939.9     | 515.6 | 81.09
Bond    | 0.00025296 | 0.00066814 | 0.0014563  |   0.0 |  0.00
Neigh   | 0.02619    | 0.036344   | 0.048531   |   3.1 |  0.00
Comm    | 29.86      | 342.58     | 819.24     |1117.5 | 17.38
Output  | 0.7226     | 22.39      | 51.079     | 410.7 |  1.14
Modify  | 0.011582   | 0.013812   | 0.015411   |   0.9 |  0.00
Other   |            | 7.711      |            |       |  0.39

Nlocal:        54.0000 ave          72 max          38 min
Histogram: 1 1 4 1 3 2 0 2 0 2
Nghost:        591.625 ave         728 max         498 min
Histogram: 2 0 1 7 3 1 0 0 0 2
Neighs:         0.00000 ave           0 max           0 min
Histogram: 16 0 0 0 0 0 0 0 0 0
FullNghs:      3308.38 ave        5371 max        1872 min
Histogram: 1 5 3 1 0 0 2 2 0 2

Total # of neighbors = 52934
Ave neighs/atom = 61.266204
Ave special neighs/atom = 0.0000000
Neighbor list builds = 199
Dangerous builds = 198
unfix   1

velocity    all create 1050.0 1312343 dist gaussian
fix     2 all npt temp 1050.0 1050.0 $(100.0*dt) aniso 0.0 1.01325 $(1000.0*dt)
fix     2 all npt temp 1050.0 1050.0 0.10000000000000000555 aniso 0.0 1.01325 $(1000.0*dt)
fix     2 all npt temp 1050.0 1050.0 0.10000000000000000555 aniso 0.0 1.01325 1
run     3000
Per MPI rank memory allocation (min/avg/max) = 8.903 | 8.910 | 8.916 Mbytes
Step Temp PotEng TotEng Press Volume c_msd[4] 
    2000         1050   -6209.1691     -6092.04   -2969.7024    15503.698    1.2709699 
    2010    863.98131   -6188.3523   -6091.9738    4988.2995    15503.213    1.2875791 
    2020    658.16452   -6165.0857   -6091.6665     14192.88    15505.633     1.313451 
    2030    687.38119   -6167.6532   -6090.9748    12414.099    15515.618    1.3311459 
    2040    656.89477   -6163.0984   -6089.8208    12218.937    15532.907    1.3498771 
    2050    602.89017   -6155.9044   -6088.6511    14007.579    15557.393    1.3740527 
    2060    638.36699   -6158.8414   -6087.6306    12357.065    15589.861    1.3988422 
    2070    670.21459   -6161.4247   -6086.6613    9381.5965    15629.513    1.4238565 
    2080    672.16198   -6160.6384   -6085.6577    6734.6066    15674.677    1.4502282 
    2090    690.97209   -6161.5673   -6084.4883    3944.9041    15723.702    1.4774913 
    2100    694.64812   -6160.5718   -6083.0827      1840.63    15774.904    1.5051435 
    2110    689.44058   -6158.4247   -6081.5166   -205.49679    15826.832     1.532399 
    2120    686.01454   -6156.3395   -6079.8135   -2208.7666    15878.118    1.5602447 
    2130    714.68069   -6157.7108   -6077.9871   -4324.7155    15927.408    1.5882038 
    2140    732.51229   -6157.7443   -6076.0315   -5951.1268    15973.343    1.6160391 
    2150    729.58403   -6155.4282    -6074.042   -7271.7548    16014.837    1.6443301 
    2160    719.99316   -6152.3641   -6072.0477   -7678.3869    16051.109    1.6734648 
    2170     698.1072   -6147.9673   -6070.0924   -6598.2324    16081.955     1.701486 
    2180    685.52266   -6144.6487   -6068.1777   -4457.8926    16108.084    1.7234171 
    2190    685.66701   -6142.7491   -6066.2619   -2759.1201      16130.8    1.7377741 
    2200    696.43493   -6142.0085   -6064.3202    -2454.233    16151.165    1.7476034 
    2210    726.43648   -6143.3384   -6062.3033   -3643.5214    16169.403    1.7566713 
    2220    744.01122    -6143.213   -6060.2174    -5091.848    16184.879    1.7677687 
    2230    745.55721   -6141.2904   -6058.1224   -4945.2369    16196.878    1.7816533 
    2240    756.07428   -6140.3852    -6056.044   -4991.8276    16205.466    1.7992634 
    2250    780.11277   -6140.9558   -6053.9331    -6233.605    16210.635     1.819252 
    2260     778.1546   -6138.6204    -6051.816   -5865.9012    16211.893    1.8405465 
    2270    754.00667   -6133.8513   -6049.7407    -4045.133     16209.58    1.8614437 
    2280     755.1312   -6131.9093   -6047.6733   -3529.3436    16204.756    1.8782369 
    2290    781.77896   -6132.7475   -6045.5389   -4195.4777     16197.83    1.8909879 
    2300    798.16616   -6132.3883   -6043.3516   -4646.2134    16188.528    1.9037012 
    2310    789.02242   -6129.2128   -6041.1961   -3681.4339    16176.724    1.9164828 
    2320    793.78931   -6127.5982   -6039.0499   -1878.2519    16163.051    1.9274173 
    2330    810.18251   -6127.2344   -6036.8573   -68.429443    16148.638    1.9354913 
    2340     819.5225   -6126.0418   -6034.6228    1421.4357    16134.617    1.9425254 
    2350    832.99493   -6125.2998    -6032.378    2041.4957    16121.862    1.9501422 
    2360    861.47949   -6126.2057   -6030.1063      2148.58     16110.73    1.9584633 
    2370    885.88027   -6126.6373    -6027.816     1882.591    16101.231    1.9711081 
    2380    877.69588   -6123.4749   -6025.5666    2289.2049    16093.219    1.9896666 
    2390    858.19299   -6119.1156   -6023.3829    3193.8394    16086.882    2.0084354 
    2400    889.74759   -6120.4446   -6021.1919    3054.5551    16082.631    2.0201338 
    2410    928.58304   -6122.5154   -6018.9306    2863.2431     16080.38    2.0283755 
    2420    935.70738   -6121.0785    -6016.699    3070.4813    16079.978    2.0426277 
    2430    920.97745   -6117.2771   -6014.5407    2839.1761    16081.445    2.0637022 
    2440    923.95203   -6115.4972    -6012.429     2094.726    16084.577    2.0887498 
    2450    963.55969   -6117.7781   -6010.2916    1502.0533    16088.909     2.116769 
    2460    970.40122   -6116.4056   -6008.1559    1716.3275    16094.085    2.1483951 
    2470    963.07517   -6113.5344   -6006.1019    2363.5935    16100.191    2.1809307 
    2480    951.42872   -6110.2271   -6004.0938    3330.0799    16107.584    2.2135625 
    2490    960.40121   -6109.2436   -6002.1094    4198.1085    16116.796    2.2483651 
    2500    984.23639   -6109.9123   -6000.1192      4784.04    16128.307    2.2830579 
    2510     991.9258    -6108.805   -5998.1542    5212.3944    16142.438    2.3150605 
    2520    1019.8394   -6109.9919   -5996.2272    4492.7838    16159.331    2.3475812 
    2530    1054.6334   -6111.9736   -5994.3277    3254.1332      16178.5    2.3872096 
    2540    1025.2987    -6106.911   -5992.5374    3531.8543    16199.274    2.4313432 
    2550    1014.3707   -6104.0184   -5990.8638    3265.7872    16221.659    2.4718025 
    2560    1043.4702   -6105.5987    -5989.198    1898.3814    16245.411    2.5090476 
    2570    1020.2811   -6101.4077   -5987.5939    1733.2988    16269.813    2.5493569 
    2580    1016.6621    -6099.479   -5986.0688    1409.8158    16294.651    2.5902554 
    2590    1050.0076   -6101.6668   -5984.5369    973.87402    16319.712    2.6325776 
    2600     1033.162   -6098.2845   -5983.0338    1426.0765    16344.794    2.6807462 
    2610    1012.1345    -6094.503   -5981.5979    1626.9667    16370.128    2.7365187 
    2620    1024.2163   -6094.3946   -5980.1417    250.15097    16395.745    2.7986967 
    2630    1045.0252   -6095.2329   -5978.6588   -487.18105    16420.912    2.8633146 
    2640    1043.4836   -6093.6078   -5977.2056    333.53776    16445.242    2.9283873 
    2650    1041.6795   -6092.0185   -5975.8176      954.483    16469.169    2.9928395 
    2660    1056.3779   -6092.3106     -5974.47    862.06116    16493.085     3.050062 
    2670    1071.3671     -6092.67   -5973.1574    901.41989    16516.978    3.0986527 
    2680     1047.658    -6088.797   -5971.9291    2423.4301    16540.984    3.1428662 
    2690    1045.6341   -6087.4429   -5970.8008     3402.179    16565.957    3.1816256 
    2700    1034.5086   -6085.0921   -5969.6911    3374.8906    16592.505    3.2225271 
    2710    1046.6352    -6085.346   -5968.5923     2374.154    16620.582    3.2708741 
    2720    1066.4517   -6086.4417   -5967.4774    1115.9683    16649.553    3.3214722 
    2730    1065.7748   -6085.2891   -5966.4003    506.02757    16678.636    3.3707789 
    2740     1044.857   -6081.9278   -5965.3725   -208.34482    16707.377    3.4208152 
    2750    1054.5182    -6081.991   -5964.3579   -781.94224    16735.354    3.4738604 
    2760      1077.27   -6083.5197   -5963.3487   -1164.7446    16762.182    3.5298769 
    2770    1054.3646   -6080.0207   -5962.4048   -526.56329    16787.702     3.583801 
    2780    1041.2672   -6077.6598   -5961.5048   -874.99471    16812.237    3.6243047 
    2790    1067.0625    -6079.627   -5960.5946   -2613.7736     16835.55     3.648465 
    2800    1083.2523   -6080.5234    -5959.685   -4053.6813     16856.62    3.6688545 
    2810    1070.6795   -6078.2702   -5958.8343   -4423.9876    16874.581    3.6979717 
    2820    1087.5116   -6079.3864   -5958.0728   -4495.4624    16889.188    3.7403472 
    2830     1091.596   -6079.1709   -5957.4018   -3943.1769    16900.496    3.7976847 
    2840    1055.5296   -6074.5692   -5956.8233   -3126.8456    16908.952    3.8615653 
    2850    1081.8726   -6076.9899   -5956.3054    -4153.047    16914.997    3.9215532 
    2860    1105.6642   -6079.1808   -5955.8423   -4631.7716    16918.156    3.9747893 
    2870    1105.7851   -6078.8543   -5955.5023    -4053.711    16918.184    4.0214975 
    2880    1101.5596   -6078.1914   -5955.3107   -3251.6772     16915.48    4.0658596 
    2890    1098.4074   -6077.7673   -5955.2383   -2633.5787    16910.631    4.1159039 
    2900    1107.5872   -6078.8373   -5955.2843   -2632.9626    16904.043     4.174978 
    2910    1080.3148   -6075.9559   -5955.4451   -1902.4386    16895.833    4.2342359 
    2920    1087.9165   -6077.0412   -5955.6825   -1267.3976    16886.461    4.2853567 
    2930    1103.9543   -6079.1661   -5956.0184   -676.14207    16876.379    4.3307507 
    2940    1101.8607   -6079.3837   -5956.4695    -536.3862    16865.967      4.37907 
    2950    1112.0519   -6081.1118   -5957.0608   -1040.7705    16855.318    4.4300237 
    2960     1093.129   -6079.7308   -5957.7906   -1181.2618    16844.154    4.4830944 
    2970    1070.7346   -6078.0405   -5958.5985   -694.53653      16832.4    4.5351329 
    2980    1067.7518    -6078.548   -5959.4387    109.13546    16820.371    4.5812484 
    2990    1060.5408   -6078.5964   -5960.2915    1142.2754    16808.606    4.6225501 
    3000    1051.0329   -6078.4043     -5961.16     1815.014    16797.753    4.6574215 
    3010     1045.518   -6078.6301    -5962.001    1631.2616    16788.224    4.6846708 
    3020    1063.2665   -6081.4437   -5962.8347    830.68124    16779.879    4.7078946 
    3030     1061.005   -6082.0512   -5963.6945    441.25689    16772.215    4.7351464 
    3040    1046.4081   -6081.2819   -5964.5535    854.20899    16764.998     4.771443 
    3050    1071.9727   -6085.0031   -5965.4229    833.43184    16758.408    4.8146636 
    3060     1070.768   -6085.7702   -5966.3244      1165.78    16752.482      4.86592 
    3070    1054.1571   -6084.8311   -5967.2383     871.3223    16747.358    4.9199828 
    3080    1077.4077   -6088.3497   -5968.1632   -972.77668     16742.79    4.9714209 
    3090    1072.6479   -6088.7894   -5969.1339   -1966.5477    16737.688    5.0246602 
    3100     1038.488   -6085.9451   -5970.1002   -1631.0649    16731.416    5.0828114 
    3110    1042.1607   -6087.2874   -5971.0328   -1706.5016    16724.096    5.1389319 
    3120      1037.36   -6087.6447   -5971.9256   -1184.1433    16715.762    5.1846943 
    3130     1018.716   -6086.4042   -5972.7649   -57.987199    16706.774    5.2136639 
    3140    1023.3431   -6087.6812   -5973.5257   -206.63959    16697.771    5.2223463 
    3150    1024.5971   -6088.5213   -5974.2259   -1068.5923    16688.682    5.2228586 
    3160    1012.7407   -6087.8296   -5974.8569   -1221.7748    16679.038    5.2316608 
    3170    1020.8923      -6089.3    -5975.418   -1014.6811    16668.693    5.2543568 
    3180    1015.2399   -6089.1522   -5975.9007    230.18156    16657.857    5.2938463 
    3190    1003.7999   -6088.2753   -5976.2999    661.76861     16647.23    5.3460208 
    3200    997.60518   -6087.8778   -5976.5935    434.52052    16637.126    5.4036514 
    3210    1003.7691   -6088.7453   -5976.7733   -269.46399    16627.378    5.4609636 
    3220    1013.0595   -6089.8739   -5976.8656   -206.28086     16617.61    5.5159737 
    3230    1030.5282   -6091.8347   -5976.8778   -14.599586    16607.804    5.5685545 
    3240    1058.5226   -6094.9435   -5976.8637    67.161617    16598.058    5.6198857 
    3250    1041.2046   -6092.9926   -5976.8447    946.43913      16588.5    5.6727119 
    3260    1035.5634   -6092.3381   -5976.8194    1189.4768    16579.611     5.729426 
    3270    1035.0109   -6092.2081   -5976.7511    681.88317    16571.555    5.7878676 
    3280    1040.5542   -6092.7222   -5976.6468    483.37391    16564.024     5.844043 
    3290    1021.5144   -6090.4562   -5976.5047    2048.6658    16556.989    5.9042747 
    3300    1007.6714   -6088.7104   -5976.3031    4104.4139    16551.379    5.9686881 
    3310    1013.4079     -6089.07   -5976.0228    4994.9678    16548.431    6.0321264 
    3320    1046.6121   -6092.4386   -5975.6875     3677.039    16548.633    6.0957503 
    3330    1026.0875   -6089.7858   -5975.3242    3388.3668    16551.314    6.1526687 
    3340    1012.2469   -6087.8534   -5974.9357    3773.1872    16556.222    6.1867009 
    3350    1021.3043   -6088.3992   -5974.4711    3678.5962    16563.541    6.2042674 
    3360    1045.3136   -6090.5416   -5973.9353    2503.7378     16573.16    6.2226754 
    3370    1068.2159   -6092.5275   -5973.3664    1158.4451    16584.345    6.2436746 
    3380    1034.9945   -6088.2601   -5972.8049    1193.4644     16596.31    6.2663468 
    3390    1027.4054   -6086.8624   -5972.2538    885.56219    16608.948    6.2928094 
    3400    1052.8551   -6089.1022   -5971.6547    862.38164    16622.135    6.3264067 
    3410    1083.0267   -6091.8657   -5971.0524    606.53756    16635.788    6.3621115 
    3420     1075.057   -6090.4281   -5970.5038    688.58378    16649.779    6.3944685 
    3430    1053.6193    -6087.552   -5970.0192    933.11115    16664.154    6.4282124 
    3440    1053.3347   -6087.0598   -5969.5587    980.81076     16679.05    6.4654038 
    3450    1058.9771   -6087.2286   -5969.0981    620.66226    16694.473    6.5049967 
    3460    1072.9307   -6088.3423   -5968.6552    104.59198    16710.199    6.5383355 
    3470    1070.0217   -6087.6152   -5968.2526    354.03865    16725.938    6.5600825 
    3480    1043.2935   -6084.2849   -5967.9039    523.58063    16741.811    6.5745693 
    3490    1029.2199   -6082.3474   -5967.5364    -418.5648    16757.867    6.5887942 
    3500    1045.7666   -6083.7854   -5967.1286   -1605.6875    16773.512      6.61107 
    3510    1064.5982   -6085.4518   -5966.6943   -2184.8318    16788.004    6.6494337 
    3520    1051.2263   -6083.5477   -5966.2818   -1733.1218    16801.001    6.7062875 
    3530    1058.3781   -6083.9502   -5965.8865   -2440.0681    16812.659    6.7741173 
    3540     1043.279   -6081.8706   -5965.4913   -3102.9065    16822.609    6.8410377 
    3550    1045.4761   -6081.7174    -5965.093   -4049.0245    16830.372     6.897145 
    3560    1056.3653    -6082.533   -5964.6938   -4459.8792    16835.366    6.9376552 
    3570    1035.3942   -6079.8034   -5964.3036   -3175.4729    16837.432    6.9621993 
    3580     1059.217   -6082.0692    -5963.912   -3172.4153    16837.247     6.974122 
    3590    1089.6216   -6085.0669   -5963.5179   -3833.0765    16834.892    6.9875499 
    3600     1096.195   -6085.4819   -5963.1997   -3144.9095    16830.053    7.0132289 
    3610    1042.6328   -6079.2709   -5962.9636   -795.31416    16823.244    7.0506745 
    3620     1040.035   -6078.7437   -5962.7263    255.62422    16815.888    7.0904251 
    3630    1085.6435   -6083.5827   -5962.4775   -731.14022    16808.627     7.130643 
    3640    1089.6196   -6083.8514   -5962.3027   -1445.6932    16800.962    7.1748693 
    3650    1082.3967   -6082.9683   -5962.2253   -1944.1329    16792.403    7.2137105 
    3660    1091.5523   -6083.9958   -5962.2315   -2049.6719    16782.627    7.2446259 
    3670    1101.9504   -6085.2577   -5962.3335   -1642.4411    16771.569    7.2802337 
    3680    1076.2699    -6082.591   -5962.5315   -1025.1009    16759.514    7.3294718 
    3690    1067.4245   -6081.8776   -5962.8048   -1496.0196    16746.781     7.389759 
    3700    1053.5996   -6080.6449   -5963.1143   -1359.8966     16733.16    7.4532916 
    3710    1036.8241   -6079.0688   -5963.4095    255.61609    16718.833    7.5046018 
    3720    1071.6107   -6083.2337   -5963.6939    736.20763    16704.698    7.5407029 
    3730    1086.6367   -6085.2473   -5964.0314    1761.4519    16691.192    7.5755799 
    3740    1061.6866   -6082.8414   -5964.4086    2727.6251    16678.947    7.6165785 
    3750    1078.8547   -6085.2006   -5964.8528    2456.5259    16668.519      7.66741 
    3760    1073.1093    -6085.055   -5965.3481    2521.1795    16659.844    7.7253843 
    3770    1092.1016   -6087.7443   -5965.9187    1834.4022    16652.851    7.7788776 
    3780    1096.5928   -6088.9106   -5966.5841    932.36077     16647.11    7.8312825 
    3790    1058.6477   -6085.4277   -5967.3339    1008.8857    16642.084    7.8813069 
    3800    1029.7436   -6082.9385    -5968.069    1079.8081    16637.747    7.9178419 
    3810    1043.0965   -6085.1261   -5968.7671    360.07377     16634.09    7.9383005 
    3820    1056.4671   -6087.2891   -5969.4386   -262.44468    16630.702    7.9462028 
    3830    1051.9815   -6087.4716   -5970.1215   -260.41045    16627.194    7.9535417 
    3840    1047.1592   -6087.5947   -5970.7825     -277.488    16623.541     7.971385 
    3850    1073.1364   -6091.1792   -5971.4692    -867.8262    16619.685    7.9999933 
    3860     1048.337   -6089.1034   -5972.1599    126.19028    16615.387    8.0339202 
    3870    1038.3677   -6088.6857   -5972.8542     671.1853    16611.121    8.0668386 
    3880    994.90912    -6084.454   -5973.4703    1977.2622    16607.387    8.0986533 
    3890    979.74929   -6083.2483   -5973.9558    2467.5727    16604.934    8.1249648 
    3900    1005.7852   -6086.5085   -5974.3117    1511.3421    16604.018    8.1528765 
    3910     1023.755   -6088.7748   -5974.5734     1056.958    16604.138    8.1918211 
    3920    1028.1838   -6089.4784    -5974.783    1117.7296    16604.977    8.2397533 
    3930    1027.9164   -6089.6051   -5974.9395    1714.8279    16606.605    8.2798447 
    3940    1054.9873   -6092.7544    -5975.069    1590.5763    16609.305    8.3006388 
    3950    1032.1049    -6090.323   -5975.1902    2128.4753    16613.119    8.3100778 
    3960    1040.9457   -6091.4162   -5975.2971    1258.6689    16618.245    8.3182139 
    3970    1050.9173   -6092.6033   -5975.3719   -328.22524    16624.162    8.3269406 
    3980    1069.2372   -6094.7313   -5975.4563   -1148.0433    16629.911    8.3272123 
    3990    1062.2008   -6094.0637   -5975.5736   -1198.5998    16634.962    8.3198403 
    4000    1034.9811   -6091.1622   -5975.7085   -1357.6343     16639.23    8.3126713 
    4010    1044.2732   -6092.3221   -5975.8319   -2232.1434    16642.557    8.3176546 
    4020    1059.4354   -6094.1202   -5975.9386   -2575.0798    16644.444    8.3389113 
    4030    1033.7461   -6091.3673   -5976.0513   -1554.0497    16644.711    8.3746458 
    4040    984.42213   -6085.9273   -5976.1136    -817.6868    16643.942    8.4160239 
    4050    987.08812   -6086.1756   -5976.0644   -1832.6504    16642.508    8.4539382 
    4060    999.77046   -6087.4035   -5975.8776   -2488.1414    16639.908    8.4852985 
    4070    1034.0828   -6090.9455    -5975.592   -3175.8693    16635.641    8.5120963 
    4080    1047.9682   -6092.1592   -5975.2568   -3073.5861    16629.295    8.5396686 
    4090    1032.1446   -6090.0371   -5974.8998   -1494.8397    16621.012    8.5714622 
    4100    1016.1711   -6087.8618   -5974.5064   -193.60368    16611.708    8.6035092 
    4110    1015.7989   -6087.3469    -5974.033    243.51137    16602.226     8.629759 
    4120    1029.1785    -6088.299   -5973.4925    132.26258    16592.845    8.6513517 
    4130    1021.2968   -6086.8177   -5972.8905     1083.703    16583.614    8.6751533 
    4140    1012.9729   -6085.2387     -5972.24    2245.9121    16575.096    8.7020425 
    4150    1020.4382   -6085.3563   -5971.5249     2360.172    16567.978    8.7243544 
    4160     1037.465   -6086.4787   -5970.7479    1365.3809    16562.348    8.7383664 
    4170    1089.0162   -6091.4497   -5969.9683   -75.227554    16557.573    8.7489158 
    4180    1083.9127   -6090.1547   -5969.2426    418.08429    16552.861    8.7553101 
    4190    1068.6087   -6087.8304   -5968.6254     1520.274    16548.444     8.748085 
    4200    1045.9738   -6084.7277   -5968.0478    2237.7015    16544.991    8.7318619 
    4210    1052.0631   -6084.8455   -5967.4862    2184.1644    16542.951    8.7252462 
    4220    1089.4069   -6088.4645   -5966.9395    1479.8556    16542.299    8.7291669 
    4230    1085.5567   -6087.5634   -5966.4679    1726.1282    16542.665    8.7341083 
    4240    1074.9585   -6085.9979   -5966.0847    2587.5571    16544.219    8.7339533 
    4250    1099.6954    -6088.456   -5965.7833    2806.3253    16547.441    8.7294303 
    4260    1087.0551   -6086.8245   -5965.5619    2877.2593    16552.534     8.736696 
    4270    1117.4712   -6090.1177   -5965.4621    1287.4206    16559.443    8.7679188 
    4280    1120.0213   -6090.4352   -5965.4952    623.99213    16567.325    8.8197856 
    4290    1073.9874   -6085.4671   -5965.6622    1532.8854    16575.781    8.8809841 
    4300    1083.8687   -6086.8287   -5965.9215    635.47105    16585.181    8.9299573 
    4310    1088.7912   -6087.7206   -5966.2643   -569.32043    16595.068    8.9631314 
    4320     1065.695   -6085.5595   -5966.6796    -1087.807    16604.711    8.9866867 
    4330    1086.0454   -6088.2886   -5967.1386   -2269.9543    16613.659    9.0065963 
    4340    1097.5186   -6090.1338   -5967.7039   -2622.1638    16621.223    9.0330933 
    4350    1072.8162   -6088.0343     -5968.36   -2078.4148    16627.178    9.0690651 
    4360    1072.0636   -6088.6568   -5969.0665   -2080.4902    16631.776    9.1116235 
    4370    1071.0079   -6089.2835    -5969.811   -2568.8102    16634.998    9.1484404 
    4380    1060.2908   -6088.8584   -5970.5814   -3089.2333    16636.541    9.1781357 
    4390    1066.5063   -6090.3387   -5971.3684   -3373.6293    16636.052    9.2051872 
    4400    1047.4373   -6088.9965   -5972.1533   -2049.6375    16633.416    9.2273174 
    4410     1019.577   -6086.6062   -5972.8709    9.7496669    16629.459    9.2414632 
    4420    1034.7462   -6088.9363   -5973.5088    265.63796    16625.355     9.252248 
    4430    1039.4484   -6090.0327   -5974.0807    -277.0256    16621.364    9.2612003 
    4440    1052.3895    -6092.028   -5974.6324   -1226.4562    16617.146    9.2652333 
    4450    1039.3669   -6091.1075   -5975.1646   -1877.4811     16612.11     9.274592 
    4460    1045.5077   -6092.3107   -5975.6827   -3179.3823    16605.738    9.2996367 
    4470    1056.1394   -6094.0069    -5976.193   -3687.5582    16597.276    9.3334755 
    4480     1046.048   -6093.3957   -5976.7075   -2944.0284    16586.382    9.3755098 
    4490    1041.4082   -6093.3852   -5977.2146   -2007.8418    16573.464     9.421343 
    4500    1038.0092   -6093.4885    -5977.697   -1247.9106    16559.111    9.4533588 
    4510    1035.2095   -6093.6143   -5978.1352   -294.86856     16543.85     9.465119 
    4520    1036.1764   -6094.1244   -5978.5373    200.88403    16528.249    9.4661689 
    4530    1020.2309   -6092.7036   -5978.8953    511.33924    16512.669    9.4670937 
    4540    1013.5973   -6092.2459   -5979.1776    578.98895    16497.305    9.4709267 
    4550    1046.9662   -6096.1916   -5979.4009    393.74328      16482.2    9.4903749 
    4560    1048.5983   -6096.5734   -5979.6006    1844.5743    16467.364    9.5352119 
    4570    1022.6303   -6093.8456   -5979.7697    3426.7036    16453.634    9.5925266 
    4580    1019.3736   -6093.6121   -5979.8994    3533.8606     16441.94    9.6469105 
    4590    1016.3049   -6093.3378   -5979.9675    3397.1651    16432.432    9.6930503 
    4600    1011.5808   -6092.8013   -5979.9579    3502.5913    16425.082    9.7239877 
    4610    1062.8303   -6098.4557   -5979.8954    2323.0461    16419.862    9.7371782 
    4620    1076.8971   -6099.9745   -5979.8451    1735.3048    16416.156    9.7452079 
    4630    1040.8016   -6095.9468   -5979.8439    2306.3782     16413.63    9.7507514 
    4640    1041.3761   -6096.0115   -5979.8444    2495.3629    16412.563    9.7534406 
    4650    1065.6393   -6098.7124   -5979.8387    1734.5879    16413.041    9.7675873 
    4660    1068.9158   -6099.0923   -5979.8531    902.31974    16414.659     9.805958 
    4670    1057.9783   -6097.9339   -5979.9148    140.95459    16416.876     9.861714 
    4680    1039.0677   -6095.8926    -5979.983    92.077116    16419.269    9.9150335 
    4690    1058.6628   -6098.1558   -5980.0604   -530.60789    16421.699    9.9502595 
    4700    1056.4441   -6097.9973   -5980.1493    75.948461    16423.906    9.9717287 
    4710    1050.3044   -6097.4179   -5980.2548     1235.133     16426.21    9.9904242 
    4720    1044.5382   -6096.8908   -5980.3709    2722.0767    16429.374    10.016172 
    4730     1045.438   -6097.1101   -5980.4899    2732.9579    16434.258    10.056331 
    4740     1048.099   -6097.5254   -5980.6084    2244.6345    16440.945    10.103928 
    4750    1050.0609   -6097.8614   -5980.7255    2333.4597    16449.212    10.145877 
    4760    1063.0014     -6099.44   -5980.8606    1721.7872    16459.051    10.182755 
    4770    1058.6033   -6099.1143   -5981.0255    1379.2812    16470.159    10.219687 
    4780    1046.4848   -6097.9495   -5981.2125    1111.0037    16482.315    10.251444 
    4790    1033.7585   -6096.7207   -5981.4034    397.20788    16495.309    10.270223 
    4800    1020.2356   -6095.3667   -5981.5579   -561.19594      16508.7    10.286328 
    4810    1042.1909    -6097.931    -5981.673   -1618.1764    16521.876    10.314867 
    4820    1042.9734   -6098.1085   -5981.7632   -1682.7174     16534.22    10.352477 
    4830    1044.6997   -6098.3926   -5981.8548   -1490.1801    16545.626    10.384253 
    4840    1037.5032   -6097.6725   -5981.9375   -1318.4301    16556.193    10.403818 
    4850    1051.4352   -6099.3129   -5982.0237    -1170.998    16566.016    10.412783 
    4860    1047.6744   -6098.9732   -5982.1035   -1664.5779    16575.137    10.416881 
    4870    1044.7533   -6098.7294   -5982.1856   -2295.9705    16583.262    10.414855 
    4880    1056.4793   -6100.1287   -5982.2768   -2904.8652    16589.968    10.413171 
    4890    1056.9443   -6100.2954   -5982.3917   -2750.8424    16594.892    10.422555 
    4900    1037.0409   -6098.2118   -5982.5283   -2208.7259    16598.066    10.449843 
    4910    1023.9193    -6096.871   -5982.6513   -1583.1831    16599.825    10.491412 
    4920    1036.4169   -6098.3461   -5982.7322   -1671.8355    16600.512    10.540948 
    4930    1049.7177   -6099.9019   -5982.8043   -1799.5862    16600.099    10.590881 
    4940    1036.4524   -6098.4921   -5982.8743   -1178.6394    16598.539    10.637623 
    4950     1030.369   -6097.8646   -5982.9254   -1656.5822    16596.103    10.683855 
    4960     1052.911   -6100.4111   -5982.9573    -2292.856    16592.532    10.729121 
    4970    1059.2221   -6101.1455   -5982.9877   -2176.5429    16587.448    10.776835 
    4980    1074.9136   -6102.9735   -5983.0653    -2227.611    16580.824    10.838625 
    4990    1036.7112   -6098.8265   -5983.1798   -853.41325    16572.727    10.918701 
    5000    1008.3454   -6095.7599   -5983.2775    349.93378    16563.933     11.00055 
Loop time of 3106.27 on 16 procs for 3000 steps with 864 atoms

Performance: 0.083 ns/day, 287.617 hours/ns, 0.966 timesteps/s
94.8% CPU use with 16 MPI tasks x 1 OpenMP threads

MPI task timing breakdown:
Section |  min time  |  avg time  |  max time  |%varavg| %total
---------------------------------------------------------------
Pair    | 2541.6     | 2793.8     | 3053.1     | 295.5 | 89.94
Bond    | 0.00037694 | 0.001028   | 0.0025437  |   2.0 |  0.00
Neigh   | 0.044993   | 0.05059    | 0.062341   |   2.2 |  0.00
Comm    | 32.013     | 234.47     | 519.49     | 959.3 |  7.55
Output  | 0.20113    | 0.21664    | 0.4468     |  12.8 |  0.01
Modify  | 14.102     | 77.753     | 157.93     | 626.7 |  2.50
Other   |            | 0.01709    |            |       |  0.00

Nlocal:        54.0000 ave          70 max          46 min
Histogram: 3 1 2 6 2 0 1 0 0 1
Nghost:        550.438 ave         614 max         507 min
Histogram: 1 4 2 1 2 4 0 0 1 1
Neighs:         0.00000 ave           0 max           0 min
Histogram: 16 0 0 0 0 0 0 0 0 0
FullNghs:      2897.50 ave        4149 max        2133 min
Histogram: 3 3 1 1 2 4 0 1 0 1

Total # of neighbors = 46360
Ave neighs/atom = 53.657407
Ave special neighs/atom = 0.0000000
Neighbor list builds = 300
Dangerous builds = 300
unfix   2

fix     3 all npt temp 1050.0 1050.0 $(100.0*dt) aniso 1.01325 1.01325 $(1000.0*dt)
fix     3 all npt temp 1050.0 1050.0 0.10000000000000000555 aniso 1.01325 1.01325 $(1000.0*dt)
fix     3 all npt temp 1050.0 1050.0 0.10000000000000000555 aniso 1.01325 1.01325 1
run     20000
Per MPI rank memory allocation (min/avg/max) = 8.909 | 8.912 | 8.918 Mbytes
Step Temp PotEng TotEng Press Volume c_msd[4] 
    5000    1008.3454   -6095.7599   -5983.2775    349.93378    16563.933     11.00055 
    5010    1006.2769   -6095.4855   -5983.2338    803.37338    16564.105    11.066208 
    5020    1028.3208   -6097.8093   -5983.0985    503.37767     16564.78    11.119668 
    5030    1040.7115    -6099.002    -5982.909   -391.37213    16565.749    11.168754 
    5040    1028.5577   -6097.4226   -5982.6854   -513.27362    16566.533    11.218626 
    5050    1018.0018   -6095.9667   -5982.4071   -788.83073    16566.979    11.271856 
    5060    1041.1207   -6098.1987   -5982.0601   -1109.9106    16566.898    11.332307 
    5070     1048.335   -6098.6012   -5981.6579   -253.92459    16566.177    11.396101 
    5080     1027.539   -6095.8378   -5981.2143    723.90704    16565.312    11.446013 
    5090    1060.4422   -6099.0184   -5980.7245   -599.67645    16564.767    11.475165 
    5100    1088.3521   -6101.6083    -5980.201   -1190.8722    16563.872    11.498099 
    5110     1072.624   -6099.3638    -5979.711    2.3753198      16562.3    11.522436 
    5120    1078.6686   -6099.5799   -5979.2528    66.417849    16560.654    11.549317 
    5130    1092.1036   -6100.6472   -5978.8214   -425.88679    16559.029    11.574545 
    5140    1076.4304   -6098.5114    -5978.434   -534.45112    16557.145    11.595811 
    5150    1068.9942   -6097.3338   -5978.0859   -362.63616    16554.924     11.60712 
    5160    1062.3791   -6096.2446   -5977.7346    203.06665    16552.494    11.613898 
    5170     1090.633   -6099.0548   -5977.3931    56.428747    16550.119    11.621833 
    5180    1068.3788   -6096.2492     -5977.07    1515.1771    16547.881    11.626231 
    5190    1047.1549   -6093.5648   -5976.7531    2942.7253    16546.629    11.621349 
    5200    1064.4162   -6095.1261   -5976.3889    2079.0486    16547.172    11.605172 
    5210    1077.4574   -6096.1693   -5975.9773    215.71234    16549.026    11.589486 
    5220    1069.0167   -6094.7838   -5975.5334   -406.06646    16551.109    11.591104 
    5230    1087.0383   -6096.3164   -5975.0556   -141.70143    16552.989    11.611222 
    5240    1123.6125   -6099.8983   -5974.5576    470.34782    16554.819    11.648415 
    5250    1140.6778   -6101.3743   -5974.1299    1109.0356    16556.985    11.694962 
    5260    1113.9858   -6098.1122   -5973.8454    1406.1351    16559.877    11.742044 
    5270    1080.2542   -6094.1906   -5973.6866    1081.2891    16563.689    11.780727 
    5280    1106.4184   -6097.0294   -5973.6067   -714.96812    16568.152    11.807352 
    5290    1131.6761   -6099.8733   -5973.6332   -2247.0678    16572.164     11.83164 
    5300    1105.6214    -6097.175   -5973.8413   -963.21354    16574.907    11.862758 
    5310    1082.7477   -6094.9987   -5974.2166    225.08682    16577.026    11.896408 
    5320    1079.1488   -6095.1068   -5974.7261    -299.4095      16579.2    11.926355 
    5330    1075.7873   -6095.3558   -5975.3501   -1068.2465    16581.189    11.950596 
    5340    1083.8328   -6096.9739   -5976.0708   -2131.4642    16582.476    11.969187 
    5350    1099.7805   -6099.6125   -5976.9303   -3160.0465    16582.345    11.985212 
    5360      1058.49   -6095.9691    -5977.893   -1918.5764    16580.285    11.998464 
    5370    1031.8915   -6093.9672   -5978.8581   -1111.6968    16576.918     12.00986 
    5380    1018.5365   -6093.3529   -5979.7336   -875.50521    16572.772    12.025362 
    5390    1029.4009   -6095.3204   -5980.4891   -808.49379    16568.019    12.051638 
    5400    1050.4855   -6098.3497   -5981.1664   -999.76598    16562.688    12.077776 
    5410    1035.0275   -6097.2255   -5981.7667   -482.11765    16556.735    12.101054 
    5420    1024.0219   -6096.5134   -5982.2822    -240.4253    16550.418    12.124541 
    5430    985.54051   -6092.6121   -5982.6736     229.2414    16543.946    12.150701 
    5440    977.45374   -6091.9416   -5982.9052   -362.89073    16537.534    12.171235 
    5450    1015.7514   -6096.3218   -5983.0132   -1364.4306    16530.844    12.184817 
    5460    1027.7767    -6097.699   -5983.0489   -1597.7457    16523.276    12.205152 
    5470    1018.5277   -6096.6462   -5983.0279   -1281.0396    16514.675    12.227502 
    5480     1031.327   -6097.9901    -5982.944   -1728.4598    16505.141     12.23748 
    5490    1053.2695   -6100.3204   -5982.8266   -2023.4808    16494.449    12.233471 
    5500    1048.2615   -6099.6426   -5982.7075   -1109.8559    16482.481    12.221805 
    5510    1030.3159      -6097.5   -5982.5667    22.050445    16469.775    12.214496 
    5520    1038.9877   -6098.2907   -5982.3901    264.06063    16456.991    12.210442 
    5530    1043.1308   -6098.5491   -5982.1863    598.77329    16444.345    12.209333 
    5540    1023.8101   -6096.1513   -5981.9437    1501.1334    16432.081    12.217588 
    5550    1032.1111    -6096.784   -5981.6504    2089.4143    16420.747    12.232353 
    5560     1039.558     -6097.26   -5981.2957    1487.3844    16410.668    12.241797 
    5570    1048.1356   -6097.8346   -5980.9135    998.93263    16401.518    12.243685 
    5580    1045.2604   -6097.0838   -5980.4834    1513.6578    16393.054    12.252248 
    5590    1043.3787   -6096.4029   -5980.0124    1631.1019    16385.496    12.278854 
    5600    1018.0796   -6093.0487   -5979.4804    2017.2865    16379.013     12.31472 
    5610    1039.5143   -6094.8332   -5978.8738    1109.9726    16373.731    12.347781 
    5620    1067.7083   -6097.2989   -5978.1945    436.54335    16369.166    12.367044 
    5630    1087.1173   -6098.7775   -5977.5079    1019.8505     16364.94    12.365227 
    5640    1094.7682   -6098.9699   -5976.8468    1736.4968    16361.383    12.359135 
    5650    1124.1375   -6101.6597   -5976.2604    995.54383    16358.834    12.375083 
    5660    1134.0349   -6102.3067   -5975.8034    985.30675    16356.969    12.419951 
    5670    1100.7642   -6098.3092   -5975.5173    2164.7644    16355.802    12.471504 
    5680    1072.1514    -6094.948   -5975.3479    2901.7523    16355.999    12.507658 
    5690    1083.8476   -6096.1435   -5975.2386    1780.4684    16357.947    12.532712 
    5700    1097.0099   -6097.5768   -5975.2037    923.01576    16361.076    12.563114 
    5710    1076.2328   -6095.3274    -5975.272    2156.7653    16364.944    12.607702 
    5720    1062.5374   -6093.9534   -5975.4258    3392.8299    16370.206      12.6538 
    5730    1081.6285   -6096.3299   -5975.6727    2939.2415    16377.566    12.698909 
    5740    1075.7238   -6096.0415   -5976.0429    2605.6175    16386.883    12.756808 
    5750    1071.0414   -6096.0512   -5976.5749    1864.8935    16397.898    12.822824 
    5760    1040.6149   -6093.3365   -5977.2544    1727.1557    16410.226    12.884201 
    5770     1043.078   -6094.4285   -5978.0716    1101.8637    16423.706    12.922323 
    5780    1042.0503   -6095.2564   -5979.0141    531.06207     16437.99    12.940244 
    5790    1056.3607   -6097.9089   -5980.0703   -236.30855    16452.706    12.953358 
    5800    1081.9594   -6101.9457   -5981.2515   -1390.7637     16467.33    12.977913 
    5810    1078.7042   -6102.8631   -5982.5321    -1898.092    16481.166    13.023577 
    5820    1043.9475   -6100.2528   -5983.7989   -1618.7489    16493.898    13.086691 
    5830     1025.912   -6099.3534   -5984.9114   -1991.4385      16505.6    13.155952 
    5840    1014.4124    -6098.981   -5985.8217   -2906.0492    16516.018    13.222179 
    5850    1010.8879   -6099.2834   -5986.5173   -3904.6076    16524.572    13.282647 
    5860    1015.5349   -6100.3273   -5987.0428   -3862.7729    16530.668    13.329971 
    5870    995.24026   -6098.4243   -5987.4037   -2336.0119    16534.357    13.350316 
    5880    1021.2422   -6101.5749   -5987.6538   -1401.5286    16536.482     13.34557 
    5890    1003.9019   -6099.7725   -5987.7857   -448.19776    16537.715    13.337681 
    5900    1017.2781   -6101.3049    -5987.826   -722.32576    16538.589    13.340206 
    5910    1026.6003   -6102.3024   -5987.7836   -1165.1709    16539.004    13.354906 
    5920    1023.9821   -6101.9197    -5987.693    -2027.005    16538.621    13.381765 
    5930    1020.2607   -6101.3567   -5987.5451   -2965.6698    16536.917    13.414493 
    5940    1023.6962   -6101.5442   -5987.3494   -3744.7289    16533.287    13.442325 
    5950    1038.7569   -6102.9774   -5987.1025   -4029.9791    16527.234    13.461231 
    5960    1070.8487   -6106.2893   -5986.8345    -3447.621     16518.59    13.475094 
    5970    1062.6349    -6105.126   -5986.5874   -2140.8289     16507.76     13.49129 
    5980    1028.2676   -6101.0679   -5986.3631    -1597.219    16495.511    13.522126 
    5990    1029.4683   -6100.9567    -5986.118     -2122.79    16482.183    13.568785 
    6000    1030.8959   -6100.8179   -5985.8199   -2304.8028    16467.546    13.614474 
    6010    1057.8852   -6103.5071   -5985.4984   -2091.9742    16451.466    13.650594 
    6020    1046.9166   -6101.9246   -5985.1395   -322.46906     16434.18    13.686781 
    6030    1041.3821   -6100.9074   -5984.7397    1365.2279    16416.745    13.726768 
    6040    1055.7212   -6102.0797   -5984.3124    1140.4718    16400.141    13.768515 
    6050    1071.7449   -6103.4446   -5983.8898    172.14031    16384.318    13.823023 
    6060    1079.1143   -6103.8853   -5983.5085   -1247.6294    16368.648    13.889517 
    6070    1085.6112   -6104.2822   -5983.1806   -1658.8826    16352.311    13.949151 
    6080    1090.3375   -6104.5421   -5982.9133   -566.33002    16335.101    13.984242 
    6090    1074.6903   -6102.5953    -5982.712    1429.8271    16317.678    13.996137 
    6100    1049.7869   -6099.6461   -5982.5408    3451.2557    16301.278     14.00082 
    6110    1056.8452   -6100.2536    -5982.361    3769.7703    16287.066    14.017481 
    6120      1055.08   -6099.8661   -5982.1704    3960.7551    16275.347     14.05601 
    6130    1057.5386   -6099.9455   -5981.9755    3899.8392    16266.205    14.110519 
    6140    1074.5678   -6101.6594   -5981.7898    3739.9961    16259.573    14.179515 
    6150    1071.2783   -6101.1429   -5981.6402    4314.0131    16255.383    14.257785 
    6160    1042.2688    -6097.784   -5981.5174    5115.4545    16253.977    14.327298 
    6170    1053.4674   -6098.9095   -5981.3936    4445.5735    16255.705    14.370563 
    6180    1068.6029   -6100.4562    -5981.252    3911.5529    16260.239    14.393174 
    6190    1093.4641   -6103.1161   -5981.1386    3043.0113    16267.194    14.417668 
    6200    1105.2182   -6104.3911   -5981.1023    2409.3887    16276.041    14.456893 
    6210    1067.9196   -6100.2995   -5981.1715    2683.9561    16286.423    14.513733 
    6220     1058.056   -6099.3317   -5981.3039    1696.3855    16298.357    14.572444 
    6230    1078.2366   -6101.7636   -5981.4847    619.04685    16311.285    14.614379 
    6240    1068.3529   -6100.9208   -5981.7445    715.30205    16324.604    14.627571 
    6250    1064.3902   -6100.8153    -5982.081    220.46364    16338.274    14.614141 
    6260    1076.8125   -6102.6122   -5982.4921   -991.16833    16351.965     14.58841 
    6270    1102.0357   -6105.9587    -5983.025   -2417.3344    16364.924    14.570747 
    6280    1094.4668   -6105.8238   -5983.7344   -2764.2656    16376.307    14.566817 
    6290    1044.8537   -6101.1094   -5984.5544   -1269.6842    16385.974    14.570591 
    6300    1032.1047   -6100.5176   -5985.3848   -585.33045    16394.707    14.576199 
    6310     1026.441   -6100.6821   -5986.1811   -213.97903        16403    14.587254 
    6320    1017.1462    -6100.378   -5986.9138   -29.222081     16411.09    14.613652 
    6330    1010.0099   -6100.2202   -5987.5521    458.88523    16419.136    14.656291 
    6340    1019.6719   -6101.8312   -5988.0852    323.53211    16427.394    14.702194 
    6350     1035.576   -6104.0726   -5988.5526   -205.40938     16435.79    14.739659 
    6360    1032.7005   -6104.1677   -5988.9684   -340.55309     16444.04    14.759292 
    6370    1036.2008   -6104.9256   -5989.3359   -946.07331    16451.997    14.761381 
    6380     1028.767   -6104.4231   -5989.6625   -1796.5613    16459.282    14.765349 
    6390    1032.5554   -6105.1121    -5989.929   -2748.0655    16465.381     14.78274 
    6400    1049.7275   -6107.2777    -5990.179   -3805.9319    16469.657    14.810174 
    6410    1032.5348   -6105.5973   -5990.4165   -3319.9527    16471.538    14.837026 
    6420    1001.1757   -6102.2906   -5990.6079    -2202.005    16471.294    14.851887 
    6430    1005.5151    -6102.878   -5990.7113   -2517.3476    16469.544     14.85423 
    6440    1036.8188   -6106.3928   -5990.7341   -4033.9639    16466.117    14.843968 
    6450    1042.1709   -6106.9853   -5990.7295   -4400.0325    16460.181     14.82192 
    6460    1019.6099    -6104.432   -5990.6929   -3321.7902    16451.529    14.782789 
    6470     1022.555   -6104.6577   -5990.5901   -2333.4665    16440.788    14.724687 
    6480     1035.193   -6105.8918   -5990.4145   -1018.9131    16428.657    14.658054 
    6490    1034.5856   -6105.5914   -5990.1819    -74.75695    16415.948     14.59846 
    6500    1034.4369   -6105.2801   -5989.8871    259.90825    16403.281     14.56012 
    6510    1060.0828   -6107.7876   -5989.5337    80.998815    16390.849    14.549091 
    6520    1060.2555   -6107.4057   -5989.1326    679.19112    16378.623    14.560059 
    6530    1043.1485   -6105.0794   -5988.7146    1682.2254    16366.974    14.582006 
    6540    1048.7496   -6105.2513   -5988.2617    1534.0326    16356.446    14.612407 
    6550    1052.2899   -6105.1206   -5987.7361    1869.2768    16347.043    14.659011 
    6560    1059.1982   -6105.3053   -5987.1501    2200.3905    16338.923    14.715022 
    6570     1091.695   -6108.2968   -5986.5166    1413.2964    16332.225    14.761907 
    6580    1116.4833   -6110.4441   -5985.8987    1430.8674    16326.549    14.801731 
    6590    1063.0792   -6103.9329   -5985.3448    2911.3176    16321.933    14.851359 
    6600    1016.6277   -6098.2097   -5984.8033    3439.0846    16319.164    14.909497 
    6610    1043.7654   -6100.6101   -5984.1765    2157.8808    16318.497    14.955229 
    6620    1073.8355   -6103.2338   -5983.4458    589.59522    16319.207    14.971142 
    6630    1112.7995    -6106.832   -5982.6975     -543.118    16320.304    14.959377 
    6640    1101.8316   -6104.9255   -5982.0146    791.79892    16321.188    14.930329 
    6650    1079.2145   -6101.8122   -5981.4242    2518.7658    16322.597    14.901542 
    6660    1105.8191   -6104.2482   -5980.8924    1575.7086    16325.414    14.882591 
    6670     1111.181   -6104.3855   -5980.4316      682.679    16329.213    14.878753 
    6680     1108.311    -6103.731   -5980.0973    554.98285    16333.449       14.893 
    6690      1114.95   -6104.2576   -5979.8832    176.38041    16337.958    14.910103 
    6700    1103.0209   -6102.8623   -5979.8187   -56.534967    16342.518    14.913256 
    6710    1098.1367   -6102.3823   -5979.8835    51.598921        16347    14.901536 
    6720     1113.751   -6104.3345   -5980.0939    143.94056    16351.471    14.879594 
    6730     1114.124   -6104.7637   -5980.4815    105.48198    16355.994    14.858804 
    6740    1114.6147   -6105.4279   -5981.0909    80.216199    16360.545    14.856492 
    6750    1097.3971    -6104.374   -5981.9577    647.69545    16365.137    14.881857 
    6760    1066.9815   -6102.0523   -5983.0289    1433.4873     16370.11    14.929122 
    6770    1062.3427   -6102.7494   -5984.2434    1429.7247    16375.887     14.97817 
    6780    1047.5552   -6102.3687   -5985.5124    874.09985     16382.48     15.01048 
    6790    1030.4555   -6101.6661   -5986.7173    -509.9527    16389.511    15.021187 
    6800    1024.2539   -6102.0224   -5987.7653   -1681.5769     16396.14    15.019175 
    6810     1044.792   -6105.1849   -5988.6368   -2590.0645    16401.617    15.012446 
    6820    1050.0257   -6106.5071   -5989.3751   -3040.9164    16405.389    14.999998 
    6830    1024.2759   -6104.2188   -5989.9593   -2656.1211     16407.23    14.991146 
    6840    1041.7286   -6106.6275   -5990.4211    -3340.372     16407.28    15.006417 
    6850    1036.1568   -6106.3796   -5990.7947   -3893.0628    16405.209     15.05775 
    6860    994.02747    -6101.953   -5991.0677   -3173.7151     16400.77    15.123495 
    6870    984.36759   -6100.9996   -5991.1919    -2874.035    16394.341    15.172456 
    6880     1031.733   -6106.2898   -5991.1985   -3526.0322    16386.114    15.197323 
    6890     1049.541   -6108.2271   -5991.1492   -3803.9053    16375.787    15.210973 
    6900    1064.6624   -6109.8887    -5991.124   -3478.9922    16363.201    15.224526 
    6910    1036.4428   -6106.7181   -5991.1014   -1863.8269     16348.68    15.244621 
    6920    1030.2162   -6105.9866   -5991.0644   -42.707805    16333.196    15.260881 
    6930    1038.1634   -6106.7696   -5990.9609    1395.1554    16317.901    15.272596 
    6940     1061.641   -6109.2657   -5990.8381     942.3281    16303.617    15.293579 
    6950     1047.698   -6107.5995   -5990.7273    67.362949    16290.141    15.321746 
    6960    1056.1519   -6108.4514    -5990.636   -471.34702    16276.931      15.3399 
    6970    1059.0516   -6108.6894   -5990.5506    411.72481    16263.721    15.349888 
    6980    1063.2379   -6109.0903   -5990.4845    1551.4288    16250.989    15.362687 
    6990    1051.2644   -6107.6958   -5990.4256    3336.8513    16239.482    15.361901 
    7000    1046.5297   -6107.1092   -5990.3672    4347.3112    16230.202    15.322536 
    7010    1059.3244   -6108.4772   -5990.3079    3956.4694    16223.736    15.243104 
    7020    1088.7745   -6111.7432   -5990.2887    3049.6623    16219.809    15.143711 
    7030     1079.268   -6110.7363   -5990.3424    3667.8095    16217.953    15.056825 
    7040    1054.0916   -6108.0584   -5990.4729    4962.4585    16218.464    14.997267 
    7050    1033.1854   -6105.8922   -5990.6388    5698.6026    16222.036    14.964942 
    7060    1035.0199   -6106.2563   -5990.7983    5366.3702    16229.053    14.955107 
    7070    1038.3725   -6106.7765   -5990.9445    4084.4133    16239.268    14.967263 
    7080    1034.9013   -6106.5183   -5991.0735    2653.0681    16251.904     14.99631 
    7090    1042.1387   -6107.4197   -5991.1676    515.19659    16265.988     15.02556 
    7100    1077.7706   -6111.4703   -5991.2434   -2137.1921    16280.174    15.033472 
    7110    1089.0483   -6112.8639   -5991.3789   -3341.4842    16292.883    15.023403 
    7120    1041.3366   -6107.7798   -5991.6171   -1975.5593    16303.471    15.015451 
    7130    1034.0932   -6107.2646     -5991.91    -1829.018    16312.567    15.025861 
    7140     1041.678   -6108.4133   -5992.2125   -1714.7758    16320.403    15.055251 
    7150    1049.4242   -6109.6191   -5992.5543    -1142.812    16327.079     15.09722 
    7160    1046.2259   -6109.6591    -5992.951   -429.39954    16332.953     15.14004 
    7170     1033.283   -6108.6443   -5993.3801    82.245534    16338.482    15.162898 
    7180    1020.5628    -6107.673   -5993.8277   -112.82316    16343.945    15.153903 
    7190    1005.5223    -6106.407   -5994.2395   -428.45974    16349.278    15.120811 
    7200    1023.3162   -6108.7769   -5994.6244   -1108.3702     16354.24    15.084859 
    7210    1014.6031   -6108.1535    -5994.973   -1402.6231    16358.461    15.062516 
    7220      1021.29   -6109.2183   -5995.2918   -1863.1281    16361.717    15.065841 
    7230    1021.7033   -6109.5499   -5995.5774   -1781.4214    16363.779    15.092277 
    7240    1016.3229   -6109.1919   -5995.8196   -1554.2193    16364.696    15.131822 
    7250    1019.0001   -6109.6702   -5995.9992   -2051.2193    16364.566    15.169003 
    7260    1019.0005   -6109.8074   -5996.1363   -2160.4003    16363.151    15.196176 
    7270    1002.0665   -6107.9786   -5996.1966   -986.76723    16360.472    15.214095 
    7280    1020.1212   -6109.9683   -5996.1723   -121.53786    16357.185    15.227872 
    7290    1027.6667    -6110.713   -5996.0753    339.56219    16353.841    15.241096 
    7300    1018.7396   -6109.5469    -5995.905    528.76281    16350.752    15.254351 
    7310    1038.6369   -6111.5251   -5995.6636   -387.14252    16347.986     15.27232 
    7320    1053.4543    -6112.881   -5995.3666    -1294.236    16345.038    15.306627 
    7330    1033.0944    -6110.278   -5995.0348    -1089.497    16341.369    15.356219 
    7340    1023.3363   -6108.8107    -5994.656   -692.72188    16337.053    15.391168 
    7350    1027.0212   -6108.7479   -5994.1821   -423.50156    16332.367    15.393125 
    7360    1040.2448   -6109.6576   -5993.6168   -767.72388    16327.433    15.372812 
    7370    1053.2224   -6110.4659   -5992.9774   -1023.8016    16322.085    15.342022 
    7380    1069.4508   -6111.6063   -5992.3075   -810.08503    16316.181    15.305332 
    7390    1063.1934    -6110.229   -5991.6282    206.04349    16309.902    15.268365 
    7400    1075.8861    -6110.982   -5990.9653    757.17612    16303.798    15.239631 
    7410    1076.4671    -6110.412   -5990.3305    920.22361    16298.248     15.23393 
    7420     1096.392   -6112.0722    -5989.768   -268.94677    16293.246    15.255543 
    7430    1082.3517   -6110.0285   -5989.2905   -375.76357    16288.215    15.293679 
    7440    1074.1737   -6108.7294   -5988.9037   -976.67972    16282.967    15.339524 
    7450    1078.7628   -6108.9139   -5988.5763   -650.17885    16277.208     15.40028 
    7460     1045.811   -6104.9461   -5988.2843    1729.0165     16271.24    15.471274 
    7470    1049.6084   -6105.0902   -5988.0048    2826.1793    16266.342    15.523487 
    7480    1036.5071   -6103.3268   -5987.7029    3795.2824    16263.299    15.550638 
    7490    1023.7726   -6101.5723   -5987.3689    4135.3836    16262.655    15.569941 
    7500    1074.8475   -6106.8879    -5986.987    2869.1236    16264.522    15.594535 
    7510     1128.145   -6112.4651   -5986.6189    1554.2802    16268.178    15.619494 
    7520    1129.9716    -6112.442   -5986.3919    1436.0785    16272.849    15.645021 
    7530    1119.9912   -6111.2955   -5986.3588    1368.8231    16278.394    15.664908 
    7540     1119.617   -6111.3807   -5986.4858   -21.757119    16284.685    15.664575 
    7550    1151.8104    -6115.308   -5986.8219    -2254.608    16290.847     15.64617 
    7560     1119.442   -6112.3003   -5987.4249   -2210.3235    16295.681    15.630563 
    7570    1065.9012   -6107.1446   -5988.2418   -693.17153    16299.176    15.629666 
    7580    1049.9395   -6106.2979   -5989.1756    -320.5616    16302.143    15.636116 
    7590    1061.6909   -6108.6251   -5990.1919   -739.30568    16304.842    15.637405 
    7600    1056.5952   -6109.1411   -5991.2763   -1039.6683    16307.071     15.63955 
    7610    1051.6932   -6109.6973   -5992.3793   -1329.0564     16308.63    15.645602 
    7620    1050.2221   -6110.5852   -5993.4313   -1616.8116    16309.354    15.652188 
    7630    1066.9802   -6113.4401   -5994.4169    -2738.345    16308.999    15.667099 
    7640     1065.627   -6114.1816   -5995.3093   -3241.5192     16306.96    15.701176 
    7650    1063.9322   -6114.7706   -5996.0873   -3036.3726    16302.929    15.748993 
    7660    1064.1514   -6115.4575   -5996.7498   -2833.4186    16297.014    15.794557 
    7670    1052.6365   -6114.7264   -5997.3033   -2741.2458    16289.355    15.831867 
    7680    1033.6824   -6113.0422   -5997.7334   -2823.3322    16280.023    15.858477 
    7690    1047.1315   -6114.8733   -5998.0642   -2556.1821    16269.016    15.868889 
    7700    1072.5375   -6117.9807   -5998.3376   -2045.2224    16256.512     15.87203 
    7710    1080.2349    -6119.126   -5998.6241   -1562.5383    16242.834    15.872384 
    7720    1058.1563   -6116.9543   -5998.9154   -770.93841    16228.321     15.87683 
    7730    1061.9434   -6117.6597   -5999.1983   -111.58354    16213.456    15.888799 
    7740    1040.8712   -6115.5759   -5999.4651    918.12523    16198.679    15.903523 
    7750    1004.0755   -6111.6692   -5999.6631    2487.2408    16184.654    15.918351 
    7760     1010.564   -6112.4837   -5999.7538    3068.7641    16172.273    15.929425 
    7770    1034.3166   -6115.1467   -5999.7672     2575.203    16161.855    15.935508 
    7780    1035.9164   -6115.3061    -5999.748     2636.099    16153.164    15.948072 
    7790    1031.0223   -6114.7045   -5999.6924    3079.3186    16146.216    15.963659 
    7800    1037.6074   -6115.3582   -5999.6115    3238.5899    16141.211    15.970701 
    7810    1019.9199   -6113.2677   -5999.4941    3530.3427    16138.272    15.986268 
    7820    1039.9347   -6115.3404   -5999.3341    2907.4737    16137.489    16.025166 
    7830    1063.8063   -6117.8039   -5999.1347    2975.4493    16138.567    16.086188 
    7840    1084.0876   -6119.8933   -5998.9617    2316.3191    16141.436    16.150019 
    7850    1089.1497    -6120.356   -5998.8597    1302.8524    16145.722    16.194651 
    7860    1054.7595   -6116.4751   -5998.8151    777.89524    16150.832    16.218327 
    7870    1071.1503   -6118.2981   -5998.8096   -800.58335    16156.317    16.240375 
    7880    1063.1662   -6117.4273   -5998.8295   -858.24799    16161.376    16.259464 
    7890    1035.8018   -6114.4137   -5998.8685    477.80679    16165.956    16.271381 
    7900    1034.3948   -6114.2971   -5998.9088    997.75238    16170.746    16.281471 
    7910    1023.1482   -6113.0531   -5998.9194    1458.9514    16176.113    16.296911 
    7920    992.76752   -6109.6012   -5998.8565    2187.4843    16182.379    16.315565 
    7930    1031.3647   -6113.7415   -5998.6912     744.7597    16189.837    16.338957 
    7940    1068.3741   -6117.6079   -5998.4292   -895.13956    16197.736    16.375387 
    7950    1052.7977   -6115.5998   -5998.1586   -1083.4222    16205.137    16.425949 
    7960     1034.776    -6113.309   -5997.8782   -885.22229    16211.838    16.476608 
    7970    1047.2346   -6114.3573   -5997.5367   -1113.4178    16217.929    16.514628 
    7980      1064.61   -6115.9045   -5997.1456   -1252.4642    16223.311    16.538671 
    7990    1066.1752   -6115.6669   -5996.7335   -1145.2892     16227.88    16.549803 
    8000     1047.664    -6113.175   -5996.3065   -20.757588    16231.778    16.558934 
    8010    1052.7444   -6113.2791   -5995.8439    588.38348    16235.631    16.565896 
    8020     1044.614    -6111.843   -5995.3147    810.66924    16239.834    16.568937 
    8030    1055.0031   -6112.4169   -5994.7297    754.55007    16244.519     16.57559 
    8040    1056.2982   -6111.9214   -5994.0898    703.84276    16249.668    16.582526 
    8050    1046.5655   -6110.1666   -5993.4206     655.1866    16255.238    16.574446 
    8060    1049.9522   -6109.8128    -5992.689   -386.04949    16261.152    16.557076 
    8070    1072.4891     -6111.55   -5991.9122   -2100.0461    16266.754    16.548215 
    8080     1070.716   -6110.5847   -5991.1447   -1852.7468    16271.125     16.56695 
    8090    1036.0854   -6105.9882   -5990.4114    181.66115    16274.423    16.617635 
    8100    1044.1781   -6106.1747    -5989.695    376.59239    16277.702    16.684328 
    8110    1064.3398   -6107.6927    -5988.964    114.29268    16281.217    16.751073 
    8120    1062.2158   -6106.7596   -5988.2679   -154.34453    16284.788     16.80531 
    8130    1105.7443   -6110.9868   -5987.6394   -194.83615    16288.266    16.827906 
    8140    1105.4826   -6110.4487   -5987.1304    850.58211    16291.677      16.8194 
    8150    1085.5926   -6107.8923   -5986.7928    1555.6753    16295.586    16.790856 
    8160    1078.3806   -6106.8547   -5986.5598    1390.7146    16300.444    16.752677 
    8170    1071.4722    -6105.927   -5986.4026    1096.1982    16306.173     16.71282 
    8180    1063.9771   -6104.9874   -5986.2991    795.48774      16312.6    16.680486 
    8190    1067.7568    -6105.346   -5986.2361    621.26544    16319.545    16.673124 
    8200    1072.5707   -6105.8573   -5986.2104    611.05738    16326.908    16.691188 
    8210     1087.796   -6107.5876   -5986.2423    -151.7287    16334.611    16.715445 
    8220    1083.5492    -6107.222   -5986.3505   -297.02756    16342.257    16.738628 
    8230    1076.8706   -6106.6616    -5986.535   -484.08542    16349.717    16.766156 
    8240    1072.1366   -6106.3785   -5986.7801   -1433.4996    16356.835    16.809722 
    8250    1069.9215    -6106.429   -5987.0776   -2590.0599    16363.023    16.862204 
    8260    1047.9962   -6104.3183   -5987.4128   -2228.9093    16367.658    16.905847 
    8270    1028.2967   -6102.4633   -5987.7553   -1125.9037    16370.918    16.938562 
    8280    1029.8898   -6102.9476   -5988.0618   -874.35612    16373.424    16.966994 
    8290    1080.1395   -6108.8609   -5988.3698   -2563.0555    16375.249    16.984871 
    8300    1104.2284   -6111.9512   -5988.7728   -3624.7782    16375.476    16.986298 
    8310    1083.1915   -6110.1764   -5989.3447   -2806.2769    16373.482    16.972642 
    8320    1032.9675   -6105.2346   -5990.0055   -675.06567    16369.791    16.958818 
    8330    1036.5422   -6106.3422   -5990.7143   -559.14784    16365.524    16.955226 
    8340    1034.8847   -6106.9159    -5991.473   -822.04428    16360.874    16.955293 
    8350    1011.0702   -6105.0377   -5992.2513   -896.88139    16355.717    16.951789 
    8360    1042.2081   -6109.3214   -5993.0615   -1922.4366    16349.927    16.944464 
    8370    1052.9773   -6111.4218   -5993.9606   -2294.6147    16342.927    16.939897 
    8380    1032.7286   -6110.1394    -5994.937    -1501.523    16334.502    16.945998 
    8390    1020.3246   -6109.7582   -5995.9395   -1109.8474    16325.064    16.969755 
    8400    1001.0789   -6108.5743   -5996.9024   -1136.2765    16314.876    17.013412 
    8410    1011.3164   -6110.5903   -5997.7764   -1730.0206    16303.918      17.0688 
    8420    1049.1104    -6115.629   -5998.5992   -2946.4703    16291.801    17.114952 
    8430    1049.4969   -6116.4755   -5999.4026    -3158.642    16277.836    17.138288 
    8440    1031.1355   -6115.1652   -6000.1405   -1829.5438    16261.903    17.130621 
    8450    1024.9005   -6115.0829   -6000.7537   -554.96573    16244.762    17.101496 
    8460    1014.5782   -6114.4041   -6001.2263   -40.135737    16227.179    17.084045 
    8470    1021.0963   -6115.4711   -6001.5663   -56.027799    16209.485    17.097041 
[...]
   22890    1075.5657   -6146.1972   -6026.2163    35.955906    15632.148    21.370565 
   22900    1026.9397   -6140.4829   -6025.9262    2588.1756    15641.278    21.405668 
   22910    1009.7517   -6138.2163    -6025.577    4239.0273    15651.991    21.449001 
   22920    1040.7268   -6141.1962   -6025.1015    3070.5677      15665.2    21.464793 
   22930    1094.9504   -6146.6265   -6024.4831   -280.16587     15680.29    21.442466 
   22940    1100.0387   -6146.5227   -6023.8117    -1969.552    15695.506     21.39649 
   22950    1062.2821   -6141.6749   -6023.1757   -1388.1718    15709.863    21.340966 
   22960    1043.4061   -6138.9188   -6022.5252    -1034.787    15723.568    21.281857 
   22970    1064.8672   -6140.5808   -6021.7932   -1373.1537    15736.795    21.223643 
   22980    1051.0069   -6138.2331   -6020.9917   -443.58661    15749.448    21.177686 
   22990    1060.0718   -6138.4122   -6020.1596   -15.476171    15761.951     21.14985 
   23000    1074.5123   -6139.1496   -6019.2861   -304.96212    15774.573    21.140959 
   23010    1085.4475   -6139.5074    -6018.424    -861.9062    15787.173    21.156565 
   23020    1070.6545   -6137.0529   -6017.6197   -933.32991    15799.437    21.198882 
   23030    1065.7024   -6135.7664   -6016.8857   -948.18516    15811.305    21.257396 
   23040    1080.7693   -6136.7632   -6016.2017   -1644.2548    15822.719    21.316839 
   23050    1076.2469   -6135.6467   -6015.5897    -1880.067    15833.318    21.364888 
   23060    1077.4245   -6135.2538   -6015.0655   -2574.0855    15842.893     21.39711 
   23070    1098.7879   -6137.2026   -6014.6311   -4225.5985     15850.98    21.415631 
   23080    1102.2107   -6137.2637   -6014.3104   -4743.9205    15856.675    21.422788 
   23090    1075.6961    -6134.114   -6014.1185   -3786.1413    15859.653    21.411187 
   23100    1105.4464   -6137.3501   -6014.0359   -4342.2676     15860.28    21.372304 
   23110    1103.2277   -6137.1388    -6014.072   -4396.9497    15858.334     21.32645 
   23120    1082.6016   -6135.0028    -6014.237   -2695.5591    15853.802    21.298198 
   23130     1063.617   -6133.1066   -6014.4585   -354.98536    15847.619     21.30625 
   23140     1062.976   -6133.2718   -6014.6953     896.0482    15841.095     21.34469 
   23150    1076.9018    -6135.088    -6014.958     484.1168    15834.961    21.381305 
   23160    1089.8146    -6136.858   -6015.2875   -935.87871     15828.98    21.399716 
   23170    1109.0641   -6139.4456   -6015.7278   -2005.5234     15822.39    21.394754 
   23180    1107.3776   -6139.8473   -6016.3177   -1801.1768    15814.567    21.369381 
   23190      1064.38   -6135.7375   -6017.0043    -335.0473    15805.633    21.342856 
   23200    1068.6834   -6136.9359   -6017.7227   -244.07016    15796.301    21.325519 
   23210    1082.8098   -6139.2761    -6018.487   -744.55565    15786.677    21.324349 
   23220    1071.8701   -6138.8571   -6019.2884   -812.36833    15776.526    21.339351 
   23230    1047.9892   -6136.9645   -6020.0597   -28.826042    15765.831    21.345347 
   23240    1037.1791   -6136.4243   -6020.7254    526.41265    15754.961    21.322069 
   23250    1043.9543   -6137.7211   -6021.2664    1044.4352    15744.287    21.278305 
   23260    1043.8251   -6138.1416   -6021.7014    1174.4526    15734.077    21.232962 
   23270    1021.3527   -6135.9547   -6022.0213    1737.0914     15724.47    21.206928 
   23280    1020.7936   -6136.0907   -6022.2196    1763.8541    15715.747    21.196505 
   23290    1050.7987   -6139.5446   -6022.3265    1128.1605    15707.935    21.179135 
   23300    1067.7863   -6141.5134   -6022.4002    555.39225    15700.715    21.137802 
   23310    1080.1145   -6142.9818   -6022.4934   -2.7944954    15693.734    21.064617 
   23320    1072.4252   -6142.2522   -6022.6215    333.34416    15686.712    20.970517 
   23330    1066.6794   -6141.7695   -6022.7798    273.14324    15679.784    20.880993 
   23340    1080.9757   -6143.5468   -6022.9623   -891.10191    15672.886    20.819663 
   23350    1105.0639   -6146.4772   -6023.2056   -1346.3975    15665.435    20.793033 
   23360    1082.1723   -6144.2449   -6023.5269   -336.60236    15657.188    20.792179 
   23370    1073.7362   -6143.6754   -6023.8985   -74.832694    15648.608    20.793632 
   23380    1081.7469   -6144.9879   -6024.3174   -562.04314    15639.857    20.774529 
   23390    1068.2813   -6143.9431   -6024.7747    104.41406    15630.762    20.734548 
   23400    1039.6981   -6141.2123   -6025.2324    1721.3486    15621.685    20.691563 
   23410    1018.6861   -6139.2514   -6025.6154    3334.9486    15613.538    20.659628 
   23420     1062.374   -6144.4673   -6025.9578    2087.4577    15607.102    20.642217 
   23430    1074.3428   -6146.1615   -6026.3169    805.04326     15601.84     20.63638 
   23440    1054.4359   -6144.3386   -6026.7147    1071.7549    15597.075     20.62407 
   23450    1041.8899   -6143.3356   -6027.1112    1887.1675      15592.9    20.592454 
   23460    1035.7134   -6143.0159   -6027.4805    2845.4314    15589.791    20.534652 
   23470    1035.2745   -6143.3064     -6027.82    2838.0025    15588.269     20.46201 
   23480     1055.554   -6145.8803   -6028.1317    1206.8338    15588.312    20.403347 
   23490    1096.4391   -6150.7947   -6028.4853    -603.3845    15589.053    20.378658 
   23500    1074.3665   -6148.7688   -6028.9216    96.138037    15589.603    20.383133 
   23510    1044.4884   -6145.9257   -6029.4114    1014.2905    15590.203    20.406341 
   23520    1041.9207   -6146.1247   -6029.8969     1012.896    15591.341    20.428901 
   23530    1043.7292   -6146.7937   -6030.3641    852.63519    15593.093    20.437863 
   23540    1044.3503   -6147.3196   -6030.8208    441.43919    15595.372    20.424576 
   23550    1043.4815   -6147.6671   -6031.2652    84.311872    15597.964    20.395509 
   23560    1046.7337   -6148.4565   -6031.6918   -783.78809    15600.612    20.374607 
   23570     1047.464    -6148.969   -6032.1228   -1313.1933    15602.853    20.369495 
   23580    1016.0154   -6145.8708   -6032.5327   -227.76346    15604.448    20.380948 
   23590    999.92752   -6144.4156   -6032.8722    701.16572     15605.92      20.3981 
   23600    1006.4484   -6145.3847   -6033.1139    877.02778    15607.786    20.403095 
   23610    1023.0207   -6147.3904   -6033.2709    835.74258    15610.187    20.395364 
   23620    1035.1389   -6148.8412   -6033.3699    73.457836    15613.083    20.381488 
   23630    1045.5932   -6150.0775     -6033.44   -1365.9103    15616.042     20.37349 
   23640     1065.562   -6152.3849   -6033.5198   -2822.6067    15618.232    20.381912 
   23650    1040.1599   -6149.6486   -6033.6172   -2466.4262     15618.89    20.404945 
   23660    1014.3572   -6146.8644   -6033.7113   -1089.6324    15618.161    20.430931 
   23670    1001.4436   -6145.4543   -6033.7417   -404.24163    15616.747    20.448797 
   23680    996.68404   -6144.8394   -6033.6578   -414.41314    15615.055    20.455367 
   23690    1009.2716   -6146.0216   -6033.4358   -870.45071    15613.092    20.459276 
   23700    1028.3988   -6147.7881   -6033.0687     -974.868    15610.616    20.478655 
   23710    1018.0724   -6146.1354   -6032.5679   -99.650213    15607.594    20.523701 
   23720    1012.4401   -6144.8259   -6031.8866    586.71406    15604.474    20.584112 
   23730    1048.1407   -6147.9044   -6030.9827     13.71532    15601.599    20.639358 
   23740    1053.1214   -6147.3518   -6029.8745    382.21846    15598.772    20.685176 
   23750    1049.0187   -6145.6868   -6028.6671    1094.8688    15596.166    20.734204 
   23760    1072.0347   -6147.0023   -6027.4152    448.01873    15594.113    20.809092 
   23770    1078.5326   -6146.5289    -6026.217    254.52505    15592.343    20.914301 
   23780    1076.0152   -6145.2048   -6025.1737    587.86814    15590.753    21.026159 
   23790    1086.8198   -6145.5269   -6024.2905    92.638026    15589.436    21.126696 
   23800    1073.5917   -6143.3563   -6023.5955    1339.7352     15588.26     21.20957 
   23810    1053.0829   -6140.5252   -6023.0523    3029.6139    15587.886    21.266809 
   23820    1086.1772   -6143.7869   -6022.6222    3016.0855    15589.157    21.308134 
   23830    1092.6856      -6144.2   -6022.3092    3981.6486    15592.248     21.35509 
   23840    1052.2455   -6139.4864   -6022.1068    5316.8263    15597.709    21.413564 
   23850     1071.936   -6141.5378   -6021.9617    3959.6237    15606.176    21.482059 
   23860    1104.7254   -6145.1038     -6021.87    1757.1494     15616.97    21.553204 
   23870     1103.961    -6145.047   -6021.8985    2008.5204    15629.006    21.614398 
   23880    1088.1505   -6143.4246   -6022.0397    2759.7479    15642.311    21.660406 
   23890    1073.1708    -6141.985   -6022.2711     2773.212     15657.28    21.697835 
   23900    1066.5418   -6141.5218   -6022.5475    1717.2159    15673.901    21.745726 
   23910    1035.6943   -6138.3693    -6022.836    1853.5273    15691.691    21.804303 
   23920    1024.6216   -6137.3854   -6023.0873    1485.9822    15710.643    21.847472 
   23930    1063.0249   -6141.8684   -6023.2863   -675.99168    15730.464    21.852873 
   23940    1067.7735   -6142.5807   -6023.4689   -2202.7686        15750    21.821612 
   23950    1061.9346   -6142.1394    -6023.679   -3097.7331     15768.32     21.77515 
   23960    1054.0896   -6141.4937   -6023.9085   -3998.8654    15784.844    21.744883 
   23970    1070.6986   -6143.5997   -6024.1617   -4631.3958    15799.042    21.746921 
   23980    1077.0704   -6144.6263   -6024.4774   -4463.2788     15810.55    21.777101 
   23990    1027.7551   -6139.4861   -6024.8385   -3300.4354    15819.477    21.819628 
   24000    1003.9677   -6137.1604   -6025.1663   -3186.7125    15826.393    21.846018 
   24010    1011.2424   -6138.2207    -6025.415   -3743.8512    15831.377    21.834302 
   24020    1004.4336   -6137.6451   -6025.5991   -2968.6996    15834.197    21.797431 
   24030    980.83927   -6135.1014   -6025.6873   -1728.4718     15835.28    21.755885 
   24040    1001.6029   -6137.3832   -6025.6528   -2096.0327    15835.243    21.722258 
   24050    1020.3734   -6139.3177   -6025.4935   -2461.0217    15833.968    21.711754 
   24060    1024.3014   -6139.5135   -6025.2511   -2712.1661    15831.222    21.724013 
   24070    1025.0606   -6139.2637   -6024.9167   -2932.6698     15826.85    21.740533 
   24080    1033.3259   -6139.7576   -6024.4886    -2844.888    15820.726    21.740637 
   24090    1053.5868   -6141.4869   -6023.9577   -2406.8324    15812.906    21.710432 
   24100    1044.5047   -6139.8457   -6023.3297   -1498.0716    15803.648     21.66072 
   24110    1028.8364    -6137.352   -6022.5837   -511.43106    15793.486    21.621889 
   24120    1058.3172   -6139.7578   -6021.7009   -1039.7447    15782.906    21.618324 
   24130    1067.9422   -6139.8212   -6020.6907   -1334.4177    15771.705    21.656373 
   24140    1077.2053   -6139.8026   -6019.6387   -998.95769    15759.714    21.721635 
   24150     1079.129   -6138.9651   -6018.5867    173.50488    15747.139    21.788528 
   24160    1054.7574   -6135.2439   -6017.5842    2036.7751    15734.665    21.826033 
   24170    1077.3384   -6136.8201   -6016.6414    2737.3455    15723.297    21.812491 
   24180    1105.0968   -6139.0596   -6015.7844    3005.6998    15713.495    21.764947 
   24190    1102.7386   -6138.1187   -6015.1065    3542.8264    15705.454    21.716014 
   24200    1087.5293   -6135.9302   -6014.6147    3638.9796    15699.456    21.683653 
   24210    1076.6107     -6134.37   -6014.2725    2840.4434    15695.543    21.677677 
   24220    1103.7339   -6137.1644   -6014.0412    968.94296    15693.243    21.688396 
   24230    1138.0107   -6140.8996   -6013.9528   -375.89506    15691.552    21.697128 
   24240    1148.0792   -6142.1452   -6014.0752   -105.19006    15689.707    21.692283 
   24250    1104.8225   -6137.6305   -6014.3859     1971.414    15687.887    21.668259 
   24260    1094.5792   -6136.8817   -6014.7797    2349.5509    15687.136    21.636665 
   24270    1128.5428    -6141.147   -6015.2563    619.82511    15687.646    21.618001 
   24280    1115.5405    -6140.262   -6015.8218    110.71453    15688.613     21.62081 
   24290    1078.0739   -6136.7173   -6016.4565    440.22002    15689.686    21.633213 
   24300    1067.4964   -6136.1361   -6017.0553    529.06265    15691.002     21.63212 
   24310    1071.7955   -6137.1739   -6017.6135    190.39994    15692.624    21.608637 
   24320     1042.672   -6134.4271   -6018.1155    1126.5017    15694.451    21.574933 
   24330    1026.4723   -6133.0236   -6018.5191    2163.5386    15696.973     21.54476 
   24340     1062.246   -6137.3322   -6018.8371    912.87146    15700.661    21.524214 
   24350    1101.3357   -6142.0101   -6019.1545   -1112.4094    15704.868    21.510963 
   24360    1092.6458   -6141.4094   -6019.5231   -1672.1853    15708.537     21.50807 
   24370    1109.1653   -6143.6999   -6019.9708   -2543.6973     15711.22    21.506991 
   24380    1122.0827   -6145.6742   -6020.5042   -3556.8602    15712.404    21.483791 
   24390    1105.7597   -6144.4756   -6021.1264   -2852.0006    15711.581    21.437986 
   24400    1087.7208    -6143.138   -6021.8011   -1849.5523    15709.053     21.38771 
   24410    1064.6597   -6141.2296   -6022.4652   -259.17498    15705.447    21.345354 
   24420    1026.4673   -6137.5658   -6023.0618    1272.5207     15701.66    21.321071 
   24430    1026.7859   -6138.0862   -6023.5467    520.45767    15698.481    21.311415 
   24440    1065.4473   -6142.8184   -6023.9662    -1868.494    15695.511    21.306574 
   24450    1085.1237   -6145.4359   -6024.3887   -2991.8784    15691.511    21.294554 
   24460    1073.2273   -6144.5722   -6024.8521   -2358.6772    15685.809     21.26966 
   24470    1034.0072   -6140.6498   -6025.3047    362.52288    15678.801    21.229996 
   24480    1030.3528   -6140.6189   -6025.6815    2102.1703    15671.918    21.172424 
   24490    1055.1722   -6143.7011   -6025.9951    1653.1421     15666.12    21.112986 
   24500    1048.4523   -6143.2331   -6026.2767     950.3848    15661.263    21.082772 
   24510     1040.216   -6142.5876     -6026.55    1043.5097    15656.994    21.081665 
   24520     1044.973   -6143.3585   -6026.7902    945.96766    15653.314    21.084679 
   24530    1064.3314   -6145.7544   -6027.0267   -200.04784    15650.116    21.072104 
   24540      1066.64   -6146.2607   -6027.2754   -1333.7137     15646.78    21.036396 
   24550    1060.9845   -6145.9249   -6027.5705   -1033.1583    15642.712    20.991957 
   24560    1042.7728   -6144.1964   -6027.8736    297.64173    15638.061    20.969697 
   24570    1049.2429   -6145.2119   -6028.1672    352.70148    15633.482    20.981599 
   24580      1052.15   -6145.8349    -6028.466    154.67848    15629.074    21.022782 
   24590    1026.9048   -6143.3047   -6028.7519      887.541    15624.784    21.076977 
   24600    1018.1601   -6142.5577   -6028.9804    827.55976    15620.942    21.118373 
   24610    1033.1209   -6144.4043   -6029.1582   -89.939303      15617.5    21.128405 
   24620    1040.5065   -6145.3758   -6029.3057   -333.61762    15614.019    21.109753 
   24630    1044.5391   -6145.9589    -6029.439   -225.98613    15610.329    21.076129 
   24640     1057.566   -6147.5496   -6029.5765   -318.73797    15606.465    21.045436 
   24650    1051.3698   -6147.0141   -6029.7322    135.60107    15602.426    21.019276 
   24660     1044.841   -6146.4561   -6029.9025    542.12883    15598.441    20.980842 
   24670    1059.4665   -6148.2617   -6030.0767   -234.27512    15594.678    20.928992 
   24680    1075.8478   -6150.3205   -6030.3081   -611.40058    15590.755    20.880102 
   24690    1040.9853   -6146.7283   -6030.6048    86.585089    15586.506    20.852865 
   24700    1036.4787   -6146.5635   -6030.9427   -126.39529    15582.209    20.849227 
   24710    1030.2704   -6146.2226   -6031.2944    356.58112    15577.854     20.86124 
   24720    1030.6102   -6146.6244   -6031.6583    465.59224    15573.657     20.88277 
   24730    1064.9334   -6150.8753   -6032.0804   -839.27212    15569.614    20.910582 
   24740    1077.9871   -6152.8818   -6032.6307   -1191.7112    15565.097    20.942633 
   24750     1044.008   -6149.7893   -6033.3287   -329.87976    15559.906    20.979548 
   24760    1034.1047   -6149.4806   -6034.1246   -253.85745    15554.424    21.017193 
   24770    1035.5266   -6150.5157   -6035.0011   -41.812654    15548.742     21.04629 
   24780    1013.6216   -6148.9771   -6035.9061    511.33272    15542.991    21.063694 
   24790    1006.0022    -6149.004   -6036.7829    443.47874    15537.444    21.066494 
   24800    1002.7444   -6149.4454   -6037.5878    424.11108    15532.097    21.055512 
   24810    1009.5359   -6150.9117   -6038.2965    479.92861    15526.943    21.043819 
   24820     1018.476   -6152.5435    -6038.931   -19.356064    15521.987    21.044367 
   24830    1005.4714   -6151.6342   -6039.4723   -511.86382     15516.96    21.064913 
   24840    1020.3084   -6153.7357   -6039.9188   -990.98021    15511.557    21.110527 
   24850    1032.1366   -6155.4308   -6040.2944   -781.70518    15505.545    21.186994 
   24860    1028.8327   -6155.3832   -6040.6153   -317.70764    15499.032    21.278396 
   24870    1029.4337   -6155.7289    -6040.894    -468.7812    15492.234    21.348925 
   24880    1021.2078   -6155.0325   -6041.1152    55.491231    15485.132    21.380889 
   24890    1015.6393    -6154.569   -6041.2729    627.46993    15477.973    21.377373 
   24900    1003.4491   -6153.2865   -6041.3502    893.32597    15471.082     21.34655 
   24910    1003.1174   -6153.2288   -6041.3296    863.62222     15464.61    21.307011 
   24920    1031.8981    -6156.328   -6041.2182    248.22974    15458.524    21.285534 
   24930    1054.8518    -6158.729   -6041.0587   -551.58982     15452.48    21.297008 
   24940    1031.4036   -6155.9361   -6040.8815    1108.6474    15446.187    21.337305 
   24950     995.2993   -6151.6753   -6040.6482    2567.9844    15440.447     21.38923 
   24960    1019.9567   -6154.0809   -6040.3031    765.99811    15435.929    21.438708 
   24970    1036.1179   -6155.4255    -6039.845   -218.70755    15431.852     21.47943 
   24980    1016.8176   -6152.7247   -6039.2972    1068.7275    15427.708    21.508147 
   24990    1032.9183   -6153.8544   -6038.6308    2406.4104    15424.124    21.524135 
   25000    1046.3277   -6154.5476   -6037.8282     2656.496    15421.822    21.526029 
Loop time of 21189.4 on 16 procs for 20000 steps with 864 atoms

Performance: 0.082 ns/day, 294.297 hours/ns, 0.944 timesteps/s
94.7% CPU use with 16 MPI tasks x 1 OpenMP threads

MPI task timing breakdown:
Section |  min time  |  avg time  |  max time  |%varavg| %total
---------------------------------------------------------------
Pair    | 15090      | 19445      | 20429      |1067.7 | 91.77
Bond    | 0.0032506  | 0.0069867  | 0.017015   |   4.6 |  0.00
Neigh   | 0.30716    | 0.32264    | 0.33278    |   1.3 |  0.00
Comm    | 215.51     | 1425.9     | 5536.8     |3712.2 |  6.73
Output  | 1.4363     | 1.4825     | 2.1659     |  14.5 |  0.01
Modify  | 96.964     | 316.01     | 560.89     | 908.7 |  1.49
Other   |            | 0.1781     |            |       |  0.00

Nlocal:        54.0000 ave          54 max          54 min
Histogram: 16 0 0 0 0 0 0 0 0 0
Nghost:        557.438 ave         579 max         534 min
Histogram: 1 0 2 2 4 1 1 2 2 1
Neighs:         0.00000 ave           0 max           0 min
Histogram: 16 0 0 0 0 0 0 0 0 0
FullNghs:      3185.75 ave        3248 max        3118 min
Histogram: 2 2 2 0 0 4 0 2 1 3

Total # of neighbors = 50972
Ave neighs/atom = 58.995370
Ave special neighs/atom = 0.0000000
Neighbor list builds = 2000
Dangerous builds = 2000
unfix   3
                
Total wall time: 7:17:55
