LAMMPS data file via write_data, version 2 Aug 2023, timestep = 80000, units = metal

1536 atoms
3 atom types

-0.9743402776153705 25.904952522513582 xlo xhi
-0.666132523641604 25.59674476853999 ylo yhi
-3.2605363587239466 78.05237309342041 zlo zhi

Masses

1 35.44999999088069
2 39.09829998994218
3 6.939999998214724

Atoms # full

7 0 1 -1 2.103972683361837 1.7996109004155807 -0.5160598482685042 0 0 0
5 0 1 -1 6.412428353338481 -0.3408730237541289 -1.9270870633883588 0 0 0
4 0 2 1 9.665621355273132 2.131614142553577 -1.3500906744361993 0 0 0
487 0 1 -1 15.8240769615541 2.573871825900348 -0.5942543664332227 0 0 0
387 0 2 1 16.273537059225575 0.34171986409429 -2.9880341079547774 0 0 0
770 0 2 1 20.757957009125725 -0.1648723728014896 -1.516646484241378 0 0 0
1155 0 2 1 25.710223956917552 -0.5234086389317505 -0.30404960134099346 0 0 0
1255 0 1 -1 23.571837524582598 1.3123037241184516 -2.0887867758722765 0 0 0
1253 0 1 -1 0.7309839551928754 4.891704673223739 -2.8466595363811513 1 0 0
2 0 2 1 3.8682493647905876 3.786333226373605 -1.9697601922110552 0 0 0
8 0 1 -1 6.890819584658949 4.4697204602057194 -2.043180640382108 0 0 0
101 0 1 -1 12.340878327128939 4.038907336505595 -0.6018476676803264 0 0 0
386 0 3 1 13.945925169328952 3.3004705891430284 -2.0337406762704227 0 0 0
388 0 2 1 18.489880222667416 4.762614277420429 -0.8061091108867724 0 0 0
774 0 1 -1 20.878045709473277 5.664743239248851 -2.2155665963626285 0 0 0
1156 0 2 1 2.4417796479693115 7.751699241589842 -2.4277333864924473 1 0 0
102 0 1 -1 9.089654743293814 8.153472012160199 -1.5173405586297914 0 0 0
98 0 2 1 6.386051676788717 6.919204175793577 -0.43784737166436516 0 0 0
489 0 2 1 13.540111142246957 7.712559097192344 -2.9699795299620178 0 0 0
865 0 2 1 16.542874972092775 9.160857502994164 -1.153550448470126 0 0 0
271 0 1 -1 17.808730378670845 6.761396908503499 -2.898766437850265 0 1 1
963 0 2 1 20.286823089293435 8.468657886767295 -1.7862203709695796 0 0 0
1434 0 2 1 24.407468039810183 7.682286075730147 -1.6699831793394135 0 1 1
1349 0 1 -1 -0.3956512196654094 10.031728009958359 -0.5121983872858982 1 0 0
199 0 1 -1 4.129282587388202 10.14197336966594 -0.8259334356252008 0 0 0
100 0 2 1 9.969336571756115 11.180717262345413 -2.2816009233147003 0 0 0
582 0 1 -1 12.365187563390071 12.31936996758758 -0.3497846904689288 0 0 0
968 0 1 -1 15.881648285212462 12.26773462533853 -0.5595740179325124 0 0 0
1329 0 2 1 0.044947773522035384 13.350093978253165 -1.492828794312732 1 0 1
193 0 2 1 5.074012736739862 12.761415301416536 -2.8171937971997485 0 0 0
1357 0 1 -1 2.6900476045656734 13.988874446353071 -0.19408023404760533 1 0 0
1242 0 2 1 9.013170170487944 14.897464854705376 -1.5594990620773144 1 -1 1
577 0 2 1 13.868244631080705 13.834809962072455 -2.402809310994531 0 0 0
964 0 2 1 19.06460117525357 13.817322741882528 -1.9002867644244412 0 0 0
1239 0 1 -1 23.369109485148527 12.596509894728122 -2.900267988504834 0 0 1
1443 0 3 1 23.729054077154906 15.09912709880563 -2.029992761104821 0 0 0
580 0 2 1 3.3529434274072525 16.45007156063172 -1.972428364616077 0 0 0
584 0 1 -1 10.405837331338295 17.35390400230853 -1.1791183679693984 0 0 0
1063 0 1 -1 14.823181322378826 16.499312516809365 -1.0315710867456236 0 0 0
571 0 2 1 16.4802186025846 18.285291486158243 -2.618151588966627 0 0 1
965 0 1 -1 21.35145257165906 16.06681187241877 -2.18352053989181 0 0 0
731 0 2 1 21.477662872338293 19.0111891005457 -1.0850448779606117 0 0 1
1441 0 2 1 -0.49784647334035975 19.566291285456757 -2.23667996457272 1 0 0
1446 0 1 -1 1.4873758844646057 22.101459573358618 -0.6094832830210035 1 0 0
289 0 2 1 4.432393206291712 20.02874675327605 -0.609762384764053 0 0 0
293 0 1 -1 8.817079321468297 21.75429172299623 -0.5725371622562769 0 0 0
673 0 2 1 11.020054781266076 21.972747531172224 -2.6337303203768414 0 0 0
680 0 1 -1 13.195470524863794 20.058603237479726 -1.8908840397240643 0 0 0
1064 0 1 -1 16.622804106346365 21.107280885100412 -2.7237361690115693 0 0 0
292 0 3 1 0.4041980033776389 23.205166781605545 -2.4350071382434275 0 0 0
294 0 1 -1 4.638771349902143 23.595380002231003 -0.07175589039242203 0 0 0
1 0 2 1 3.5272769707092255 25.052695178629797 -2.550753046432794 0 -1 0
361 0 2 1 7.259316349032417 23.22489656605669 -2.3180021878347774 0 1 1
397 0 1 -1 10.068703241908729 25.26637963454285 -2.1796574875152386 0 -1 0
688 0 1 -1 14.338253726898985 24.197752341763106 -2.4279137879643384 0 0 0
1059 0 2 1 24.027163240701675 22.749496906597923 -2.3315614507843714 0 0 0
3 0 2 1 5.040896026535168 0.29179702104428396 0.9791641029566547 0 0 0
400 0 1 -1 10.439117408053571 0.9767713359239711 1.2477018107282207 0 0 0
483 0 2 1 13.50342096195208 0.5760472731194584 0.04912098905082418 0 0 0
390 0 1 -1 19.988349339488103 2.054026624742986 0.5650662746436059 0 0 0
1450 0 2 1 20.647649850654112 -0.13792552704147598 2.789881142287517 0 1 0
775 0 1 -1 24.14257050685407 1.1437633185244456 1.909419327314871 0 0 0
1251 0 2 1 0.27267009860387637 4.3000826872613125 0.3154367460326095 1 0 0
16 0 1 -1 0.8734966871651884 5.7099309232483275 3.1101007839301964 0 0 0
105 0 2 1 2.9151464036722854 2.890399718113456 2.4932420238305015 0 0 0
6 0 1 -1 6.1617415852558635 2.9775591964477774 2.6509185215461457 0 0 0
395 0 2 1 12.28373876170089 2.6790079476224142 2.7236638495019525 0 0 0
866 0 2 1 14.546390457933274 4.546983891419572 1.0893239164834982 0 0 0
1154 0 2 1 18.105570993864788 2.6747861493804694 3.0374441684501505 0 0 0
488 0 1 -1 18.414046663372822 5.562605361380012 1.9384715243456627 0 0 0
771 0 2 1 22.742365101855924 3.7058645727901753 0.16042868599785542 0 0 0
1261 0 1 -1 24.659728087794598 5.747041683740486 1.6702047088785692 0 0 0
1260 0 2 1 -0.6344614647833742 8.018852582567984 2.6871034043353097 1 0 0
103 0 1 -1 3.283486234791952 5.981698088503248 0.5215163378750871 0 0 0
496 0 1 -1 7.844139050814919 7.229375600601978 2.356388365215312 0 0 0
99 0 2 1 10.950800817370752 7.960814290096721 1.1070585618904634 0 0 0
583 0 1 -1 13.986178120056781 7.9668122135575015 0.19482268695509974 0 0 0
391 0 1 -1 12.629198237138967 5.962650457085737 3.065235704635434 0 0 0
867 0 2 1 21.34738336442817 7.017134567447824 2.3554621669508977 0 0 0
1254 0 1 -1 22.41075090327744 9.114033949388844 0.4823073112645475 0 0 0
1347 0 2 1 2.136071667013948 11.267898158771354 0.8321390650239149 1 0 0
112 0 1 -1 -0.8680526830190751 11.240295680872975 2.9363491437021976 0 0 0
195 0 2 1 6.591102491197553 10.04151086958719 2.9609130490377966 0 0 0
197 0 1 -1 8.222644205020142 12.178119070313958 0.4178015402278805 0 0 0
482 0 3 1 14.169149422655062 11.481080284342793 0.8793271787997936 0 0 0
880 0 1 -1 14.078734681391891 11.864854371076289 2.9872498829837797 0 0 0
1264 0 1 -1 19.10777926014373 9.990990352689526 0.693634217428591 0 0 0
1353 0 2 1 17.33589655273888 11.940393713931481 1.9603791263602526 0 0 0
1252 0 3 1 20.933820198466414 11.047471543206443 1.9106886155507041 0 0 0
1250 0 2 1 23.97062163513455 11.419657172979845 0.4929688958805656 0 0 0
194 0 2 1 6.792125577232585 15.416679612139095 1.8850800615546213 0 0 0
578 0 2 1 10.620397828238538 12.825340863058052 2.569267936993776 0 0 0
579 0 2 1 15.224255676643763 14.97322009097155 1.2956073731423219 0 0 0
1351 0 1 -1 20.091709110519368 13.460758669421578 1.6057149771979073 0 0 0
1352 0 1 -1 24.622791034457208 15.253125763081307 0.04084672927678268 0 0 0
1356 0 2 1 24.75005485760761 14.050981321440815 3.1510835901733376 0 0 0
1453 0 1 -1 1.5042142879762972 17.39460903577062 0.11413237103334373 1 0 0
1348 0 2 1 -0.9442463550010127 17.786161711435266 1.443971061533544 1 0 0
201 0 2 1 3.478691715576609 16.85868291025152 2.380475412229023 0 0 0
198 0 1 -1 5.898525714954721 17.521986079290485 0.13152438264036403 0 0 0
590 0 1 -1 9.789854881526596 15.85095421948298 2.9090744978206224 0 0 0
685 0 1 -1 14.255569169770977 17.11713622907954 2.966415474498638 0 0 0
675 0 2 1 13.035740262202482 18.591144503506825 0.6437186453624277 0 0 0
1058 0 2 1 16.8508232784423 17.784439601737414 2.5096691905600634 0 0 0
773 0 1 -1 20.247567111369158 18.625905424161516 1.3518033012343134 0 -1 0
196 0 2 1 9.428373311328114 19.261394251688294 1.3967508662473325 0 0 0
592 0 1 -1 11.810170612500077 21.187107355413158 1.9367544038686484 0 0 0
1072 0 1 -1 16.37089285437267 20.732889749625674 2.5203133609832182 0 0 0
1068 0 2 1 19.611260752755435 21.261897790603793 3.0783193031105567 0 0 0
1447 0 1 -1 24.537415107447032 20.205565142698692 0.27261440654282065 0 0 0
1452 0 2 1 24.215176678986808 21.54981029857085 2.801120821880523 0 0 0
291 0 2 1 1.7991035726300688 23.483287758552436 2.2435275024494965 0 0 0
393 0 2 1 10.794971914765835 23.673094957908212 0.8039307051281064 0 -1 0
783 0 1 -1 14.102314429726787 24.487806676313802 1.7832409158398415 0 -1 0
777 0 2 1 16.25769131394526 22.44956174748795 0.12221957269158645 0 -1 0
781 0 1 -1 18.963551423652284 23.833665113478503 1.2386699367006804 0 -1 0
1066 0 2 1 16.646488785399526 24.587632114069113 3.0289177759857138 0 0 0
1062 0 1 -1 22.955235052482706 23.89760105710483 0.09815276457534283 0 0 0
1161 0 3 1 23.70621644680253 24.72854104793009 1.9176658828076212 0 -1 0
1456 0 1 -1 25.66213527882477 24.0156958146111 2.5502984620106117 0 0 0
1165 0 1 -1 1.993998207752429 -0.19149466841404494 4.304919927985878 1 0 0
1172 0 2 1 -0.5933923899842991 0.791488184961858 4.839020087789226 1 0 0
9 0 2 1 5.228752432430955 1.1001012389128402 5.615342852793898 0 0 0
12 0 2 1 8.800626603568514 0.17975302923227165 3.8994877297503345 0 0 0
405 0 1 -1 10.533377868650883 2.3487665747167874 5.329669024333764 0 0 0
1168 0 1 -1 14.78943983322495 1.6739963598012477 4.078365508714591 0 0 0
1159 0 1 -1 18.426316306205223 0.11340280809290848 5.339047837869966 0 0 0
1259 0 2 1 0.7844716152381044 5.791027324509838 6.453715932789478 1 0 0
14 0 1 -1 3.0407873735208124 3.506068470903436 5.655441772820348 0 0 0
492 0 2 1 8.238521828924146 4.369480123383522 4.214713646061915 0 0 0
873 0 2 1 14.633299186763448 5.013434022785184 6.076079213548676 0 0 0
782 0 1 -1 17.19731883864616 4.954725672105777 5.045588099609796 0 0 0
1263 0 1 -1 21.064796669763176 3.288175314264704 3.9038623861133326 0 0 0
1257 0 3 1 19.406785017309332 5.207259206806784 4.143927881754419 0 0 0
1164 0 2 1 24.160320178304175 4.407544349828158 4.404024411714088 0 0 0
490 0 2 1 3.7343066540233227 6.43439375256117 3.7000191297581058 0 0 0
871 0 1 -1 9.887829497115401 6.334370495065926 6.087681958644705 0 0 0
588 0 2 1 12.64802982690442 8.417997419622509 5.166725137790923 0 0 0
877 0 1 -1 15.319857034004881 8.56668235034457 4.170257969766189 0 0 0
876 0 2 1 17.960387757553278 8.090047112095949 3.5335821087464954 0 0 0
870 0 1 -1 20.38277695108998 7.220713789869982 4.944198971933174 0 0 0
1262 0 1 -1 25.228996750376837 7.235610623372203 5.8151202070867605 0 0 0
205 0 1 -1 3.5183936084706247 9.635293991654041 4.538504189207456 0 0 0
108 0 3 1 2.9899636731816486 12.245000096036632 4.976016657760297 0 0 0
879 0 1 -1 10.644047653640854 10.905864650690821 5.2742476961536635 0 0 0
969 0 3 1 15.17689424561492 10.95570856244052 4.753049997995237 0 0 0
973 0 1 -1 17.901987272316823 11.029386161328274 5.576024401034635 0 0 0
1258 0 2 1 20.829285249076833 11.46029237921254 6.419750501356122 0 0 0
1359 0 1 -1 22.367456154934473 11.994096735238461 3.4393593353737053 0 0 0
1355 0 2 1 25.3865436517124 10.387332663772813 5.670692755536686 0 0 0
110 0 1 -1 1.2013939745580413 13.427183518824117 6.025732004637927 0 0 0
1350 0 1 -1 4.724747229564992 13.662353772846295 3.74834994471032 1 0 0
585 0 2 1 6.998545095206021 14.895364578075062 5.566175213121483 0 0 0
966 0 1 -1 17.489813233635395 14.806793058111154 3.557438759725872 0 0 0
1346 0 3 1 19.751198068206705 14.459825454203461 3.617096886402293 0 0 0
1360 0 1 -1 20.489476295710887 15.144536600693275 5.944288260223084 0 0 0
1445 0 1 -1 1.0732702300632146 17.256162936968725 4.329105242782439 1 0 0
202 0 2 1 -0.7898714302948635 15.987627041931734 6.480266013027432 0 0 0
203 0 2 1 3.2313191737633487 15.75459499336339 6.381804784296799 0 0 0
208 0 1 -1 5.661443201337633 17.298584372986447 4.152685087837724 0 0 0
204 0 2 1 8.92732029145357 18.353973716049826 5.075930037904698 0 0 0
970 0 2 1 12.221653452808615 17.66631424071877 5.164718497375791 0 0 0
1449 0 2 1 21.022971855964848 18.17670820228217 4.663482079949324 0 0 0
1358 0 1 -1 23.749060895127506 17.085168242932134 4.305968189164203 0 0 0
297 0 3 1 1.1224356925655359 19.845239378826193 4.7374575486412045 0 0 0
1461 0 1 -1 -0.684659912404281 21.508038464138252 5.896466899419547 1 0 0
290 0 2 1 4.332587044450543 19.980464740747376 5.695121737974176 0 0 0
304 0 1 -1 2.6667219965206708 21.38421259154487 3.994097596738234 0 0 0
295 0 1 -1 7.876589146420068 20.859489874440165 3.5176817791929436 0 0 0
681 0 3 1 9.821007829288963 21.76808638160396 3.3622046596831874 0 0 0
976 0 1 -1 18.723958068980075 19.54752782895661 5.537354835328387 0 0 0
1065 0 3 1 16.589225158459143 20.889061582904873 5.137138930420315 0 0 0
1069 0 1 -1 22.840030573754483 20.40921258332326 5.489747767547932 0 0 0
308 0 2 1 1.7627069520573446 23.72800589849301 6.135175260222667 0 0 0
13 0 1 -1 6.114208344016335 24.990363079832296 3.6999977369328114 0 -1 0
300 0 2 1 7.044144160637405 22.51852536847716 5.5418958551169695 0 0 0
686 0 1 -1 9.818709272270533 23.63957456641441 4.757152294774118 0 0 0
684 0 2 1 13.036118156181505 22.40057685062275 4.842847342338622 0 0 0
1070 0 1 -1 15.801837552660318 23.1023538949944 5.699677202930836 0 0 0
1166 0 1 -1 21.605698779891988 23.421334979487522 4.211480763689891 0 -1 0
1163 0 2 1 23.465611648121467 23.40951461138139 6.468227684396693 0 -1 0
10 0 2 1 1.0501998630699219 1.2831836905251375 8.154449364056209 0 0 0
399 0 1 -1 7.511875094352089 0.3276919788664534 7.570390147587863 0 0 0
404 0 3 1 7.326076432590414 2.417489099766488 8.257650518053875 0 0 0
692 0 2 1 11.14122253770885 0.4204751446093993 7.676727931065079 0 1 0
779 0 2 1 15.538216910066692 1.0228472222358784 6.7120153636816475 0 0 0
780 0 2 1 20.196833655006643 2.5040361380375975 6.533335587394502 0 0 0
1169 0 2 1 22.871347453322237 1.2492114891355388 9.511372077907938 0 0 0
1455 0 1 -1 25.420579461583166 -0.4919078957832867 7.513480227276611 0 1 0
111 0 1 -1 -0.9097922117503943 3.3958477389882473 6.973572340259491 0 0 0
11 0 2 1 4.345107424565009 4.529242289929893 9.366552892273853 0 0 0
109 0 1 -1 6.2676636210047025 3.7359619859881317 6.802552917390496 0 0 0
398 0 1 -1 9.176498760780412 3.292565405483462 9.087224485012667 0 0 0
778 0 3 1 10.506942198533332 3.999878183323265 7.2368566481876435 0 0 0
784 0 1 -1 12.789567859717103 3.345942979824537 7.721534612864742 0 0 0
1167 0 1 -1 16.99845654492944 2.9707127586369992 8.2713801786249 0 0 0
1176 0 1 -1 20.933654687069 4.040732514483504 8.776595310581886 0 0 0
408 0 1 -1 2.2765763335563407 6.859446064054367 9.529601370103828 0 0 0
116 0 2 1 2.973696538180656 9.13420102341819 7.930047727373461 0 0 0
394 0 2 1 7.052657890824479 6.688460857460789 7.175496972015999 0 0 0
881 0 2 1 11.05405981386397 7.111697405953514 8.619284030048604 0 0 0
406 0 1 -1 13.768592533864783 7.57873244251299 7.80754807999554 0 0 0
875 0 2 1 18.44197691573943 6.178880913009805 7.389048669265426 0 0 0
878 0 1 -1 16.710692741831217 7.232650679615198 9.68228662008604 0 0 0
1272 0 1 -1 20.35947750397287 7.983598873737382 8.317964826327856 0 0 0
1162 0 2 1 22.785972232600407 6.249053380262919 8.006710636966591 0 0 0
120 0 1 -1 0.2093792185367438 10.588787641966935 8.4145301206301 0 0 0
493 0 1 -1 4.445425286240544 11.703205118365123 7.2674195965468 0 0 0
504 0 1 -1 8.212469017438101 9.271691457480285 8.06973817708827 0 0 0
500 0 3 1 9.775296049439913 11.103396659438111 7.360500201393956 0 0 0
888 0 1 -1 11.44196662993712 10.875741053288579 9.216283515060116 0 0 0
971 0 2 1 15.786399691676598 9.802339952758372 7.624640119604152 0 0 0
1365 0 1 -1 20.114410126670386 12.051567641186125 9.720272468437798 0 0 0
106 0 3 1 -0.47072783364173365 12.658583437310307 7.604452605477292 0 0 0
213 0 1 -1 1.4035213314715653 15.380880506561606 8.811224812476286 0 0 0
206 0 1 -1 5.5336713301960545 15.148448802886355 8.542242537024725 0 0 0
494 0 1 -1 8.751091952011656 13.129193032162124 8.207058809953233 0 0 0
396 0 3 1 6.366578396057244 12.539911928155142 8.372373106888055 0 0 0
874 0 2 1 12.280685473025352 13.885463828053954 7.586005614204755 0 0 0
967 0 1 -1 14.912794761282052 12.57768226906532 6.540384975981219 0 0 0
975 0 1 -1 14.640773164842594 15.599679939499861 9.448478489349357 0 0 0
972 0 2 1 17.07922506983519 14.462550914945144 6.597279660078495 0 0 0
1354 0 2 1 22.149840764465026 14.266195309779913 8.443656560269229 0 0 0
207 0 1 -1 24.47991586644735 13.488547382046537 6.629220209538108 -1 0 0
593 0 2 1 8.410737616885081 16.907201798163705 9.501042662548725 0 0 0
687 0 1 -1 9.787237888579975 16.037213661913402 6.503171460568874 0 0 0
1071 0 1 -1 14.468723796650277 18.545792942054774 7.217349784594351 0 0 0
683 0 3 1 16.059553198939874 17.64044475005923 9.49157883720449 0 0 0
974 0 1 -1 17.862032825237748 16.059004138950364 9.517389931216686 0 0 0
1464 0 1 -1 22.46488547344869 17.360967865296686 8.214295859341167 0 0 0
1067 0 2 1 19.728830191993893 19.024114970879534 8.791495990091965 0 0 0
1457 0 3 1 23.66180636794853 18.531738288389526 6.694676546651669 0 0 0
1368 0 1 -1 25.857069800918335 18.41021563994946 8.883653004754281 0 0 0
303 0 1 -1 1.912596021862532 19.660453898754348 7.114991471048878 0 0 0
306 0 3 1 -0.2055547425616172 20.10789845593602 7.61670157152269 0 0 0
299 0 3 1 2.484923412343896 21.770658015428467 8.813463473995489 0 0 0
301 0 1 -1 6.8704445288685445 19.202278359331135 7.695430054295926 0 0 0
586 0 3 1 9.00515926593498 20.492038157894125 8.31591632511597 0 0 0
693 0 1 -1 10.612033095286707 20.719417561259302 6.524976410397983 0 0 0
1073 0 2 1 15.08276194394835 21.76176672434409 9.230478250967659 0 0 0
1454 0 1 -1 22.01407697140747 21.811573869998774 8.6592546463238 0 0 0
216 0 1 -1 0.6950657966446536 23.046951036861664 9.670301331127053 0 0 0
302 0 1 -1 4.319116440758928 22.70432719721666 7.491459151860974 0 0 0
696 0 1 -1 8.53449908360343 22.53592152670082 8.318437806121635 0 0 0
682 0 3 1 10.252416255114028 23.164058693906817 7.0329018921141415 0 0 0
1080 0 1 -1 12.432300808463244 23.82814538565593 8.240899342996174 0 0 0
1076 0 2 1 19.381305467769096 23.61860118624179 6.922221392326913 0 0 0
789 0 1 -1 20.47098226416263 25.260951641140142 9.630627752664486 0 -1 0
298 0 2 1 24.669696575975166 23.097361937110307 9.663986506576686 -1 0 0
491 0 3 1 4.413236787256905 1.7631945829952258 11.791189963542873 0 0 0
501 0 1 -1 6.356739684222395 2.1626460704095734 10.699595405011987 0 0 0
401 0 2 1 7.648279129816585 -0.5785545722224509 10.783980493116724 0 0 0
694 0 1 -1 11.165585749452843 -0.4088216962401756 10.599346517109135 0 1 0
791 0 1 -1 15.440432268726168 0.05330923699895551 10.717475773896032 0 0 0
785 0 2 1 18.154226500766967 1.2300197232001746 10.440377544048827 0 0 0
1173 0 1 -1 20.91401425242904 2.034905511329133 12.465177504116149 0 0 0
24 0 1 -1 24.666921758800832 1.0232762284404395 12.276093869552714 -1 0 0
15 0 1 -1 1.2930532161318191 2.7644408431341425 10.850233824850216 0 0 0
107 0 2 1 0.14490091152877338 5.474216220965174 10.527007415044318 0 0 0
402 0 2 1 8.145552031583755 5.2984734696042555 11.288993331696382 0 0 0
403 0 2 1 11.738996265791211 2.6978583281832864 10.584324136664547 0 0 0
792 0 1 -1 13.67874311338002 2.9941876471960778 12.890895654633518 0 0 0
788 0 2 1 16.218775391361326 4.95860299376911 11.769138384387885 0 0 0
113 0 2 1 -0.24085256959864854 9.168780836789221 11.153195796657544 0 0 0
115 0 2 1 3.49214515084614 8.917617728765089 11.39532714342353 0 0 0
495 0 1 -1 5.745127212080719 6.7360838973392285 9.946280443766605 0 0 0
977 0 3 1 7.067021976827311 8.68754077239522 10.154936895492769 0 0 0
503 0 1 -1 8.855342212591703 8.168599451507786 11.637972299772684 0 0 0
883 0 3 1 14.291805234669848 7.989292485789083 9.980622732480542 0 0 0
887 0 1 -1 13.305546463407731 6.094699974167743 10.91677089354176 0 0 0
790 0 1 -1 19.13097466232348 6.734165064353216 12.520601235134777 0 0 0
1268 0 2 1 21.429450575555038 8.048765789781932 11.007189265524616 0 0 0
1269 0 1 -1 24.35927537032729 7.016138841990695 11.023808163322942 0 0 0
117 0 1 -1 1.855703095720807 11.358209870730683 11.727181737516691 0 0 0
591 0 1 -1 6.28298699221762 10.716054466102467 10.603204005780727 0 0 0
497 0 3 1 9.901754497988716 12.058046496626531 10.540118138679436 0 0 0
502 0 1 -1 10.014073002796755 12.32387313244416 12.673628650181577 0 0 0
499 0 2 1 11.604550591290263 9.261055694899671 12.824758608337664 0 0 0
885 0 1 -1 15.456737375656234 10.306819564215731 11.205679369962441 0 0 0
884 0 2 1 18.507129979914694 9.457120091936451 10.18760009396995 0 0 0
211 0 2 1 3.2914157991267885 12.996828014819794 10.07426730854178 0 0 0
597 0 1 -1 10.941529395559428 15.311767378473352 10.302576625658086 0 0 0
882 0 2 1 13.480138791491855 12.874809749065452 10.86632344901541 0 0 0
1361 0 2 1 19.928365565046313 13.42322117673431 12.735469210400238 0 0 0
210 0 2 1 0.720567767961102 17.81109165885113 11.33677206379188 0 0 0
212 0 2 1 5.147566829498098 17.7146607545833 10.107023944211667 0 0 0
599 0 1 -1 7.017079552153034 17.26498060599221 12.070545265552292 0 0 0
596 0 2 1 12.750525116241763 18.47399126759909 10.14992920054759 0 0 0
587 0 2 1 15.169821295668248 16.14733941734748 12.691330730982084 0 0 0
980 0 2 1 19.06048841624672 17.666289797065406 12.21343624069709 0 0 0
982 0 1 -1 21.52479462632776 16.493223049364474 12.840237380229471 0 0 0
1364 0 2 1 23.58741937464203 17.896510001294775 11.153561108492141 0 0 0
305 0 3 1 0.5529690531778324 21.54434227162364 11.682194386372043 0 0 0
309 0 1 -1 3.2001429470677234 20.95763902302077 10.955834253754414 0 0 0
689 0 2 1 6.240726353378416 21.533093619555995 10.118457193166893 0 0 0
600 0 1 -1 9.453254983686016 20.103692344068488 10.606189622926745 0 0 0
984 0 1 -1 15.564506921205167 19.23147083553438 11.08509309670992 0 0 0
1079 0 1 -1 13.294176223539708 22.032214525864557 11.973234273282111 0 0 0
1077 0 1 -1 18.289817154115553 22.054955070239487 9.848267913934164 0 0 0
1463 0 1 -1 21.7070397093133 19.921826920372908 11.687348642617334 0 0 0
311 0 1 -1 25.883803990242697 20.103398309264534 12.276315526391336 -1 0 0
17 0 2 1 0.8364228584726847 25.5176128930532 12.396333907732366 0 -1 0
695 0 1 -1 7.699808552867628 22.898954921640197 12.42225920040444 0 0 0
691 0 2 1 10.453681677682793 22.858029892007504 10.665689336063616 0 0 0
787 0 3 1 13.368731503839323 25.528047361674556 11.332046687665203 0 -1 0
1075 0 2 1 16.157547460739423 23.992672295276858 12.27386599630212 0 0 0
1451 0 3 1 20.42160853306089 22.90762763646316 9.913593572450283 0 0 0
1468 0 2 1 22.419181544548046 25.36989289611377 12.605478849467824 0 0 0
1462 0 1 -1 24.53967980927323 23.46743230140962 12.688769565332334 0 0 0
23 0 1 -1 1.6777818740541406 0.09012167898841472 15.980012120904533 0 0 0
21 0 1 -1 4.877478149369359 0.034268000197519966 13.02556815419657 0 0 0
29 0 1 -1 6.2107866235517815 1.1547069511911796 16.181687387526743 0 0 0
690 0 2 1 11.428845402963562 0.8811163627659124 14.110923943099849 0 1 0
1074 0 3 1 15.293365351613831 1.016287374040911 13.025878490059132 0 1 0
786 0 2 1 14.972359746943805 2.3553626224143676 16.1411499273573 0 0 0
1078 0 1 -1 13.85043137389834 -0.5799437224337659 13.943110132750434 0 1 0
797 0 1 -1 17.049504841955077 1.7650511719765904 13.860614360213187 0 0 0
1458 0 2 1 19.243297784524955 1.3282383047988147 15.831216380653299 0 1 0
1171 0 2 1 23.904582619570057 1.390615016578832 15.027186594817081 0 0 0
20 0 2 1 1.0946172348564733 3.1383644193099887 13.876805666132118 0 0 0
22 0 1 -1 4.258875200304549 4.1227688886021845 13.0790467721561 0 0 0
28 0 2 1 4.195514190935842 3.619262504814099 15.952743400607577 0 0 0
19 0 2 1 6.676460354273483 2.939763528676593 13.811764365732706 0 0 0
125 0 1 -1 7.052315153720832 4.9837170826399335 16.01065692291711 0 0 0
407 0 1 -1 9.760192607614156 3.3640491204765324 13.604258030805592 0 0 0
800 0 1 -1 15.476376102924474 5.441359916168555 15.32339519049681 0 0 0
796 0 2 1 12.672580553778523 5.2191926618417135 14.250409406879129 0 0 0
1170 0 2 1 21.815276790498558 4.550673520081033 13.32337098069911 0 0 0
1174 0 1 -1 23.62633448640088 4.192553151547688 15.53446289311637 0 0 0
119 0 1 -1 0.9526349441220914 6.623845706609598 13.325121563158223 0 0 0
889 0 2 1 16.630809574581654 8.597394690288397 13.809814414837309 0 0 0
1265 0 3 1 20.05860184931658 7.843980184952271 14.399240911700847 0 0 0
1271 0 1 -1 22.12094948360886 7.3527292859577535 14.06140888176742 0 0 0
1267 0 2 1 24.78897840042859 7.062723728219911 14.263540221648004 0 0 0
128 0 1 -1 1.8027539942336235 11.869479192097222 16.20386273881838 0 0 0
118 0 1 -1 4.532109399249707 9.260788605821507 13.97177640598547 0 0 0
114 0 3 1 2.817393991764321 11.664484365606002 13.870772067134382 0 0 0
498 0 2 1 7.14328319520056 11.2113750141296 13.611371115635244 0 0 0
509 0 1 -1 13.594082449298396 10.141131230488046 15.232978978290404 0 0 0
886 0 1 -1 18.856492749579296 10.408578640278417 13.25158653127481 0 0 0
979 0 2 1 16.09691150995387 12.042773082208564 13.958716131704783 0 0 0
1266 0 3 1 23.312980926952754 11.386190873642079 15.129163911013833 0 0 0
1270 0 1 -1 25.044800366124832 10.038603586305786 13.79272000487028 0 0 0
209 0 2 1 -0.6027848251847905 12.79433992725091 14.17316179182815 0 0 0
217 0 3 1 2.6516970573168437 15.405592965597446 13.999789322890738 0 0 0
215 0 1 -1 4.567269629760186 13.43192892232168 13.645398475521805 0 0 0
595 0 2 1 10.679027840467445 15.60397393892245 13.235562646454152 0 0 0
508 0 2 1 11.324348495899443 12.499347351777239 15.567469271512728 0 0 0
605 0 1 -1 13.492063595417559 14.086053618824732 13.633181938455316 0 0 0
981 0 1 -1 17.743587760543882 14.804465078296351 13.963856421077939 0 0 0
1367 0 1 -1 22.318290670063163 13.194573061614502 14.29701598838744 0 0 0
1366 0 1 -1 0.18066213112890983 15.76072810188871 13.277269298736947 1 0 0
1372 0 2 1 -0.1450285673426328 16.342716464214234 16.048948220226936 1 0 0
214 0 1 -1 3.0362608480273208 17.336307200865704 13.217846973545786 0 0 0
220 0 2 1 6.239708591686669 16.15159173947724 14.933784774069657 0 0 0
608 0 1 -1 10.648151503953374 15.786601419822087 16.148700728728016 0 0 0
598 0 1 -1 12.5043350221218 17.880433939034273 13.33703406729494 0 0 0
983 0 1 -1 19.43737583023895 18.74741084798501 15.090363108182718 0 0 0
1362 0 2 1 22.814079412820938 18.423336037944406 14.829304326658328 0 0 0
312 0 1 -1 1.3637613335616923 22.057726890669745 13.606058733521614 0 0 0
313 0 2 1 2.4959622312337073 19.959788689870205 15.802346897751175 0 0 0
594 0 2 1 8.021207642600979 19.78448503944389 13.479091526546906 0 0 0
317 0 1 -1 6.640088035210764 19.2244792630039 15.86820617532188 0 0 0
701 0 1 -1 11.720245747238106 21.107657868823658 16.109604366257443 0 0 0
978 0 2 1 14.04984490664336 20.166890189777256 14.165113649728927 0 0 0
1085 0 1 -1 16.738462446465903 22.2816902390386 15.079363776549265 0 0 0
988 0 3 1 17.41064482673427 19.8624894526659 15.482322302141423 0 0 0
1465 0 2 1 19.639546701338332 21.94111406710362 13.636099606763107 0 0 0
1469 0 1 -1 24.366734407857166 21.087393393106336 16.19151555138387 0 0 0
1460 0 3 1 24.44424925064103 21.31701660497933 13.797143717280232 0 0 0
307 0 2 1 4.4912043333059115 22.773038517057934 13.110949586503136 0 0 0
310 0 1 -1 5.940841341932438 22.944954036375123 15.997812241041466 0 0 0
700 0 2 1 13.245816631594998 24.087033380699157 16.188280034796165 0 0 0
1472 0 1 -1 19.392143432858553 24.90077919411441 13.310075136948562 0 0 0
1175 0 1 -1 22.14013157876819 25.52522507029448 15.94727227418953 0 -1 0
25 0 3 1 0.8179954878373639 1.5135886515230772 17.830877472214826 0 0 0
27 0 2 1 6.446594574666362 2.0954926687489714 19.06237568857765 0 0 0
1088 0 1 -1 12.622427180241559 -0.36642558646175183 19.234640682355366 0 1 0
799 0 1 -1 16.742677057750136 0.24798330817543035 17.730002328853075 0 0 0
1180 0 2 1 22.219430017275783 1.5242948873524913 18.74844559052068 0 0 0
1181 0 1 -1 25.38604736796386 1.5530675393123627 17.919881322681682 0 0 0
32 0 1 -1 1.3545183335998732 3.75526819814484 16.837602295323165 0 0 0
30 0 1 -1 4.992157325768211 4.7904139789319276 18.832770297330242 0 0 0
410 0 3 1 6.987856632600591 5.888346921242452 18.27803427796395 0 0 0
413 0 1 -1 12.279828738036151 3.176895474308905 16.464577728061986 0 0 0
409 0 2 1 9.454160367876812 3.801716080834172 17.255085803385388 0 0 0
798 0 1 -1 18.452762159666143 2.969088495907771 19.202369806637012 0 0 0
1177 0 2 1 16.797277186950566 5.212911197915758 18.2693988245926 0 0 0
1184 0 1 -1 22.173283432759717 4.543366059547254 19.484382119502662 0 0 0
18 0 2 1 25.279684237599596 4.388273507407326 17.875322642551673 -1 0 0
121 0 2 1 2.0567679106489427 8.274117845821575 16.283046951197484 0 0 0
1277 0 1 -1 -0.7001258394679901 7.751957346349732 17.370373813180425 1 0 0
127 0 1 -1 2.5438536758486694 8.133362143416685 19.17090100090989 0 0 0
123 0 2 1 6.573405256083772 8.978413321023345 16.847917454973175 0 0 0
511 0 1 -1 8.312617221131605 7.472955983734094 18.700861684061554 0 0 0
416 0 1 -1 12.135833104482563 6.020452201668163 18.290398571889305 0 0 0
893 0 1 -1 18.984688737412448 7.577649932943581 16.81297857096687 0 0 0
1273 0 2 1 21.735342965284687 6.764976000957881 17.235707618792286 0 0 0
512 0 1 -1 8.072567025058488 12.373875722895868 16.34841327213812 0 0 0
506 0 2 1 8.636515843850365 12.305747568957896 19.472572736347907 0 0 0
505 0 2 1 11.088531858096843 9.268999914075476 18.851637737687046 0 0 0
510 0 1 -1 11.504139755101757 12.282022809637223 18.345478163578534 0 0 0
507 0 2 1 15.160588064426191 9.32178107985319 17.890091419608243 0 0 0
896 0 1 -1 16.80277960741654 11.818102373460013 16.791714643989682 0 0 0
892 0 2 1 19.60784474759855 10.752032453689093 16.26769363736666 0 0 0
1280 0 1 -1 22.53271069739659 10.577439815571863 16.931127049000498 0 0 0
1276 0 2 1 25.617696219185127 10.708779358206078 17.175293423553043 0 0 0
223 0 1 -1 1.6980626279894273 14.444371521784703 19.32365811955935 0 0 0