LAMMPS (29 Sep 2021 - Update 3)
OMP_NUM_THREADS environment is not set. Defaulting to 1 thread. (src/comm.cpp:98)
  using 1 OpenMP thread(s) per MPI task
units	metal
atom_style	full

read_data	mixed.data
Reading data file ...
  orthogonal box = (0.0000000 0.0000000 0.0000000) to (16.534670 17.767358 74.594796)
  1 by 2 by 8 MPI processor grid
  reading atoms ...
  864 atoms
Finding 1-2 1-3 1-4 neighbors ...
  special bond factors lj:    0        0        0       
  special bond factors coul:  0        0        0       
     0 = max # of 1-2 neighbors
     0 = max # of 1-3 neighbors
     0 = max # of 1-4 neighbors
     1 = max # of special neighbors
  special bonds CPU = 0.001 seconds
  read_data CPU = 0.009 seconds

pair_style	quip
pair_coeff	* * /ocean/projects/cts180021p/wuziqi/clease/mint-PD/PhaseDiagram-Clease/Liquid/GAP_potential/gap_LiKCl.xml "Potential xml_label=GAP_2021_9_27_0_1_17_37_618" 17 19 3

neighbor	0.3 bin
neigh_modify	delay 10

timestep	0.001
compute	msd all msd
thermo_style	custom step temp pe etotal press vol c_msd[4]
thermo	10
dump	1 all custom 10 xyz-mix.dump type id x y z
dump	2 all custom 10 force-mix.dump type id fx fy fz

fix     1 all nve
run     2000
Neighbor list info ...
  update every 1 steps, delay 10 steps, check yes
  max neighbors/atom: 2000, page size: 100000
  master list distance cutoff = 6.22
  ghost atom cutoff = 6.22
  binsize = 3.11, bins = 6 6 24
  1 neighbor lists, perpetual/occasional/extra = 1 0 0
  (1) pair quip, perpetual
      attributes: full, newton on
      pair build: full/bin
      stencil: full/bin/3d
      bin: standard
Per MPI rank memory allocation (min/avg/max) = 8.894 | 8.906 | 8.915 Mbytes
Step Temp PotEng TotEng Press Volume c_msd[4] 
       0            0   -8413.4292   -8413.4292   -12531.916    21914.265            0 
      10    63.367096   -8420.5059   -8413.4372   -13062.757    21914.265 0.00028900792 
      20    162.23389   -8431.5423   -8413.4448   -13580.932    21914.265 0.0035442006 
      30    203.76318   -8436.1707   -8413.4406   -13263.999    21914.265  0.011998633 
      40     225.5427      -8438.6   -8413.4404   -13091.981    21914.265  0.023619499 
      50    238.39464   -8440.0352   -8413.4419   -13192.953    21914.265  0.036411648 
      60    237.91747   -8439.9798   -8413.4397    -13151.82    21914.265  0.049420327 
      70    242.25882   -8440.4649   -8413.4405   -12986.142    21914.265  0.062561747 
      80    243.33226   -8440.5825   -8413.4384   -12841.846    21914.265  0.075987004 
      90     256.1439    -8442.014   -8413.4408   -12985.089    21914.265  0.088683986 
     100    260.92723   -8442.5467   -8413.4399   -13129.532    21914.265   0.10092572 
     110    263.36735   -8442.8185   -8413.4395   -13314.209    21914.265   0.11296329 
     120    267.45703   -8443.2754   -8413.4402   -13403.997    21914.265   0.12509928 
     130    267.20277   -8443.2463   -8413.4395   -13198.457    21914.265   0.13819283 
     140    269.21359   -8443.4705   -8413.4393   -12839.711    21914.265   0.15259322 
     150     276.3754   -8444.2699   -8413.4398   -12564.061    21914.265   0.16775295 
     160    282.09052   -8444.9077   -8413.4401   -12400.914    21914.265   0.18315323 
     170    283.74907   -8445.0928   -8413.4402     -12430.3    21914.265    0.1989762 
     180    279.57367   -8444.6271   -8413.4402   -12727.353    21914.265   0.21536827 
     190    272.01519   -8443.7829   -8413.4391   -12943.608    21914.265   0.23180139 
     200    272.98877   -8443.8921   -8413.4397   -13066.814    21914.265    0.2476891 
     210    278.28656   -8444.4833     -8413.44   -13119.162    21914.265   0.26290373 
     220    281.61115   -8444.8543   -8413.4402    -13052.65    21914.265   0.27743582 
     230    283.45537   -8445.0589    -8413.439   -12948.839    21914.265   0.29133107 
     240    292.81696   -8446.1046   -8413.4404   -13016.029    21914.265    0.3048675 
     250    295.20203   -8446.3705   -8413.4402   -13077.887    21914.265   0.31931215 
     260    290.46684   -8445.8415   -8413.4394   -13040.528    21914.265   0.33532684 
     270    290.61991    -8445.858   -8413.4389   -13235.455    21914.265   0.35239777 
     280    301.25443   -8447.0456   -8413.4402   -13515.282    21914.265   0.36952956 
     290    308.28623   -8447.8304   -8413.4406   -13611.572    21914.265   0.38667041 
     300    309.20907   -8447.9319   -8413.4392   -13455.868    21914.265    0.4041006 
     310     314.5316   -8448.5273   -8413.4408   -13198.597    21914.265   0.42152557 
     320    312.09261   -8448.2546   -8413.4402   -12968.083    21914.265   0.43866959 
     330    305.84421   -8447.5573   -8413.4399   -12657.381    21914.265   0.45536472 
     340    303.20988   -8447.2632   -8413.4397   -12498.026    21914.265   0.47172581 
     350    307.13857   -8447.7018     -8413.44   -12492.368    21914.265   0.48754232 
     360    312.15901   -8448.2619   -8413.4401   -12369.505    21914.265   0.50223919 
     370     318.6847   -8448.9898     -8413.44   -12195.898    21914.265   0.51545083 
     380    326.66636   -8449.8808   -8413.4407   -12030.164    21914.265   0.52751087 
     390    328.67292   -8450.1043   -8413.4403   -11786.931    21914.265   0.53983918 
     400    329.42172   -8450.1875     -8413.44   -11529.418    21914.265   0.55338123 
     410    329.12824   -8450.1558   -8413.4411   -11363.621    21914.265   0.56856317 
     420    321.17839   -8449.2675   -8413.4396   -11329.503    21914.265   0.58578319 
     430    319.73313   -8449.1067     -8413.44   -11645.546    21914.265   0.60460993 
     440    321.87014   -8449.3455   -8413.4404   -12168.872    21914.265   0.62482739 
     450    321.69175   -8449.3257   -8413.4405   -12517.526    21914.265   0.64605131 
     460    321.58625   -8449.3131   -8413.4397   -12738.117    21914.265   0.66602281 
     470    327.73765   -8450.0009   -8413.4413    -13118.13    21914.265   0.68222539 
     480    325.78012   -8449.7811   -8413.4399   -13518.975    21914.265   0.69547134 
     490    325.26696   -8449.7242   -8413.4402   -13912.333    21914.265   0.70709849 
     500    326.02809   -8449.8096   -8413.4407    -14245.82    21914.265    0.7181905 
     510     321.8067   -8449.3384   -8413.4404   -14358.421    21914.265   0.73031831 
     520    314.82643   -8448.5595   -8413.4401   -14393.561    21914.265   0.74493886 
     530    311.55922   -8448.1945   -8413.4396    -14504.26    21914.265   0.76206346 
     540    316.52181   -8448.7487   -8413.4402   -14692.451    21914.265   0.78048733 
     550    323.45997   -8449.5224     -8413.44   -14675.954    21914.265   0.79880458 
     560    332.20295   -8450.4987   -8413.4409    -14432.97    21914.265   0.81596428 
     570    332.37528   -8450.5179   -8413.4409   -14008.452    21914.265   0.83234674 
     580    324.44532    -8449.632   -8413.4397   -13682.622    21914.265   0.84880328 
     590    322.54654   -8449.4211   -8413.4405   -13611.186    21914.265   0.86493346 
     600    320.03229     -8449.14   -8413.4399   -13618.158    21914.265   0.88136827 
     610     322.0694   -8449.3667   -8413.4393   -13770.866    21914.265   0.89972436 
     620    332.97088   -8450.5844    -8413.441   -14040.679    21914.265   0.91979176 
     630    336.52886   -8450.9806   -8413.4403   -14106.634    21914.265    0.9400978 
     640    340.63169   -8451.4378   -8413.4399   -14084.373    21914.265   0.95883362 
     650     349.6267   -8452.4431   -8413.4417   -14126.089    21914.265   0.97518253 
     660     345.3101   -8451.9607   -8413.4408    -13925.09    21914.265   0.98949595 
     670    335.30236   -8450.8431   -8413.4396   -13541.064    21914.265    1.0025057 
     680    335.35657   -8450.8495     -8413.44   -13120.509    21914.265    1.0157598 
     690    342.86707   -8451.6878   -8413.4405   -12807.122    21914.265    1.0306556 
     700    350.61517   -8452.5527    -8413.441   -12613.893    21914.265    1.0481195 
     710    351.61871   -8452.6647   -8413.4411    -12558.63    21914.265     1.067876 
     720    346.37378   -8452.0785     -8413.44   -12478.274    21914.265    1.0873947 
     730    347.79156   -8452.2373   -8413.4406   -12593.955    21914.265    1.1041491 
     740    351.02442    -8452.599   -8413.4417   -12781.856    21914.265    1.1188548 
     750    344.89782   -8451.9145   -8413.4406   -12888.282    21914.265     1.133643 
     760      340.342   -8451.4064   -8413.4407   -13050.736    21914.265    1.1491825 
     770    340.04955   -8451.3737   -8413.4407   -13326.749    21914.265    1.1643304 
     780      345.357   -8451.9656   -8413.4405   -13558.373    21914.265    1.1777023 
     790    357.12317   -8453.2788   -8413.4411   -13831.043    21914.265    1.1886997 
     800    366.64045   -8454.3407   -8413.4414   -14129.874    21914.265    1.1976392 
     810    368.68447   -8454.5688   -8413.4415   -14063.484    21914.265    1.2056605 
     820    366.60174   -8454.3361   -8413.4411   -13908.726    21914.265    1.2141717 
     830    365.85586   -8454.2531   -8413.4413   -13853.131    21914.265    1.2243585 
     840     368.4524   -8454.5423   -8413.4409   -13972.673    21914.265    1.2365636 
     850    371.87492   -8454.9262    -8413.443    -14131.16    21914.265    1.2503596 
     860     358.1746   -8453.3954   -8413.4405     -13818.7    21914.265    1.2649975 
     870    354.45705   -8452.9806   -8413.4404   -13465.958    21914.265     1.278191 
     880    366.65296   -8454.3425   -8413.4418   -13399.092    21914.265    1.2880847 
     890    376.93995   -8455.4909   -8413.4426    -13274.53    21914.265    1.2959326 
     900    375.96913   -8455.3817   -8413.4418   -13062.805    21914.265    1.3041818 
     910    374.01489   -8455.1632   -8413.4413   -12824.206    21914.265    1.3130528 
     920    378.94842   -8455.7136   -8413.4414   -12747.174    21914.265    1.3222121 
     930    388.54983   -8456.7859   -8413.4426   -12880.601    21914.265    1.3329508 
     940    389.80019   -8456.9258    -8413.443   -12981.003    21914.265    1.3457299 
     950    382.52604   -8456.1127   -8413.4413   -12918.004    21914.265    1.3587946 
     960    381.75271   -8456.0275   -8413.4424   -13120.356    21914.265    1.3710856 
     970    380.20365    -8455.854   -8413.4417   -13297.868    21914.265    1.3835601 
     980    384.06597   -8456.2848   -8413.4416    -13360.21    21914.265    1.3967998 
     990    391.39252    -8457.104   -8413.4436    -13319.56    21914.265    1.4114384 
    1000    385.55287   -8456.4508   -8413.4418   -13032.957    21914.265    1.4285977 
    1010    381.98963   -8456.0536   -8413.4421   -12900.345    21914.265    1.4480597 
    1020    382.08452   -8456.0644   -8413.4423   -12891.786    21914.265    1.4678099 
    1030    380.66666   -8455.9065   -8413.4425   -12820.478    21914.265    1.4859085 
    1040    378.02017   -8455.6107    -8413.442   -12814.774    21914.265    1.5012686 
    1050    381.70997   -8456.0224   -8413.4421   -12925.622    21914.265    1.5119118 
    1060    391.42566   -8457.1073   -8413.4432    -13146.33    21914.265    1.5173209 
    1070    396.24192   -8457.6441   -8413.4428   -13102.084    21914.265    1.5196151 
    1080    397.63032   -8457.7993    -8413.443   -12889.784    21914.265    1.5211703 
    1090    396.12759   -8457.6308   -8413.4422   -12537.537    21914.265    1.5231683 
    1100    400.33119   -8458.1002   -8413.4426   -12299.668    21914.265    1.5256834 
    1110    407.17314   -8458.8635   -8413.4428   -12099.612    21914.265    1.5296348 
    1120    413.19804   -8459.5369    -8413.444   -11926.861    21914.265    1.5369315 
    1130    409.94165   -8459.1721   -8413.4425   -11927.354    21914.265    1.5487344 
    1140    411.69689   -8459.3679   -8413.4425   -12274.932    21914.265    1.5644715 
    1150    417.92932   -8460.0654   -8413.4448   -12599.199    21914.265    1.5822789 
    1160    409.45399   -8459.1175   -8413.4423   -12608.558    21914.265    1.6004412 
    1170    405.75202   -8458.7057   -8413.4435   -12496.116    21914.265    1.6169469 
    1180    399.97271   -8458.0606    -8413.443   -12466.412    21914.265    1.6317671 
    1190    393.04741   -8457.2883   -8413.4433   -12618.331    21914.265    1.6460138 
    1200    381.93867   -8456.0489   -8413.4431   -12576.103    21914.265    1.6602667 
    1210    376.72969   -8455.4667   -8413.4419   -12745.258    21914.265    1.6726433 
    1220     387.4652   -8456.6661   -8413.4437   -13270.317    21914.265    1.6819979 
    1230    392.11995   -8457.1848   -8413.4433   -13698.725    21914.265    1.6894908 
    1240    392.35374   -8457.2109   -8413.4432   -14054.078    21914.265    1.6958816 
    1250    387.63167   -8456.6848   -8413.4439   -14383.659    21914.265    1.7022745 
    1260    377.01437   -8455.4984   -8413.4419   -14780.957    21914.265    1.7098627 
    1270    380.16106   -8455.8505   -8413.4429    -15291.91    21914.265    1.7186286 
    1280    386.65141    -8456.575   -8413.4435   -15684.863    21914.265    1.7280931 
    1290    386.45138   -8456.5524   -8413.4431   -15669.118    21914.265    1.7377267 
    1300    384.49318   -8456.3333   -8413.4425   -15192.167    21914.265    1.7465203 
    1310    389.16883   -8456.8559   -8413.4435   -14748.802    21914.265    1.7543822 
    1320    395.91985   -8457.6092   -8413.4437   -14540.669    21914.265    1.7626209 
    1330    402.24128   -8458.3144   -8413.4438   -14482.176    21914.265    1.7719127 
    1340    406.72312   -8458.8138   -8413.4433   -14593.779    21914.265    1.7822942 
    1350    413.88937   -8459.6138   -8413.4438   -14633.206    21914.265    1.7929881 
    1360    418.26368   -8460.1021   -8413.4441   -14272.723    21914.265    1.8043383 
    1370    412.53709   -8459.4628   -8413.4437   -13640.472    21914.265    1.8173742 
    1380    404.03017    -8458.513   -8413.4428   -13053.663    21914.265    1.8314414 
    1390    402.11865   -8458.3013   -8413.4444   -12796.252    21914.265    1.8446224 
    1400    396.75786   -8457.7017   -8413.4428   -12890.081    21914.265    1.8555613 
    1410     401.1626   -8458.1945   -8413.4442   -13251.623    21914.265    1.8625402 
    1420    405.53922    -8458.683   -8413.4445   -13540.901    21914.265    1.8651673 
    1430    404.12534   -8458.5245   -8413.4437   -13662.885    21914.265    1.8648977 
    1440    405.72045   -8458.7027    -8413.444   -13771.634    21914.265    1.8643414 
    1450    406.67484   -8458.8092    -8413.444   -13873.149    21914.265    1.8661066 
    1460    406.94702   -8458.8395   -8413.4439   -13898.845    21914.265    1.8707341 
    1470    405.99802   -8458.7335   -8413.4438    -13583.81    21914.265    1.8783175 
    1480    405.25435   -8458.6503   -8413.4436   -13097.342    21914.265    1.8881067 
    1490    408.19865    -8458.979   -8413.4439   -12662.726    21914.265    1.8977467 
    1500    414.56579   -8459.6887   -8413.4433   -12296.863    21914.265    1.9065246 
    1510    429.03716   -8461.3044   -8413.4447   -11735.577    21914.265    1.9156573 
    1520    435.43303   -8462.0188   -8413.4456   -11140.275    21914.265    1.9269758 
    1530    420.46896   -8460.3486   -8413.4446     -10759.3    21914.265    1.9420002 
    1540    404.55727   -8458.5707   -8413.4417   -10562.297    21914.265    1.9594173 
    1550     414.5371   -8459.6878   -8413.4456   -10873.945    21914.265    1.9756145 
    1560    415.64167   -8459.8093   -8413.4438    -11180.84    21914.265    1.9896674 
    1570    417.51903   -8460.0192   -8413.4444   -11574.862    21914.265      2.00287 
    1580    420.71133   -8460.3754   -8413.4444   -12084.028    21914.265    2.0173903 
    1590    422.23753   -8460.5459   -8413.4446   -12650.323    21914.265    2.0354221 
    1600    420.26548   -8460.3254   -8413.4441   -13157.964    21914.265    2.0567995 
    1610    418.97614   -8460.1816   -8413.4442   -13379.664    21914.265    2.0784503 
    1620    422.99101    -8460.629   -8413.4437   -13476.483    21914.265    2.0978277 
    1630    431.41255   -8461.5707    -8413.446   -13473.665    21914.265     2.115193 
    1640    426.28653   -8460.9963   -8413.4434   -13430.412    21914.265    2.1338075 
    1650    431.13487   -8461.5387    -8413.445   -13658.596    21914.265       2.1559 
    1660    436.17822   -8462.1019   -8413.4456   -13638.641    21914.265    2.1797337 
    1670    428.12023   -8461.2022   -8413.4447   -13252.346    21914.265    2.2035441 
    1680    422.66155   -8460.5919   -8413.4434   -13022.696    21914.265    2.2262152 
    1690    430.34848   -8461.4521    -8413.446   -12966.155    21914.265    2.2464937 
    1700    426.21611   -8460.9896   -8413.4446   -12849.343    21914.265    2.2649593 
    1710    421.63281   -8460.4781   -8413.4443    -12902.06    21914.265    2.2822078 
    1720    425.52952   -8460.9136   -8413.4451   -13254.993    21914.265    2.2992296 
    1730    433.21398   -8461.7705   -8413.4448   -13760.925    21914.265    2.3170264 
    1740    441.86781   -8462.7372   -8413.4461   -14050.542    21914.265    2.3352522 
    1750    438.27813    -8462.336   -8413.4454   -13921.401    21914.265    2.3528289 
    1760    429.17186   -8461.3192   -8413.4444   -13408.002    21914.265    2.3694072 
    1770    428.81898   -8461.2807   -8413.4453    -12917.73    21914.265    2.3858611 
    1780    433.34916   -8461.7857    -8413.445   -12638.931    21914.265    2.4026666 
    1790     441.0669   -8462.6474   -8413.4457   -12705.172    21914.265     2.419074 
    1800    447.24535   -8463.3359    -8413.445   -12842.309    21914.265    2.4345236 
    1810    451.04914   -8463.7611   -8413.4459   -13058.485    21914.265    2.4502124 
    1820    445.08252   -8463.0941   -8413.4445   -13035.825    21914.265    2.4671851 
    1830    441.70858   -8462.7187   -8413.4454   -12922.342    21914.265    2.4853863 
    1840    432.65555   -8461.7082   -8413.4449   -13058.866    21914.265    2.5046773 
    1850    428.24526   -8461.2146   -8413.4432   -13494.155    21914.265    2.5239509 
    1860    442.70809   -8462.8312   -8413.4464     -14052.9    21914.265    2.5417036 
    1870    445.34398   -8463.1238   -8413.4451   -14177.248    21914.265    2.5577578 
    1880    449.56383   -8463.5931   -8413.4436   -14088.107    21914.265    2.5732932 
    1890    469.70151   -8465.8424   -8413.4465   -13965.821    21914.265    2.5900107 
    1900    475.61979   -8466.5029   -8413.4468   -13338.709    21914.265    2.6092547 
    1910    460.77113   -8464.8444   -8413.4447   -12266.897    21914.265    2.6300063 
    1920    453.29076   -8464.0097   -8413.4444   -11600.031    21914.265    2.6488623 
    1930    455.01355   -8464.2038   -8413.4464   -11532.276    21914.265     2.664581 
    1940    446.57627   -8463.2611   -8413.4448   -11610.068    21914.265    2.6787843 
    1950    442.24787   -8462.7779   -8413.4445    -12067.88    21914.265     2.691974 
    1960    445.34565   -8463.1243   -8413.4453   -12574.104    21914.265    2.7033659 
    1970     445.3849   -8463.1293   -8413.4459   -12683.518    21914.265    2.7130116 
    1980    438.45896   -8462.3558    -8413.445   -12521.804    21914.265    2.7223802 
    1990    435.82997    -8462.062   -8413.4445   -12590.151    21914.265    2.7312795 
    2000    445.20858   -8463.1089   -8413.4452   -13039.215    21914.265    2.7384799 
Loop time of 1415.41 on 16 procs for 2000 steps with 864 atoms

Performance: 0.122 ns/day, 196.585 hours/ns, 1.413 timesteps/s
97.2% CPU use with 16 MPI tasks x 1 OpenMP threads

MPI task timing breakdown:
Section |  min time  |  avg time  |  max time  |%varavg| %total
---------------------------------------------------------------
Pair    | 572.17     | 888.36     | 1406.4     | 772.1 | 62.76
Bond    | 0.00015593 | 0.00058171 | 0.0014718  |   0.0 |  0.00
Neigh   | 0.01775    | 0.029697   | 0.054516   |   6.4 |  0.00
Comm    | 8.7884     | 468.25     | 743.43     | 982.4 | 33.08
Output  | 0.13785    | 38.534     | 82.032     | 519.4 |  2.72
Modify  | 0.0094669  | 0.011581   | 0.013527   |   0.9 |  0.00
Other   |            | 20.23      |            |       |  1.43

Nlocal:        54.0000 ave          84 max          36 min
Histogram: 3 3 4 0 0 2 1 0 1 2
Nghost:        477.750 ave         592 max         348 min
Histogram: 2 0 2 1 3 3 1 0 0 4
Neighs:         0.00000 ave           0 max           0 min
Histogram: 16 0 0 0 0 0 0 0 0 0
FullNghs:      2234.12 ave        4892 max        1038 min
Histogram: 5 5 0 0 2 0 2 0 0 2

Total # of neighbors = 35746
Ave neighs/atom = 41.372685
Ave special neighs/atom = 0.0000000
Neighbor list builds = 199
Dangerous builds = 198
unfix   1

velocity    all create 487.5 1312343 dist gaussian
fix     2 all npt temp 487.5 487.5 $(100.0*dt) aniso 0.0 1.01325 $(1000.0*dt)
fix     2 all npt temp 487.5 487.5 0.10000000000000000555 aniso 0.0 1.01325 $(1000.0*dt)
fix     2 all npt temp 487.5 487.5 0.10000000000000000555 aniso 0.0 1.01325 1
run     3000
Per MPI rank memory allocation (min/avg/max) = 8.894 | 8.907 | 8.916 Mbytes
Step Temp PotEng TotEng Press Volume c_msd[4] 
    2000        487.5   -8463.1089   -8408.7276   -12809.272    21914.265    2.7384799 
    2010    476.82491   -8462.1273   -8408.9368   -12639.833    21898.376    2.7364991 
    2020    463.88245   -8461.2416   -8409.4948   -11707.533    21851.503     2.731331 
    2030     473.7383   -8463.1165   -8410.2702   -10460.823    21776.228    2.7231122 
    2040    478.79175   -8464.5227   -8411.1128   -8451.6338    21676.658    2.7132749 
    2050    484.12869   -8465.8848   -8411.8796   -6237.8995    21559.157     2.704051 
    2060    492.16044   -8467.3652   -8412.4639   -3796.3094    21431.322    2.6979552 
    2070    483.05618   -8466.6485   -8412.7629   -1236.6942    21301.432    2.6952018 
    2080    491.38018   -8467.5883   -8412.7741    851.15939    21177.548    2.6932386 
    2090    506.27656    -8469.065   -8412.5891    1957.2535     21065.65    2.6911303 
    2100    516.23751   -8469.9527   -8412.3656     2025.227    20968.391     2.689289 
    2110    528.28769   -8471.1535   -8412.2222    1490.0076    20885.323    2.6875215 
    2120    531.23932   -8471.4717   -8412.2112    895.09445    20814.311    2.6866356 
    2130    535.65297   -8472.1099    -8412.357    35.695922    20752.859    2.6893871 
    2140    536.70266   -8472.5538   -8412.6838   -1160.0423    20698.013    2.6977442 
    2150    534.81989   -8472.8668   -8413.2068   -1897.4465    20646.576     2.710352 
    2160    534.37591   -8473.5211   -8413.9107   -1804.7678     20596.55    2.7239546 
    2170    530.96093    -8473.979   -8414.7495   -1354.1111    20547.629    2.7371944 
    2180    524.83391   -8474.1799   -8415.6339   -727.59104    20500.377    2.7501772 
    2190    526.51017   -8475.1925   -8416.4595   -207.61534    20455.644    2.7627017 
    2200    532.98318   -8476.6386   -8417.1836     318.4331    20414.071    2.7755507 
    2210     532.5393   -8477.2066   -8417.8011    961.72366    20376.277    2.7901043 
    2220    535.32541   -8478.0624   -8418.3461    1153.0073    20342.972    2.8051338 
    2230    532.38606   -8478.2427   -8418.8543    1310.0019    20314.181    2.8180702 
    2240    532.56908   -8478.7567   -8419.3479    1738.8678    20289.862    2.8281553 
    2250    534.91987   -8479.5126   -8419.8415    2361.0922    20270.529    2.8372266 
    2260    533.26573   -8479.8362   -8420.3496    2723.9338    20257.047    2.8480479 
    2270    538.12295   -8480.9242   -8420.8958    2432.8774    20249.742    2.8616616 
    2280    554.41566   -8483.3758   -8421.5299    1542.8708    20247.693    2.8771425 
    2290    542.48608   -8482.7687   -8422.2536    1043.8157    20249.013    2.8927682 
    2300    516.26488    -8480.576   -8422.9858    1139.8648    20252.551     2.907623 
    2310    511.39104   -8480.7088   -8423.6624    1013.3725     20258.27    2.9240048 
    2320    527.06341    -8483.101   -8424.3062    527.76893    20265.796    2.9449503 
    2330    527.43159   -8483.7813   -8424.9455    481.50755    20274.226    2.9698156 
    2340    521.44954   -8483.7559   -8425.5874    424.85302    20283.353    2.9960176 
    2350    529.37226   -8485.2958   -8426.2435   0.93401172    20292.982    3.0219024 
    2360    530.07483   -8486.0491   -8426.9184   -212.14221    20302.327    3.0472994 
    2370     524.3826    -8486.086   -8427.5904   -216.43339    20310.934     3.072946 
    2380    529.69319   -8487.3525   -8428.2644   -275.23079    20318.756    3.0995002 
    2390    524.37785   -8487.4383   -8428.9431   -109.09519    20325.762    3.1273318 
    2400     515.0387   -8487.0598   -8429.6065    379.57513     20332.35    3.1558039 
    2410    506.44183   -8486.7395   -8430.2452    862.10993    20339.506    3.1843252 
    2420     503.5768   -8487.0278    -8430.853    959.71064    20348.145    3.2124076 
    2430    510.28926   -8488.3675   -8431.4439    616.21987    20358.422    3.2394469 
    2440    512.63596   -8489.2098   -8432.0245   -92.301445    20369.588    3.2645818 
    2450    520.16701   -8490.6308   -8432.6054   -1149.6416    20380.089    3.2870775 
    2460    521.09193   -8491.3344   -8433.2058   -1916.3115    20387.848    3.3075644 
    2470    511.75524   -8490.9129   -8433.8258    -2217.523    20391.369    3.3275878 
    2480    509.91612   -8491.3363   -8434.4544   -2193.8401    20390.157    3.3485888 
    2490    508.88554   -8491.8539    -8435.087   -1837.3866    20384.459    3.3719532 
    2500    497.11863   -8491.1573    -8435.703   -1364.7853     20375.11    3.3980783 
    2510    486.30306    -8490.509   -8436.2612   -951.49841    20363.249    3.4248036 
    2520    491.13378   -8491.5381   -8436.7514   -922.84134    20349.806    3.4493088 
    2530    494.08878   -8492.3075   -8437.1912   -788.26955    20334.993    3.4712043 
    2540    496.70476   -8493.0153   -8437.6071   -447.81353     20319.16    3.4905927 
    2550    500.84652   -8493.8916   -8438.0215    103.64022     20303.06    3.5067272 
    2560    502.54502   -8494.4964   -8438.4367    834.11953    20287.851    3.5196709 
    2570     502.9511   -8494.9669   -8438.8619    1546.4787    20274.999    3.5310399 
    2580     490.8418   -8494.0422    -8439.288    2083.9825     20265.84    3.5434045 
    2590    489.50761   -8494.3074   -8439.7021    2276.5836    20261.314    3.5589702 
    2600     499.6204   -8495.8511   -8440.1176    2184.0075    20261.642    3.5806802 
    2610    500.34866   -8496.3601   -8440.5454    2262.0481    20266.534    3.6098621 
    2620     502.2427   -8497.0165   -8440.9906    2406.1577    20275.969    3.6432333 
    2630    508.54158    -8498.191   -8441.4624    2412.7698    20290.065    3.6753005 
    2640    511.54903   -8499.0337   -8441.9696    2206.2429    20308.643    3.7026268 
    2650    505.97151   -8498.9388   -8442.4969     1940.738    20331.176    3.7249447 
    2660     504.4469   -8499.2982   -8443.0264    1041.3644    20356.862     3.743049 
    2670    492.79599   -8498.5002    -8443.528   -126.01163    20383.809    3.7585973 
    2680    480.40133    -8497.554   -8443.9645   -1237.1693    20409.564    3.7754608 
    2690     484.0977    -8498.344   -8444.3422    -2153.802    20431.831    3.7973188 
    2700    485.60397   -8498.8544   -8444.6846   -2422.0328    20448.904    3.8241077 
    2710    490.18352    -8499.696   -8445.0153   -2333.6456    20460.313    3.8541331 
    2720    497.87126   -8500.8896   -8445.3513   -2145.4273    20466.406    3.8859671 
    2730     500.6398   -8501.5533   -8445.7062   -1751.9603    20467.792     3.915883 
    2740    497.15533   -8501.5356   -8446.0772    -1080.002    20465.509    3.9421621 
    2750    495.28682    -8501.709    -8446.459   -675.34238    20460.962    3.9658068 
    2760    487.44129   -8501.2088   -8446.8339   -125.43047    20455.211    3.9865687 
    2770    491.83459   -8502.0617   -8447.1968   -56.142104    20449.291     4.004323 
    2780    495.55975   -8502.8365   -8447.5561   -40.956123    20443.456    4.0195263 
    2790    492.47597   -8502.8535   -8447.9171    70.405913    20437.762    4.0325876 
    2800    491.17957   -8503.0698    -8448.278    48.712582    20432.391    4.0456429 
    2810    493.24478   -8503.6606   -8448.6384   -27.777342    20427.281    4.0606077 
    2820    500.12442   -8504.7984   -8449.0088    139.92015    20422.302    4.0804227 
    2830    493.14186   -8504.4086   -8449.3979    730.43269    20417.856    4.1082991 
    2840     473.8487    -8502.625   -8449.7664    1226.6577    20415.089    4.1435967 
    2850    487.42386     -8504.48   -8450.1071    1135.6794     20414.89    4.1821167 
    2860    496.51565   -8505.8247   -8450.4377    1121.1404    20417.119    4.2212621 
    2870    492.61204   -8505.7254   -8450.7738    1420.6724    20421.727    4.2592259 
    2880    485.76693   -8505.2859   -8451.0979    1519.6112    20429.167    4.2951576 
    2890    489.25135   -8505.9696   -8451.3929    1494.5863    20439.592    4.3283352 
    2900    494.25412    -8506.801   -8451.6663    1273.1961    20452.827    4.3574974 
    2910    496.80513   -8507.3638   -8451.9444    1232.3942    20468.416    4.3807812 
    2920    497.21582   -8507.7081   -8452.2429    1152.7804    20486.156    4.3995474 
    2930    499.50213    -8508.285   -8452.5648     642.4809    20505.733    4.4186049 
    2940    502.10473   -8508.9137   -8452.9032   -231.46342    20526.022    4.4416532 
    2950    501.31381   -8509.1768   -8453.2544   -1035.9412    20545.206    4.4681247 
    2960     500.2768   -8509.4214   -8453.6148   -1510.7711    20561.647    4.4926209 
    2970    503.53506   -8510.1607   -8453.9906   -1786.6572    20574.387    4.5115885 
    2980    498.80208   -8510.0297   -8454.3876   -2075.0178    20582.893    4.5275917 
    2990     474.5941   -8507.7164   -8454.7747    -2157.122    20586.723    4.5467945 
    3000    464.64705   -8506.9461   -8455.1141   -2116.6388    20585.819    4.5725836 
    3010    476.95905   -8508.6099   -8455.4044   -2024.2253    20580.402    4.6015886 
    3020    478.79955   -8509.0672   -8455.6564    -1735.883    20570.857    4.6314997 
    3030    482.64691   -8509.7198   -8455.8799   -1507.3134    20557.863     4.660651 
    3040    487.13323   -8510.4253   -8456.0849   -1322.2718    20542.024    4.6869021 
    3050    487.19531    -8510.625   -8456.2776    -909.3219    20523.899    4.7116028 
    3060    486.19243   -8510.6972   -8456.4617   -678.91923     20504.37    4.7388492 
    3070    488.89727   -8511.1835   -8456.6462    -549.2043    20484.007    4.7714257 
    3080    493.32739     -8511.86   -8456.8286    123.35431    20463.264    4.8103013 
    3090    497.59758   -8512.5154   -8457.0076    926.68032    20443.491    4.8539602 
    3100    507.66993   -8513.8294   -8457.1981    1429.0843    20426.284    4.8963589 
    3110    520.39587   -8515.4843   -8457.4333    1723.1374    20412.656    4.9323764 
    3120    520.29938   -8515.7898   -8457.7497    1878.3922     20403.11    4.9649174 
    3130    501.94486   -8514.1334   -8458.1407    1741.1992    20397.776    5.0000245 
    3140    483.23054   -8512.4479   -8458.5429    1273.2736    20396.248    5.0391105 
    3150    490.55214   -8513.6367   -8458.9149     210.0419    20397.335    5.0795031 
    3160    502.84017   -8515.3626     -8459.27   -322.01749    20398.939    5.1185777 
    3170    497.62021   -8515.1334   -8459.6231   -13.401802    20399.986     5.155647 
    3180       493.87   -8515.0599    -8459.968    280.45164    20400.983       5.1889 
    3190    496.34065   -8515.6697   -8460.3021     317.2393    20402.508    5.2145774 
    3200    500.34289   -8516.4405   -8460.6265    343.87493    20404.673    5.2313941 
    3210    515.65107   -8518.4827   -8460.9611    402.39172    20407.535    5.2420319 
    3220    519.58173   -8519.2891    -8461.329    631.51275    20411.198    5.2521349 
    3230    507.96337     -8518.39   -8461.7259    847.77087    20416.107    5.2656459 
    3240    496.45029   -8517.5014   -8462.1217    612.37164    20422.606    5.2819715 
    3250    494.44795   -8517.6471   -8462.4907    -126.0063    20430.117    5.2981954 
    3260    495.31086   -8518.0809   -8462.8283   -690.28557    20437.188    5.3107273 
    3270    495.66718   -8518.4274    -8463.135   -846.08053    20442.708    5.3188465 
    3280    505.90659   -8519.8588   -8463.4242   -1106.9029    20446.263    5.3264263 
    3290    512.66234   -8520.9146   -8463.7264   -1434.3376    20447.347      5.33815 
    3300     505.6414   -8520.4593   -8464.0543   -1634.7229    20445.386    5.3545036 
    3310    493.87603   -8519.4887   -8464.3961   -1761.1109     20440.01    5.3726963 
    3320    471.80483   -8517.3442   -8464.7137   -2001.8251    20431.032    5.3924379 
    3330    465.56489   -8516.9153   -8464.9808   -2569.5608    20417.991    5.4137738 
    3340    479.50534   -8518.6937   -8465.2042   -3337.3202    20399.821    5.4342726 
    3350    496.21308   -8520.7805   -8465.4271   -3844.7597    20375.144    5.4534792 
    3360    498.45352   -8521.2738   -8465.6705   -3602.9398    20343.205    5.4713291 
    3370    500.00419   -8521.6993   -8465.9231    -3176.074    20304.691    5.4864025 
    3380    506.19477   -8522.6629   -8466.1961   -2762.3646    20260.722    5.4987759 
    3390    504.51529   -8522.7572   -8466.4778   -1447.0348    20212.685    5.5105784 
    3400    505.42095   -8523.1349   -8466.7545    142.05223    20163.365    5.5214625 
    3410    495.95215   -8522.3365   -8467.0123    1692.6585    20116.134    5.5292802 
    3420    498.21675   -8522.8388    -8467.262    2358.6981    20073.976    5.5353299 
    3430    516.62787   -8525.1774   -8467.5468    2742.7812    20038.209    5.5445501 
    3440    521.53678   -8526.0746   -8467.8964    3219.0162    20009.434    5.5618338 
    3450    515.01304   -8525.7571   -8468.3066    3607.2956    19988.268    5.5894092 
    3460    502.24431   -8524.7619   -8468.7358    4017.2869    19975.221    5.6256657 
    3470    507.33494   -8525.7598   -8469.1658     3870.344     19970.66    5.6670769 
    3480    513.31326   -8526.8655   -8469.6047    3515.3932    19974.054    5.7116885 
    3490    506.43052   -8526.5359   -8470.0428    3224.9613    19984.456    5.7579427 
    3500    502.19989   -8526.4821    -8470.461    2716.5432    20000.955    5.8055528 
    3510    506.94209   -8527.4044   -8470.8543      1639.48    20022.206    5.8586454 
    3520    506.49877    -8527.722   -8471.2213     476.1067    20045.987     5.918632 
    3530    507.04625   -8528.1204   -8471.5586    -590.1956    20069.874    5.9814435 
    3540    509.01093   -8528.6646   -8471.8836   -1160.3998    20091.759    6.0429927 
    3550     495.3951   -8527.4626   -8472.2005   -1193.0775    20110.547    6.1020924 
    3560    489.67107   -8527.1151   -8472.4915   -1193.4842    20126.198    6.1579203 
    3570    501.23012   -8528.6741   -8472.7612   -1438.3885    20138.775    6.2090588 
    3580    499.97167   -8528.7942   -8473.0217   -1650.0427    20147.956    6.2542006 
    3590    505.16587   -8529.6454   -8473.2934   -2059.4425    20153.344    6.2940061 
    3600    508.57527   -8530.3225   -8473.5901   -1855.7814     20154.42    6.3313146 
    3610    509.09709   -8530.7125    -8473.922   -1297.3665     20151.69    6.3677706 
    3620    501.16367    -8530.183   -8474.2774   -876.91843    20146.382    6.4032561 
    3630    491.67619    -8529.482   -8474.6348   -1001.9205    20139.369    6.4363844 
    3640    485.07376   -8529.0826   -8474.9719   -1161.3305    20130.562    6.4660483 
    3650    483.53219   -8529.2258    -8475.287   -886.16733    20119.769    6.4950791 
    3660    471.16518   -8528.1262    -8475.567   -50.851247    20107.673    6.5286459 
    3670    469.67058   -8528.1904   -8475.7979    457.05346    20095.858    6.5681133 
    3680    486.04229    -8530.199   -8475.9802   -6.5941913    20085.216    6.6106919 
    3690    504.85531   -8532.4619   -8476.1445   -672.04071    20074.948    6.6532425 
    3700    511.68872   -8533.4277   -8476.3481   -1006.7812     20063.74    6.6934812 
    3710     495.5642   -8531.8767   -8476.5958   -736.20897    20050.993    6.7295338 
    3720    495.22705   -8532.1052   -8476.8619   -615.84879    20037.183    6.7618833 
    3730    502.78177   -8533.2286   -8477.1425   -709.51658    20022.612    6.7943291 
    3740    507.86802   -8534.1038   -8477.4504   -950.37011     20007.15      6.83004 
    3750    518.02358   -8535.6007   -8477.8144   -1222.2782    19990.323    6.8681811 
    3760    504.30386   -8534.4655   -8478.2097   -733.85373    19971.803    6.9074609 
    3770     500.0997   -8534.3858   -8478.5989   -74.639108    19952.546    6.9475759 
    3780    509.91833    -8535.869   -8478.9868    259.61403    19933.812    6.9861802 
    3790    514.62172   -8536.8024   -8479.3956     430.5275    19916.289    7.0203161 
    3800     505.1451   -8536.1572   -8479.8075    743.72079    19900.343    7.0505649 
    3810     508.7575   -8536.9598   -8480.2071     933.5535    19886.468    7.0790018 
    3820    506.90082   -8537.1428   -8480.5972    1228.0106    19874.994    7.1071076 
    3830    498.71138   -8536.6047   -8480.9727    1938.9557    19866.503     7.134155 
    3840    497.16671   -8536.7863   -8481.3266    2273.4077    19862.141    7.1595445 
    3850     499.7643     -8537.41   -8481.6606    2020.9062    19862.384    7.1848496 
    3860     498.3411   -8537.5692   -8481.9785    1485.8826     19866.61    7.2132712 
    3870    491.49258   -8537.1027   -8482.2759    1095.0286    19873.695    7.2470082 
    3880    497.01706   -8537.9914   -8482.5484    427.39477    19882.665    7.2876603 
    3890     506.6026   -8539.3339   -8482.8216   -414.44564    19892.152    7.3343319 
    3900    502.70585   -8539.1852   -8483.1076   -1209.8517    19900.488    7.3838327 
    3910    505.08552   -8539.7438   -8483.4008   -1814.2896    19906.157    7.4343841 
    3920    510.64512   -8540.6672    -8483.704   -2213.4099    19908.007    7.4828341 
    3930    513.13784   -8541.2765   -8484.0352     -2075.93    19905.444    7.5244097 
    3940    509.47991   -8541.2308   -8484.3976   -1755.1724    19898.849    7.5587399 
    3950    502.58556   -8540.8445   -8484.7803    -1206.686    19889.011    7.5873749 
    3960    489.25322   -8539.7156   -8485.1387   -235.61321    19877.182    7.6111423 
    3970    496.59035   -8540.8645   -8485.4691    393.18714    19865.235    7.6323427 
    3980    501.85519   -8541.7691   -8485.7864    901.47559    19854.509    7.6552277 
    3990    504.90215    -8542.436   -8486.1134     1339.266    19845.962    7.6838103 
    4000    503.27346   -8542.5936   -8486.4527    1573.2206    19840.373    7.7217226 
    4010    512.09138   -8543.9371   -8486.8125    1121.1146    19837.995    7.7706933 
    4020    522.36736   -8545.4827   -8487.2119    578.32458    19837.913    7.8287289 
    4030    516.63794   -8545.2834   -8487.6517    890.93011    19839.158    7.8906299 
    4040    507.24623   -8544.6817   -8488.0976     1009.784    19842.092     7.949467 
    4050    510.91931   -8545.5317   -8488.5379     713.4053    19846.873    8.0038567 
    4060    507.34876   -8545.5699   -8488.9744    442.43272    19852.927    8.0592023 
    4070    503.90017   -8545.6037   -8489.3929   -41.645906    19859.631    8.1191035 
    4080    511.67054   -8546.8775   -8489.7998   -565.86072    19866.038    8.1832134 
    4090    501.42437   -8546.1341   -8490.1995    -900.5584    19871.119    8.2506371 
    4100     488.4084   -8545.0472   -8490.5645   -742.35976    19874.345    8.3211772 
    4110    498.90255   -8546.5494    -8490.896   -780.95019    19875.938    8.3934046 
    4120    501.36171   -8547.1421   -8491.2145   -666.89465    19875.966    8.4651504 
    4130    508.11019   -8548.2215    -8491.541   -548.24766     19874.66    8.5351035 
    4140    510.82729   -8548.8761   -8491.8925   -716.45423    19872.229    8.6034483 
    4150    491.80534   -8547.1104   -8492.2488   -661.25364    19868.517     8.670254 
    4160    486.98666    -8546.906   -8492.5819   -819.29479    19863.551    8.7352756 
    4170    483.83083   -8546.8517   -8492.8796   -675.47199    19857.179    8.7974606 
    4180    482.38635   -8546.9418   -8493.1309    -582.1178    19849.671     8.854806 
    4190    500.58398   -8549.1941   -8493.3532   -912.27769    19841.171    8.9026803 
    4200    513.03235   -8550.8305    -8493.601   -1049.7495    19831.166     8.938458 
    4210    503.64348   -8550.0793   -8493.8971   -930.69627    19819.431    8.9632267 
    4220    506.27665   -8550.7017   -8494.2258   -849.22743     19806.18    8.9784155 
    4230    525.28543   -8553.1972   -8494.6008   -675.62059    19791.665    8.9851732 
    4240    525.07147   -8553.6093   -8495.0368   -187.83787    19776.328    8.9842733 
    4250     523.6417   -8553.9305   -8495.5175    299.89548    19761.071    8.9780287 
    4260    529.08803   -8555.0574   -8496.0368    830.95666    19746.889    8.9701148 
    4270    529.23933   -8555.6226   -8496.5852    1230.2341    19734.766     8.964377 
    4280     531.3747   -8556.4293   -8497.1537    1110.9408    19725.315    8.9642384 
    4290    523.71806   -8556.1445    -8497.723     827.7498     19718.31    8.9690042 
    4300    524.73048   -8556.8027   -8498.2683    261.15761    19713.062    8.9767947 
    4310    540.43504   -8559.1044   -8498.8181   -219.68322    19708.483    8.9899626 
    4320    538.32661   -8559.4432   -8499.3921   -554.92942    19703.627    9.0134727 
    4330    538.05573   -8560.0144   -8499.9934   -989.15259    19697.786    9.0490307 
    4340    536.42091   -8560.4606   -8500.6221   -1308.5486    19690.179    9.0929868 
    4350    528.04547   -8560.1553    -8501.251   -1449.6589    19680.236    9.1408547 
    4360    532.83162   -8561.3196   -8501.8815   -1966.6161    19667.628     9.190318 
    4370    523.47517   -8560.9068   -8502.5124   -2303.9229    19651.541    9.2390914 
    4380    521.33512   -8561.2838   -8503.1281   -2597.7781    19631.377    9.2837609 
    4390    526.67975   -8562.5014   -8503.7494   -2970.4927    19606.686    9.3211339 
    4400    525.15322   -8562.9725   -8504.3909   -3092.7768    19576.934    9.3489021 
    4410    529.80666   -8564.1505   -8505.0498   -2439.6413    19542.193    9.3686469 
    4420    528.15905   -8564.6239    -8505.707   -1042.2084     19503.94    9.3851217 
    4430    529.39135   -8565.3932   -8506.3388    113.71429    19464.855     9.400273 
    4440    544.13555   -8567.6867   -8506.9876    634.31045    19427.153    9.4134001 
    4450     539.9957   -8567.8989   -8507.6616    1927.8799    19392.075    9.4250606 
    4460    531.00503   -8567.5487   -8508.3143    3746.0681    19361.957    9.4386719 
    4470    540.68738   -8569.2764   -8508.9619    4874.3582    19339.885    9.4604396 
    4480    545.92793    -8570.556   -8509.6569    5073.4789    19327.644     9.496664 
    4490    546.34519   -8571.3559   -8510.4103    4875.3671    19325.374    9.5490253 
    4500    548.63588   -8572.4151    -8511.214    3853.7864    19332.246    9.6153479 
    4510    554.20378   -8573.8818   -8512.0596    2677.1539     19346.18    9.6922605 
    4520     542.1644   -8573.3991   -8512.9199    2024.5009    19364.875    9.7760569 
    4530    533.30905   -8573.2392   -8513.7478    1582.3032    19386.926    9.8640649 
    4540    531.50687     -8573.83   -8514.5396    911.97175    19411.304    9.9560663 
    4550    531.83366   -8574.6158    -8515.289   -166.99196    19436.626    10.050925 
    4560    557.54507   -8578.2379   -8516.0429   -1671.4805    19460.808    10.144866 
    4570     565.0666   -8579.8966   -8516.8626   -2873.9308    19481.088     10.23452 
    4580    539.66198   -8577.9199   -8517.7198    -2971.532    19495.428    10.315827 
    4590     523.1243   -8576.8971   -8518.5417   -2773.7058    19503.652    10.383962 
    4600     530.1922   -8578.4753   -8519.3316   -2577.3559    19506.268    10.437775 
    4610    532.73603   -8579.5472   -8520.1197   -2272.6424    19503.825    10.482795 
    4620    524.92321    -8579.456      -8520.9   -1655.4203    19497.109    10.526317 
    4630    531.90281   -8581.0075   -8521.6729   -1152.4547    19487.372    10.573262 
    4640    545.62077   -8583.3392   -8522.4744    -964.6416    19475.643    10.627306 
    4650    536.72377   -8583.1812   -8523.3088   -495.54629     19462.47    10.687932 
    4660    521.37725   -8582.2691   -8524.1087   -114.64683    19448.735    10.749884 
    4670    532.86742   -8584.3268   -8524.8846   -43.722158    19435.117    10.804254 
    4680     520.6567   -8583.7326   -8525.6526    677.78947    19421.958    10.846273 
    4690    501.62405   -8582.3219    -8526.365    1489.7599    19410.514    10.881338 
    4700    514.79016   -8584.4657   -8527.0401    1735.6907    19402.141    10.918259 
    4710    520.50979   -8585.7804   -8527.7168     1756.931    19397.308    10.960998 
    4720    527.91518   -8587.2991   -8528.4093    787.49241    19395.801    11.006974 
    4730    539.55835   -8589.3436   -8529.1551    -794.3587    19395.747    11.052728 
    4740    523.49763    -8588.326    -8529.929    -1760.014    19394.295    11.098158 
    4750    521.16612   -8588.8356   -8530.6988   -1821.9067     19389.66     11.14294 
    4760    516.16308   -8589.0341   -8531.4553   -1316.6593    19381.766    11.185825 
    4770    509.89365   -8589.0606   -8532.1812   -820.83118    19371.596    11.225342 
    4780    499.93789   -8588.6348    -8532.866   -657.42883    19360.094    11.260909 
    4790    491.83976   -8588.3557   -8533.4902    -696.8546    19347.625     11.29162 
    4800     508.1337   -8590.7679   -8534.0848   -1130.6577    19334.069    11.315273 
    4810    527.32898   -8593.5253   -8534.7009   -1253.4825    19318.801    11.331157 
    4820    540.47721   -8595.6765   -8535.3855    -1325.238    19301.555    11.338203 
    4830    531.76704   -8595.4564    -8536.137   -1097.6876    19282.302    11.332812 
    4840    524.96224   -8595.4694    -8536.909   -552.42143    19261.531    11.313469 
    4850    517.76966   -8595.4396   -8537.6816     438.4813    19240.316    11.283727 
    4860    494.08461   -8593.5014   -8538.3855    1730.5981    19220.543    11.251359 
    4870    512.15145   -8596.1661   -8539.0349    2014.8955    19204.351    11.227059 
    4880    526.33131   -8598.4147   -8539.7017    2026.8403    19192.329    11.219505 
    4890    515.64308   -8597.9068    -8540.386    1954.7579    19184.411    11.231348 
    4900     506.0769   -8597.5107    -8541.057    1245.6791    19180.247    11.262322 
    4910     504.9058   -8598.0328   -8541.7098    246.34185    19178.472    11.309174 
    4920    505.77082   -8598.7712   -8542.3517   -333.74823     19177.27    11.366426 
    4930    497.80816   -8598.5153   -8542.9841   -74.658653    19175.597    11.428556 
    4940    474.10102   -8596.4563   -8543.5696    820.72194     19173.92    11.494498 
    4950    464.15526   -8595.8556   -8544.0784    1322.8307     19173.76    11.567356 
    4960    481.24004   -8598.2119   -8544.5288     780.1152     19175.93    11.648894 
    4970    490.43152   -8599.6641   -8544.9557   -173.17226    19179.452    11.739322 
    4980    482.31735   -8599.1493   -8545.3461    -862.2951    19182.629    11.837335 
    4990    486.44928   -8599.9593   -8545.6951   -1859.9585    19184.052    11.937121 
    5000    492.24487   -8600.9402   -8546.0296   -2896.1448    19181.952    12.029852 
Loop time of 1959 on 16 procs for 3000 steps with 864 atoms

Performance: 0.132 ns/day, 181.389 hours/ns, 1.531 timesteps/s
96.1% CPU use with 16 MPI tasks x 1 OpenMP threads

MPI task timing breakdown:
Section |  min time  |  avg time  |  max time  |%varavg| %total
---------------------------------------------------------------
Pair    | 818.85     | 1275.9     | 1921.6     | 985.8 | 65.13
Bond    | 0.00022435 | 0.00068124 | 0.0020013  |   0.0 |  0.00
Neigh   | 0.028496   | 0.047589   | 0.086213   |   8.9 |  0.00
Comm    | 1.6142     | 443.05     | 1077.9     |1362.7 | 22.62
Output  | 0.698      | 0.70149    | 0.75159    |   1.5 |  0.04
Modify  | 1.882      | 239.29     | 741        |1505.1 | 12.21
Other   |            | 0.01391    |            |       |  0.00

Nlocal:        54.0000 ave          87 max          31 min
Histogram: 2 3 2 3 0 2 1 0 1 2
Nghost:        513.188 ave         676 max         365 min
Histogram: 3 1 0 2 4 0 2 1 1 2
Neighs:         0.00000 ave           0 max           0 min
Histogram: 16 0 0 0 0 0 0 0 0 0
FullNghs:      2643.38 ave        5685 max         928 min
Histogram: 4 3 3 0 0 2 1 1 0 2

Total # of neighbors = 42294
Ave neighs/atom = 48.951389
Ave special neighs/atom = 0.0000000
Neighbor list builds = 300
Dangerous builds = 300
unfix   2

fix     3 all npt temp 487.5 487.5 $(100.0*dt) aniso 1.01325 1.01325 $(1000.0*dt)
fix     3 all npt temp 487.5 487.5 0.10000000000000000555 aniso 1.01325 1.01325 $(1000.0*dt)
fix     3 all npt temp 487.5 487.5 0.10000000000000000555 aniso 1.01325 1.01325 1
run     20000
Per MPI rank memory allocation (min/avg/max) = 8.895 | 8.909 | 8.922 Mbytes
Step Temp PotEng TotEng Press Volume c_msd[4] 
    5000    492.24487   -8600.9402   -8546.0296   -2896.1448    19181.952    12.029852 
    5010    495.23305   -8601.2888   -8546.0448   -3442.0844    19178.973    12.045523 
    5020    497.31643   -8601.5758   -8546.0994   -3108.4061    19169.597    12.043738 
    5030    497.28594   -8601.6519   -8546.1789   -1982.4944    19154.479     12.02771 
    5040    512.41474   -8603.4452   -8546.2846   -819.65441    19135.606    12.003113 
    5050    500.85758   -8602.2889   -8546.4174    609.24897    19115.245    11.973924 
    5060    500.86933   -8602.4449   -8546.5721    1418.8578    19095.944    11.940889 
    5070    527.00857     -8605.58   -8546.7914    1121.8797    19079.124    11.903014 
    5080    519.41879   -8605.0603   -8547.1183    1113.5643    19064.486    11.861964 
    5090    509.86812    -8604.408   -8547.5314    1156.2662     19051.96    11.823339 
    5100    524.73437   -8606.5631   -8548.0282    768.99355    19041.534    11.794237 
    5110    518.83557   -8606.4796   -8548.6027    479.89953    19032.578    11.781833 
    5120    515.24838   -8606.6837    -8549.207    290.05581    19024.551     11.78951 
    5130    515.41003   -8607.2983   -8549.8035    375.40685    19017.116    11.814638 
    5140    493.88168   -8605.4128   -8550.3196    979.52283    19010.479     11.84853 
    5150    500.62175   -8606.5777   -8550.7326    1480.6292    19005.638    11.884327 
    5160    505.71983   -8607.4858    -8551.072    2014.5733    19003.569     11.92346 
    5170    496.30984   -8606.7229   -8551.3588    2152.8026    19005.206    11.970714 
    5180    504.28854   -8607.8651    -8551.611    1220.8786    19010.689    12.028325 
    5190    516.41855   -8609.4574   -8551.8501   -146.87289    19018.383    12.093557 
    5200    516.72412   -8609.7488   -8552.1074    -1020.256    19025.879    12.161955 
    5210     499.1953   -8608.0699   -8552.3839   -1320.4078    19031.541    12.229671 
    5220    488.40385    -8607.135   -8552.6528   -1538.2036    19034.764    12.293453 
    5230    506.09297   -8609.3755   -8552.9201   -2194.7161     19035.06    12.353223 
    5240    517.95272   -8611.0109   -8553.2325   -2773.7984    19031.262    12.411279 
    5250    505.23452    -8609.954   -8553.5943   -2267.4981    19022.502    12.467084 
    5260    511.31357   -8611.0194   -8553.9816   -1438.7442     19009.57    12.520069 
    5270    521.89129   -8612.6205   -8554.4028   -871.78395    18993.906    12.570943 
    5280    506.99234   -8611.4109   -8554.8551    -39.73719    18976.686     12.62065 
    5290    491.49449   -8610.1231   -8555.2962    910.70941    18959.448    12.669727 
    5300    497.26094    -8611.187   -8555.7168    1304.0195    18943.836    12.721387 
    5310    499.57928   -8611.8526   -8556.1238     1679.114    18930.658    12.779806 
    5320    495.43138   -8611.7641    -8556.498    2285.4612     18920.67    12.844175 
    5330    505.77608   -8613.2779   -8556.8578    2263.5251    18914.813    12.912149 
    5340    510.35377   -8614.1615   -8557.2308    1655.4501    18913.051    12.983473 
    5350       507.54   -8614.2333   -8557.6165     897.4341    18914.343     13.05758 
    5360     511.8623     -8615.11    -8558.011     76.15704    18917.265    13.130492 
    5370    517.78774   -8616.1855   -8558.4255   -392.13175    18920.386    13.193522 
    5380     525.5044   -8617.5025   -8558.8817    -570.6574    18922.844    13.243008 
    5390     525.2979   -8617.9797   -8559.3819   -874.12778     18924.23    13.285664 
    5400    525.35594   -8618.5235   -8559.9193   -1209.1341    18923.972     13.32914 
    5410    518.24673   -8618.2778   -8560.4666   -522.83534    18921.696    13.374992 
    5420    508.04237   -8617.6701   -8560.9973    653.60901    18918.541    13.421061 
    5430    479.87335   -8614.9887   -8561.4581     1677.547    18916.609    13.469391 
    5440     481.7864   -8615.5818   -8561.8378    1047.4424    18917.492     13.52562 
    5450     513.0761   -8619.4206   -8562.1862   -235.76228    18920.205     13.58874 
    5460    527.32169   -8621.3836   -8562.5601   -758.00815    18922.601    13.652926 
    5470    525.85422   -8621.6405   -8562.9807   -529.21153    18923.718    13.715265 
    5480    522.59796   -8621.7477   -8563.4511    53.681588    18923.915    13.775282 
    5490    520.99308   -8622.0755    -8563.958    1008.6457    18924.304     13.83539 
    5500    528.83497   -8623.4983    -8564.506    1855.2808    18926.534    13.898412 
    5510     517.9849   -8622.8592   -8565.0772    2614.1635    18932.183    13.967486 
    5520    505.58148     -8622.03   -8565.6316    2979.0419    18942.613    14.044482 
    5530    517.81051   -8623.9318   -8566.1693     2389.694    18958.367    14.126602 
    5540    530.73009   -8625.9261   -8566.7224    1039.7413     18978.41    14.212026 
    5550    522.80434   -8625.6034   -8567.2838   -186.29212    19000.409    14.298362 
    5560    518.38811   -8625.6577   -8567.8307   -1167.2445    19022.065    14.378977 
    5570    518.28594   -8626.1737   -8568.3581   -1786.4386    19041.613    14.449599 
    5580    524.74321   -8627.4157   -8568.8798   -2463.3151    19057.785    14.510704 
    5590    535.87214   -8629.2182   -8569.4408   -2973.2658    19069.381    14.566269 
    5600    523.91301   -8628.4946   -8570.0513    -2848.476    19075.515     14.62094 
    5610    508.06915   -8627.3457   -8570.6698   -2005.1229     19076.43    14.678212 
    5620    485.26204   -8625.3648   -8571.2331   -1073.7402    19073.582    14.740247 
    5630    470.42232   -8624.1635   -8571.6872   -433.67176    19068.712    14.802826 
    5640    489.08955    -8626.615   -8572.0564   -985.05505    19062.834    14.860828 
    5650    508.17292   -8629.0953   -8572.4078   -1586.9115     19055.15    14.912536 
    5660    511.08964    -8629.797   -8572.7842    -2017.793    19044.565    14.958793 
    5670     517.2151   -8630.9049   -8573.2088   -2100.6134    19030.345    15.001574 
    5680    515.28488    -8631.164   -8573.6832   -1402.6399    19012.417    15.039641 
    5690    514.57793    -8631.586    -8574.184   -184.68903    18992.064    15.073128 
    5700    518.30091   -8632.5238   -8574.7066    605.20577    18971.412    15.106784 
    5710    513.58236   -8632.5378   -8575.2469    902.57394    18951.929    15.146899 
    5720    502.01355   -8631.7795   -8575.7792    1160.3446     18934.25    15.197505 
    5730    482.60952   -8630.0943   -8576.2585    1579.7547    18918.861    15.256603 
    5740    488.05685    -8631.118   -8576.6745    2090.4268    18906.506    15.318792 
    5750    510.07703   -8633.9677   -8577.0679    2504.8085    18898.082    15.379492 
    5760    512.41316   -8634.6415    -8577.481    3319.6015    18894.415    15.437958 
    5770     495.9084   -8633.2237   -8577.9043    3998.3512     18896.85    15.497823 
    5780    500.61556   -8634.1825   -8578.3381    3739.9877    18906.422    15.566355 
    5790     501.5544   -8634.7309   -8578.7818    2807.4592    18922.684    15.649613 
    5800    506.00583   -8635.6744   -8579.2287    1608.8488    18943.945    15.747487 
    5810     506.5885   -8636.1897    -8579.679     934.7554    18968.097    15.853809 
    5820    496.59402   -8635.5178    -8580.122     817.3086    18993.889    15.961957 
    5830    503.06376   -8636.6786   -8580.5611    313.34813    19020.894    16.069756 
    5840    499.19999   -8636.6769   -8580.9904   -563.65424    19048.185    16.178072 
    5850    499.72026    -8637.146   -8581.4015   -1865.2186    19074.083    16.284381 
    5860    505.24038   -8638.1684   -8581.8081   -2556.2148    19096.369    16.382483 
    5870    501.90715   -8638.2238   -8582.2353   -2334.8019    19113.805    16.472743 
    5880    493.38034   -8637.7196   -8582.6823   -1458.5058    19126.817    16.563961 
    5890    483.44889   -8637.0438   -8583.1143   -1096.0586    19136.862    16.667297 
    5900    482.42009   -8637.3138   -8583.4992   -1461.5556    19144.619     16.78632 
    5910    484.37748   -8637.8728   -8583.8397    -2058.008    19149.517    16.915319 
    5920    480.28211   -8637.7184   -8584.1422   -2149.1323    19150.591    17.046808 
    5930    501.24376   -8640.3509   -8584.4364   -2358.2114    19147.573    17.175131 
    5940    509.47761   -8641.5942   -8584.7612   -2320.8045    19140.246    17.297206 
    5950    503.83836   -8641.3268   -8585.1228   -2058.6302    19128.726    17.411254 
    5960    508.34663   -8642.2251   -8585.5182   -1936.0435    19113.523    17.517307 
    5970     499.6624   -8641.6734   -8585.9353   -1524.3099    19095.068    17.621375 
    5980    481.66556   -8640.0641   -8586.3336   -1063.6749    19074.177    17.727461 
    5990    479.04995   -8640.1157    -8586.677    -921.7188    19051.703    17.829235 
    6000    480.29009   -8640.5449   -8586.9678   -506.13881    19028.097    17.915634 
    6010    476.97445   -8640.4093   -8587.2021    538.98294     19004.25    17.979665 
    6020    476.48822   -8640.5357   -8587.3828    1600.7947    18982.015    18.022825 
    6030    485.53405   -8641.6983   -8587.5363    2115.4948    18963.216    18.053622 
    6040    503.28328   -8643.8475   -8587.7054     2367.687    18948.732     18.08062 
    6050    493.35192   -8642.9445   -8587.9104    3674.8766    18939.151    18.109581 
    6060    476.84999   -8641.3196   -8588.1263    4609.7069    18936.472    18.152473 
    6070    493.95155   -8643.4554   -8588.3544    3465.3887    18941.895    18.217304 
    6080    494.75276   -8643.7835   -8588.5931    2016.3979    18953.494    18.298268 
    6090    490.06745   -8643.5076   -8588.8399    818.87107     18968.55    18.386592 
    6100    488.12471   -8643.5334   -8589.0823   -233.18356    18984.764    18.475782 
    6110    485.15785   -8643.4359   -8589.3158   -1064.4023    19000.196     18.56241 
    6120    484.75114   -8643.6177    -8589.543   -1490.0255    19013.393     18.64477 
    6130    489.25134    -8644.341   -8589.7643   -2042.4097    19023.512    18.722239 
    6140    504.69209   -8646.3015   -8590.0024   -2896.0167    19029.543    18.788731 
    6150    502.33425   -8646.3123   -8590.2762   -2932.4629    19030.217    18.831125 
    6160    491.81848    -8645.439   -8590.5759    -2280.365    19025.598    18.843827 
    6170    492.21983     -8645.79   -8590.8822   -1758.7225    19016.876    18.832967 
    6180    487.85174   -8645.6059   -8591.1853    -1008.963    19005.201    18.809761 
    6190    483.38641   -8645.3982   -8591.4757   -58.417218     18992.03    18.782681 
    6200    471.88329   -8644.3791   -8591.7398    1152.4312    18979.156    18.754798 
    6210     463.7503   -8643.6905   -8591.9585    2089.5026    18968.696    18.729632 
    6220      477.333   -8645.3818   -8592.1346    2175.8941    18962.186    18.710005 
    6230    488.28428   -8646.7532   -8592.2843    2333.6662    18959.854     18.69792 
    6240    493.68581   -8647.5018   -8592.4304    2490.3607    18961.838    18.697354 
    6250    493.45225   -8647.6318   -8592.5865    2026.1209    18968.233    18.712292 
    6260    485.89496   -8646.9504   -8592.7481    1050.6018    18978.097    18.745538 
    6270    482.46954   -8646.7149   -8592.8947   -0.2740536    18989.622    18.796207 
    6280    492.21964   -8647.9405   -8593.0327   -1175.7859    19000.823    18.860753 
    6290    506.38715   -8649.6788   -8593.1906   -1913.2557    19009.631    18.936361 
    6300    503.33771   -8649.5498   -8593.4018   -2129.1901    19014.759    19.020598 
    6310    481.96682   -8647.4098   -8593.6457   -2152.7428    19015.848     19.10881 
    6320    484.24972   -8647.9049   -8593.8861   -2051.5771    19012.988    19.192735 
    6330    498.84244   -8649.7767     -8594.13   -2014.5252    19006.429    19.265751 
    6340    491.70544   -8649.2407   -8594.3902   -1905.7301     18996.36    19.327177 
    6350    478.27044   -8647.9929   -8594.6411   -1681.2235    18983.094    19.374828 
    6360    484.99169   -8648.9692   -8594.8676   -1491.9961    18967.108    19.403046 
    6370    491.79907   -8649.9523   -8595.0914   -1337.7836    18948.836    19.412198 
    6380     500.6019   -8651.1827   -8595.3398   -1476.1086    18928.556    19.409045 
    6390    497.43986   -8651.1172   -8595.6271   -1004.5507    18906.252    19.396866 
    6400    478.02957   -8649.2294   -8595.9044    316.41663     18882.89    19.371892 
    6410    491.62459   -8651.0031   -8596.1617    1358.3449    18860.681     19.33158 
    6420    492.49802   -8651.3489     -8596.41     2481.574    18841.553    19.283565 
    6430    488.08911   -8651.0982   -8596.6511    3128.6231    18827.348    19.236538 
    6440    501.45742    -8652.844   -8596.9056    2664.0182    18818.974    19.194269 
    6450    498.38296   -8652.7693   -8597.1739    1955.6591    18815.585    19.162245 
    6460    490.10942   -8652.1179   -8597.4454    1454.5132    18815.823    19.143867 
    6470    479.90721   -8651.2235   -8597.6891    1134.6075    18818.711    19.135555 
    6480     489.6439   -8652.5142   -8597.8937    278.07991    18823.503    19.135383 
    6490    504.71835   -8654.3845   -8598.0824   -1203.5404    18828.579    19.146439 
    6500    494.79327   -8653.4667   -8598.2718   -2459.2994    18831.411     19.16752 
    6510    486.67276   -8652.7363   -8598.4472   -3078.0101    18829.855      19.1887 
    6520    505.44287   -8654.9994   -8598.6165   -3239.4394    18822.813    19.202828 
    6530    515.17356   -8656.2791   -8598.8107   -2525.9686    18810.173    19.211891 
    6540    521.63931   -8657.2244   -8599.0348   -1126.6756    18793.324    19.221965 
    6550    522.76773   -8657.6004   -8599.2849    280.52223    18774.754      19.2358 
    6560    504.27885   -8655.7946   -8599.5416    1226.9287    18756.952    19.251738 
    6570    495.07126   -8655.0092   -8599.7832    1382.8251    18741.556    19.274256 
    6580     490.5942   -8654.7146    -8599.988    992.79513    18728.788    19.311601 
    6590    498.66306   -8655.7888   -8600.1622    1052.5028    18718.104    19.363476 
    6600    506.12215   -8656.7989   -8600.3402    1252.9781    18709.489    19.424432 
    6610    497.39533   -8656.0276   -8600.5424    1825.3636    18703.327    19.491006 
    6620    491.25845   -8655.5514   -8600.7508    2204.0445    18700.464    19.563848 
    6630    490.32345   -8655.6462   -8600.9499    2452.3155     18701.58    19.640949 
    6640    487.73702   -8655.5388    -8601.131    2024.1506    18706.974    19.715889 
    6650    494.40442   -8656.4668   -8601.3152    938.56655    18715.796    19.784285 
    6660    482.76803   -8655.3628   -8601.5093    7.2255578    18726.208    19.848388 
    6670    471.50399    -8654.295   -8601.6981   -593.19459     18736.57    19.913179 
    6680    475.62923   -8654.9227   -8601.8656   -1278.8147    18745.723     19.97905 
    6690    476.50324   -8655.1523   -8601.9976    -1663.164    18752.522    20.040024 
    6700    476.39355   -8655.2207   -8602.0783   -1814.8929    18756.279    20.088002 
    6710    501.05743   -8658.0227    -8602.129   -2308.9421    18756.641    20.122815 
    6720    501.88836   -8658.1804    -8602.194   -2054.6983    18752.981     20.15159 
    6730    499.21003   -8657.9828   -8602.2952   -1536.5753    18745.704    20.182846 
    6740     516.8242   -8660.1019   -8602.4494   -1023.7295    18735.789    20.224027 
    6750    505.90565   -8659.1112   -8602.6766   -25.269516     18724.27    20.278036 
    6760    489.73382   -8657.5748   -8602.9443    916.57684    18712.876    20.348437 
    6770    504.18143   -8659.4645   -8603.2223    1142.1864    18703.177     20.43309 
    6780    516.92321   -8661.2043   -8603.5408    1328.7581    18695.666    20.527019 
    6790    516.24024   -8661.5143   -8603.9269    1554.3085    18690.663     20.62925 
    6800    525.54668   -8663.0289   -8604.4034     1204.489    18688.426    20.740838 
    6810    520.93615   -8663.0665   -8604.9553    463.37522    18688.343    20.867346 
    6820    519.79216     -8663.53   -8605.5464   -84.777049    18689.143    21.012225 
    6830    521.28931   -8664.2988   -8606.1482   -634.12455     18689.77    21.171372 
    6840     498.6207    -8662.325   -8606.7031   -794.02138    18689.352    21.339952 
    6850    490.05586   -8661.8235    -8607.157   -1091.8983    18687.476     21.51767 
    6860    494.81894   -8662.7021   -8607.5043   -963.52691    18683.762    21.696185 
    6870    501.10887   -8663.6809   -8607.7815   -342.59032    18678.493    21.864608 
    6880    506.68705   -8664.5526   -8608.0309    139.50176    18672.739    22.017648 
    6890    510.03267   -8665.1833   -8608.2884    265.76731    18667.316    22.159549 
    6900    503.30775   -8664.6944   -8608.5496    50.793721    18662.417    22.296333 
    6910    506.14344   -8665.2674   -8608.8064   -434.06612    18657.663    22.427175 
    6920    511.05859    -8666.074   -8609.0646   -711.66903    18652.267     22.54536 
    6930    503.02497   -8665.4529   -8609.3397   -399.57303     18645.82    22.642224 
    6940    489.43433    -8664.216   -8609.6189   -191.84462    18638.773    22.713047 
    6950    499.03257   -8665.5725   -8609.9046   -368.01571     18631.46    22.754137 
    6960    511.22435   -8667.2441   -8610.2163   -80.701989    18623.714    22.765554 
    6970    508.34712   -8667.2692   -8610.5623    381.34669    18615.991    22.755359 
    6980    498.70456   -8666.5556   -8610.9244    953.48526    18609.104    22.735764 
    6990    504.09786    -8667.522   -8611.2892    1463.2934    18604.005     22.71773 
    7000    503.73591   -8667.8603   -8611.6678     1863.801    18601.594     22.70682 
    7010    488.46451    -8666.535   -8612.0461    2269.9891     18602.54    22.699561 
    7020    483.70876   -8666.3558   -8612.3974     2341.736    18607.454    22.693446 
    7030    499.28314   -8668.4235   -8612.7277     1890.032    18616.367    22.692954 
    7040    498.40273   -8668.6562   -8613.0586    1348.8572    18628.509    22.703566 
    7050    478.29546   -8666.7225   -8613.3679    315.79457    18642.808    22.726505 
    7060     477.8143   -8666.9336   -8613.6327   -962.70916    18657.444    22.757809 
    7070    472.55356   -8666.5598   -8613.8457   -1738.1229    18670.263    22.789514 
    7080    461.56918   -8665.4963   -8614.0076    -1578.083    18679.973     22.81581 
    7090    469.27058   -8666.4606   -8614.1127    -1534.383    18686.696    22.836528 
    7100    495.48587   -8669.4588   -8614.1866   -1777.1064    18690.542    22.850485 
    7110     497.7406   -8669.7916   -8614.2679   -1512.7691    18691.241    22.852732 
    7120    496.11934   -8669.7209   -8614.3781   -908.22398    18689.297    22.842907 
    7130    492.70581    -8669.472     -8614.51   -698.71227    18685.692    22.826813 
    7140    484.50801   -8668.7047   -8614.6571   -451.78669    18680.871    22.815186 
    7150    472.34698   -8667.4817   -8614.7906   -48.177423    18675.319    22.815404 
    7160    477.54963   -8668.1649   -8614.8935    288.10491    18669.731    22.824734 
    7170    487.23781   -8669.3252   -8614.9731    692.90583    18664.731    22.838436 
    7180    482.13752   -8668.8343   -8615.0511    749.52729    18660.953    22.854323 
    7190     478.3958   -8668.4878   -8615.1221    28.905819    18658.452    22.868805 
    7200    485.96698   -8669.4017   -8615.1914   -829.08575    18655.997    22.877551 
    7210    475.07209   -8668.2488   -8615.2538   -639.51451    18652.247    22.876628 
    7220    478.93201   -8668.7263   -8615.3007   -358.54237    18647.374    22.863929 
    7230    492.72334   -8670.3018   -8615.3378    364.42723    18641.998    22.842283 
    7240    511.51392   -8672.4572   -8615.3971    759.12462    18637.245    22.825558 
    7250    521.40364   -8673.6747   -8615.5114    546.87841    18633.786    22.821737 
    7260    508.50618   -8672.4187    -8615.694    286.43624    18631.305    22.824274 
    7270     492.9643   -8670.9039    -8615.913    73.138581    18629.348    22.823468 
    7280    506.14864   -8672.6395   -8616.1778   -81.023613    18627.512    22.819759 
    7290     493.5835   -8671.5559   -8616.4959    775.65903    18625.726    22.827672 
    7300    489.60773   -8671.4693   -8616.8528    1469.3104     18625.33     22.85599 
    7310     498.9828   -8672.9075   -8617.2452     1221.646    18627.403    22.901311 
    7320    499.43773     -8673.39   -8617.6769    991.80033    18631.663    22.952526 
    7330    501.62245   -8674.1008   -8618.1441    739.81727    18637.673    23.005008 
    7340    498.88011   -8674.2736   -8618.6228    219.83056    18644.931    23.062701 
    7350    492.01771     -8673.97   -8619.0846   -346.01383     18652.57    23.127668 
    7360    478.91061   -8672.9152    -8619.492   -1117.0006     18659.53     23.20099 
    7370    484.54659   -8673.8858   -8619.8339   -2049.3888     18664.44     23.28097 
    7380    491.15338   -8674.9217   -8620.1328    -2223.728    18665.795    23.363433 
    7390    473.72065   -8673.2274   -8620.3832    -1583.625    18663.295    23.446193 
    7400    474.52922    -8673.503   -8620.5686   -1570.1139    18657.866    23.526998 
    7410    487.33711   -8675.0778   -8620.7146   -1524.9179     18649.67    23.606007 
    7420    475.65578    -8673.888   -8620.8279   -471.46269    18638.987    23.684784 
    7430    476.72359   -8674.0799   -8620.9007    523.03353    18627.522    23.766864 
    7440    492.04683   -8675.8349   -8620.9463    1085.6674    18617.014    23.853142 
    7450    488.43051   -8675.4755   -8620.9903    1350.3916    18608.473    23.944834 
    7460    490.26676   -8675.7187   -8621.0287    1372.5944    18602.386    24.044747 
    7470    510.11533   -8677.9654   -8621.0613    957.73261    18598.694    24.146781 
    7480    506.46235   -8677.6148   -8621.1182    1313.0881    18596.878    24.237388 
    7490     497.1509    -8676.676   -8621.2181    1674.9573     18597.41     24.31185 
    7500    500.68058   -8677.2119   -8621.3602    1611.5724    18600.844    24.373093 
    7510    500.79241   -8677.4025   -8621.5384    1538.2067    18607.123    24.429238 
    7520    501.12385   -8677.6482   -8621.7471    1291.7172    18616.082    24.489308 
    7530    496.57698   -8677.3695   -8621.9756    908.04912    18627.274    24.553767 
    7540    493.31704    -8677.248   -8622.2178    657.61388    18640.045    24.615558 
    7550    481.99095   -8676.2169   -8622.4501    333.19817    18653.893     24.67077 
    7560    486.00627   -8676.8798   -8622.6651   -277.80968    18668.198    24.721139 
    7570    496.00218   -8678.2084   -8622.8786   -1390.0454    18681.835    24.768982 
    7580    486.59267   -8677.3773   -8623.0971   -2087.8745    18692.982    24.811378 
    7590    479.99423   -8676.8497   -8623.3056   -2430.1443    18700.378     24.84752 
    7600    484.67612   -8677.5685   -8623.5022   -2847.4376    18703.335    24.874922 
    7610     480.3056    -8677.269   -8623.6902   -2462.7821    18701.339    24.887766 
    7620    471.81439   -8676.4947   -8623.8631   -1416.6105    18695.037    24.883643 
    7630    470.35752   -8676.4676   -8623.9985   -152.22737    18686.257    24.866201 
    7640    487.49935   -8678.4806   -8624.0993      596.105    18677.176    24.848143 
    7650       491.12   -8678.9707   -8624.1855    1038.2959    18669.188    24.842529 
    7660    489.10892   -8678.8315   -8624.2706    1008.7127     18663.03    24.854615 
    7670    492.77978   -8679.3296   -8624.3593    780.87873    18658.691    24.884706 
    7680    492.60736    -8679.418   -8624.4669    712.24167    18655.788    24.935772 
    7690    488.52016    -8679.087   -8624.5919    654.25322    18654.169    25.009622 
    7700    492.65209   -8679.6776   -8624.7215    127.87081    18653.671    25.098848 
    7710    503.55841   -8681.0436   -8624.8709   -615.12841    18653.369    25.197138 
    7720    489.36764   -8679.6413   -8625.0516   -399.78754    18652.123     25.30333 
    7730    481.74398   -8678.9838   -8625.2446    184.89652    18650.238     25.41837 
    7740    499.54864   -8681.1774    -8625.452    309.09233    18648.617    25.536541 
    7750    509.58356   -8682.5471   -8625.7023    624.53202     18647.59    25.645348 
    7760    504.12225   -8682.2556     -8626.02    1104.2864    18647.723    25.735249 
    7770    492.62951   -8681.3472   -8626.3936     1209.726     18649.77    25.808264 
    7780    491.60164   -8681.6644   -8626.8255    1084.5698    18653.929    25.874218 
    7790    475.82101   -8680.3669   -8627.2884    1417.6984     18660.09    25.940634 
    7800    479.64535   -8681.2635   -8627.7583    1455.8588    18668.716     26.01151 
    7810    490.64781   -8682.9675    -8628.235    752.37395    18679.815    26.090786 
    7820    489.25518   -8683.2785   -8628.7013   -819.32198    18692.096    26.179792 
    7830    487.25054   -8683.4829   -8629.1294   -2948.8453    18702.778    26.268394 
    7840     480.6737   -8683.1156   -8629.4957   -4537.9239    18708.197    26.333799 
    7850    486.78906   -8684.1186   -8629.8166   -4928.9825    18705.631    26.361912 
    7860    500.25431   -8685.9206   -8630.1165   -4684.5703    18694.289    26.361152 
    7870    512.71835   -8687.6159   -8630.4214   -3390.9859    18674.758    26.348238 
    7880    503.91108   -8686.9106   -8630.6986   -1353.6947     18649.38    26.335265 
    7890    495.02432   -8686.1209   -8630.9002    400.14005    18621.664    26.327166 
    7900    499.72457   -8686.7879   -8631.0428    1790.6351    18594.778     26.32172 
    7910     490.1686   -8685.8274   -8631.1483    3359.7288    18571.286    26.319986 
    7920    491.59421   -8686.0615   -8631.2235    4597.5679    18553.857    26.331563 
    7930    503.00335   -8687.4169   -8631.3062    4767.6228    18544.499    26.368596 
    7940    494.02401   -8686.5226   -8631.4135    4460.5959    18543.571    26.431576 
    7950    504.59541   -8687.8474    -8631.559    3519.5076    18550.408     26.51038 
    7960    521.24366   -8689.9029   -8631.7574    2385.1662    18563.394    26.600319 
    7970     512.4113   -8689.1789   -8632.0186    1462.7246    18580.585    26.701035 
    7980    491.66963   -8687.1495    -8632.303    240.58776    18600.232    26.804096 
    7990    492.72787   -8687.5376   -8632.5731   -1483.2419    18620.108    26.894379 
    8000    497.21871   -8688.2955     -8632.83   -2864.2068    18637.299     26.96176 
    8010    499.96729   -8688.8724   -8633.1003    -4023.407    18649.329    27.009722 
    8020    500.40326   -8689.2193   -8633.3986   -4957.5532    18654.156    27.044417 
    8030     503.2808   -8689.8897    -8633.748   -5379.6492    18650.147    27.069313 
    8040    498.31378   -8689.7352   -8634.1475   -4713.0603    18636.717    27.087778 
    8050    494.99899   -8689.7823   -8634.5644   -3062.5904     18615.14    27.101493 
    8060    505.12235   -8691.3181   -8634.9709   -1259.0302    18588.291    27.112134 
    8070     518.0461   -8693.1779   -8635.3891   -40.677124    18559.325    27.127015 
    8080    504.39377    -8692.081   -8635.8151    1107.4726    18530.543    27.153717 
    8090    486.90966   -8690.5091   -8636.1936    2494.3598    18504.051    27.194815 
    8100    496.96839   -8691.9639   -8636.5263    3305.0765    18482.101    27.249238 
    8110     507.7281   -8693.4908   -8636.8529    3827.0435     18466.14    27.318015 
    8120     515.3785   -8694.6933    -8637.202    3894.6661    18457.018    27.404705 
    8130    509.64025   -8694.4266   -8637.5755    3213.3355    18454.688    27.510278 
    8140    500.59825   -8693.7924   -8637.9499    2621.4618    18458.025    27.626344 
    8150    494.96421   -8693.5267   -8638.3126    2072.3019    18465.907    27.739441 
    8160    487.08054   -8692.9787   -8638.6441    1441.7247    18477.317    27.837434 
    8170    480.27206   -8692.4995   -8638.9244    385.47243    18491.045    27.913964 
    8180    475.63722   -8692.2064   -8639.1483   -683.31685    18505.288    27.965544 
    8190    480.04289   -8692.8739   -8639.3244   -1692.7832    18518.168    27.992433 
    8200    493.15236   -8694.4917   -8639.4799   -2610.6106    18527.919    27.996426 
    8210    497.95535    -8695.195   -8639.6473   -2777.4406    18533.073    27.979366 
    8220    502.71873   -8695.9216   -8639.8426   -2613.9069    18533.348    27.941881 
    8230    511.81403   -8697.1751   -8640.0815    -2811.515    18528.983    27.882724 
    8240    499.60739   -8696.0901   -8640.3581   -2729.6343    18519.798    27.800329 
    8250    500.03411   -8696.4287   -8640.6491   -2588.3254    18505.942    27.698844 
    8260    514.80283   -8698.3929   -8640.9658   -2066.8981    18487.803    27.589184 
    8270    501.85224   -8697.2884   -8641.3061   -478.19947    18466.477    27.488099 
    8280    504.52606   -8697.9283   -8641.6476    992.45412    18444.585    27.408857 
    8290    522.73071   -8700.3303   -8642.0189    1744.8443    18424.636    27.356394 
    8300     517.2184   -8700.1406   -8642.4441    2462.6303    18408.018    27.333797 
    8310    511.65264   -8699.9746   -8642.8989    2765.4365    18395.867     27.34594 
    8320    522.00392   -8701.6123    -8643.382     1751.425    18388.459    27.392019 
    8330    513.27063   -8701.1312   -8643.8751    606.81999    18384.151     27.46862 
    8340    511.85947   -8701.4482   -8644.3495    161.26737     18381.07    27.576506 
    8350    518.89821    -8702.689   -8644.8051   -58.687101    18378.339    27.714703 
    8360    534.44209    -8704.884   -8645.2661   -435.38928    18375.481     27.87455 
    8370     536.6015   -8705.6134   -8645.7547   -306.32163    18371.985    28.040996 
    8380    519.39195   -8704.1863   -8646.2474    797.88156    18368.188    28.197559 
    8390    512.07537   -8703.8416   -8646.7189    1868.0882    18365.803    28.343991 
    8400    507.35014   -8703.7752   -8647.1796    2397.1162    18366.584    28.495691 
    8410     507.2584    -8704.205   -8647.6196    1637.3976    18371.284    28.662957 
    8420    515.36346   -8705.5358   -8648.0462    304.52689    18378.636    28.838284 
    8430    493.44723   -8703.4867    -8648.442    295.26419    18386.633    29.007303 
    8440    488.69355   -8703.3007   -8648.7862    623.20822    18395.028    29.163907 
    8450    513.26486   -8706.3732   -8649.1178    1002.6852    18404.371    29.303903 
    8460    518.88645     -8707.38   -8649.4974    2087.8429    18415.455      29.4282 
    8470    498.86652   -8705.5745   -8649.9252    2995.7835    18429.981    29.547168 
[...]
   22890     494.2902   -8789.4024   -8734.2636    2418.1792     18384.99    44.446778 
   22900    467.22859   -8786.6343   -8734.5143    2803.3435    18396.707    44.512108 
   22910    483.63936   -8788.7529   -8734.8022    1403.9546    18413.118     44.59525 
   22920    498.55522   -8790.7574   -8735.1428   -662.16483    18431.996    44.677934 
   22930     484.3821   -8789.5863   -8735.5528   -2058.0146    18449.932    44.737549 
   22940    483.63136   -8789.9685   -8736.0187   -2840.8564    18464.451    44.769119 
   22950    485.85265   -8790.7277   -8736.5301   -2768.8063    18474.219    44.771858 
   22960    473.94056   -8789.9172   -8737.0485   -2560.6835    18479.164    44.750494 
   22970    482.83027   -8791.4054   -8737.5449   -2213.9497    18479.642    44.722599 
   22980    497.79812   -8793.5651    -8738.035   -1506.4255    18476.273    44.701148 
   22990    481.90284    -8792.248   -8738.4911   -305.90531    18470.315    44.688118 
   23000    470.99887    -8791.416   -8738.8754    728.36421    18463.734    44.682174 
   23010     464.8609   -8791.0284   -8739.1724    1394.8231    18458.355    44.686125 
   23020    471.52838    -8791.998   -8739.3983    1551.3903    18455.327    44.714576 
   23030    482.58157   -8793.4147    -8739.582    1825.3087    18455.029    44.778339 
   23040    480.35695   -8793.3247   -8739.7402    1965.2118    18457.929    44.873278 
   23050    476.91655   -8793.0704   -8739.8697    1360.7391    18464.205    44.990862 
   23060    482.91444   -8793.8312   -8739.9614    494.12927    18472.906    45.125911 
   23070    491.09696   -8794.8094   -8740.0267   -260.24669    18482.552    45.272938 
   23080    479.89647    -8793.617   -8740.0838   -195.12333    18491.961    45.425131 
   23090    468.50677   -8792.3898   -8740.1272   -457.17458    18501.043    45.576156 
   23100    475.27031   -8793.1567   -8740.1396   -1464.0601    18509.264    45.724804 
   23110    472.99367   -8792.8822    -8740.119   -2095.8782     18515.01    45.872992 
   23120    460.70749   -8791.4567   -8740.0641    -2079.339    18517.207    46.013666 
   23130    464.97077   -8791.8393   -8739.9711   -2024.9502    18515.726     46.13619 
   23140    474.03645   -8792.7136   -8739.8341   -1491.1747    18510.731     46.23858 
   23150    495.24098   -8794.9042   -8739.6593   -961.90873     18503.06    46.328213 
   23160    507.31886   -8796.0544   -8739.4622    -448.9055    18493.617    46.407478 
   23170    500.90377   -8795.1551   -8739.2785    214.47726    18483.361    46.462251 
   23180    491.66674   -8793.9757   -8739.1295    557.44943    18473.377    46.480369 
   23190    479.52249   -8792.4895   -8738.9981    713.56613    18464.311     46.46575 
   23200    497.30743    -8794.342   -8738.8666     631.8327    18456.403    46.427657 
   23210    505.42436   -8795.1247   -8738.7439    1340.7409    18449.683    46.377348 
   23220    489.72898   -8793.2778   -8738.6478    2452.5632     18445.35    46.329577 
   23230    488.00292   -8793.0024    -8738.565    2754.8307    18445.192    46.294737 
   23240    495.81937   -8793.7939   -8738.4845    2108.8088    18449.744    46.273153 
   23250    491.98449   -8793.2912   -8738.4096    1344.7211    18458.053     46.26215 
   23260    484.78525   -8792.4183   -8738.3398    916.65406    18468.864    46.253918 
   23270    474.31858   -8791.1657   -8738.2547     822.7731    18481.456    46.237608 
   23280    474.01077   -8791.0039   -8738.1273    672.33321     18495.63    46.215918 
   23290    484.92658   -8792.0309   -8737.9367    284.22902    18511.095     46.20165 
   23300    484.07997   -8791.6839   -8737.6841   -253.54544    18527.164    46.203905 
   23310    487.43767   -8791.7545   -8737.3801   -726.86734    18542.946    46.222348 
   23320    485.51471   -8791.1867   -8737.0268   -960.30953    18557.639    46.252124 
   23330    478.50587   -8790.0046   -8736.6265   -1592.2845    18570.694    46.288711 
   23340    489.03312   -8790.7227   -8736.1703   -2769.4375     18580.93     46.33075 
   23350    494.42409   -8790.8315   -8735.6778   -3851.8792    18586.311     46.37533 
   23360    507.43054   -8791.8088   -8735.2042   -4127.1385    18584.993    46.412543 
   23370    518.36744   -8792.6141   -8734.7894   -3997.6183    18576.343    46.429119 
   23380    516.98444    -8792.141   -8734.4706   -3366.9006    18560.578    46.417213 
   23390    518.99336   -8792.1422   -8734.2477   -2517.7733    18538.707    46.373652 
   23400    517.51799   -8791.8305   -8734.1006    -1662.414    18512.177    46.292963 
   23410    519.95786   -8792.0202   -8734.0181   -49.216249    18482.657    46.176793 
   23420     511.7776   -8791.0631   -8733.9735    2149.5367    18452.982    46.038052 
   23430    500.76785   -8789.8222   -8733.9608    3649.5341    18426.814    45.892227 
   23440    492.91601   -8788.9684   -8733.9828    4138.3377    18406.759    45.743313 
   23450    508.99862   -8790.8302   -8734.0507    3457.1485    18393.644    45.583904 
   23460    520.76525   -8792.2797   -8734.1876    2826.6464    18386.504    45.412723 
   23470    511.48088   -8791.4563   -8734.3998    2997.4227    18384.407    45.245643 
   23480    509.91998   -8791.5585   -8734.6762     2626.301     18387.43    45.096705 
   23490    518.82102   -8792.8805   -8735.0053    1887.3301     18395.02     44.96665 
   23500    527.11722   -8794.1934   -8735.3927    830.69038    18405.919    44.851688 
   23510    504.48293   -8792.0924   -8735.8166   -22.006986    18418.393    44.747525 
   23520    484.12448   -8790.2069   -8736.2021   -1150.5764    18430.855    44.650517 
   23530    494.85383   -8791.7236   -8736.5219      -2413.9     18441.32    44.557003 
   23540    490.57578   -8791.5227   -8736.7983   -2624.1255    18447.758    44.467182 
   23550    478.59967   -8790.4216   -8737.0331   -2548.5212    18449.652    44.385237 
   23560    479.99899   -8790.7652   -8737.2206   -2564.5561     18447.08    44.313381 
   23570    487.34853   -8791.7434   -8737.3789   -2925.6758    18439.924    44.249779 
   23580    488.10467   -8791.9754   -8737.5266   -3186.4054     18427.62    44.191118 
   23590    494.28271   -8792.8117   -8737.6737   -2780.1651     18409.78    44.133288 
   23600    492.59945   -8792.7592    -8737.809   -1397.0897    18387.156    44.074922 
   23610    490.52432    -8792.623   -8737.9043    494.92722    18362.155    44.017001 
   23620    505.59555   -8794.3791   -8737.9792    1744.6225    18337.866     43.96622 
   23630    504.30741   -8794.3163   -8738.0601    2751.7173     18316.55    43.934829 
   23640    492.81457   -8793.1318   -8738.1576    3136.8914    18299.872    43.925577 
   23650    483.22139   -8792.1709   -8738.2668    3067.6359    18288.529    43.931642 
   23660    478.51245   -8791.7455   -8738.3667    2952.7434    18282.466    43.946584 
   23670    488.60791   -8792.9686   -8738.4636    2568.8649     18281.45    43.965982 
   23680    488.68493   -8793.0815    -8738.568    2147.7175    18284.896    43.980905 
   23690    491.52329   -8793.5183   -8738.6882    1422.2575    18292.008    43.980036 
   23700    482.53714   -8792.6404   -8738.8127    1166.9962    18301.718    43.960254 
   23710    463.67618   -8790.6356   -8738.9118    872.45948    18313.501     43.93097 
   23720     467.2462   -8791.0862   -8738.9642   -359.74135    18326.678    43.902282 
   23730    470.51506    -8791.449   -8738.9623   -1636.6922    18339.306    43.871835 
   23740    474.80879   -8791.8883   -8738.9226   -2763.9016    18349.169    43.830194 
   23750    475.95278   -8791.9517   -8738.8584   -3323.3533    18354.352    43.761683 
   23760    478.81017   -8792.1804   -8738.7684     -3366.78    18353.854    43.650794 
   23770    495.76145   -8793.9597   -8738.6567   -2959.0413    18347.576    43.495509 
   23780    499.54819   -8794.2598   -8738.5344   -1842.4599    18336.267    43.315789 
   23790     497.9541   -8793.9686   -8738.4211   -667.87564    18321.757    43.139293 
   23800    495.85342   -8793.6343   -8738.3211    473.15357     18306.08    42.983662 
   23810    483.89761   -8792.2047   -8738.2252    1530.7553    18291.212    42.856872 
   23820    490.61346   -8792.8548   -8738.1261    1570.8072    18278.823    42.759285 
   23830    496.04905   -8793.3584   -8738.0234    1398.1095    18269.126    42.689499 
   23840    486.78771   -8792.2339    -8737.932    1917.9113    18261.938    42.654304 
   23850    490.87596   -8792.6053   -8737.8474    2259.4868    18257.991    42.662918 
   23860    498.96089   -8793.4324   -8737.7726     2077.922    18257.832    42.714253 
   23870    490.99421   -8792.4916   -8737.7205    1871.6046    18261.246    42.802423 
   23880    491.73167   -8792.5308   -8737.6774    1449.4402     18267.88    42.921046 
   23890    500.10363    -8793.414   -8737.6267     572.4504    18276.973    43.054467 
   23900    489.42161   -8792.1697    -8737.574     -182.185    18287.133    43.183987 
   23910    482.00993   -8791.2804   -8737.5114   -1416.1936    18296.936    43.298585 
   23920    499.21215   -8793.1128   -8737.4249   -3270.2264    18304.206    43.394314 
   23930    512.59075   -8794.5292   -8737.3489    -4256.293    18305.967    43.462008 
   23940    500.91108   -8793.2059   -8737.3285   -3617.1448    18300.636    43.481185 
   23950    488.44132   -8791.8367   -8737.3504   -2249.3686    18289.173    43.444392 
   23960     490.2411   -8792.0624   -8737.3752   -942.56033    18273.809    43.370165 
   23970    504.08103   -8793.6367   -8737.4058    237.86532    18256.782    43.286838 
   23980    500.54071    -8793.289   -8737.4529    1705.7896    18240.219    43.213465 
   23990    499.81734   -8793.2937   -8737.5383    2783.7746    18226.475     43.16572 
   24000     493.2088    -8792.679   -8737.6608    3633.6577    18217.492    43.153141 
   24010    499.27313   -8793.5358   -8737.8411    3480.6712     18214.57    43.182605 
   24020    479.61219   -8791.5569   -8738.0555    2799.5236    18217.536    43.239417 
   24030    478.14491   -8791.6188    -8738.281    1610.5575      18225.2    43.299602 
   24040    477.70242   -8791.7842   -8738.4958    853.82048    18235.725    43.354321 
   24050    479.96505   -8792.2442   -8738.7034    494.52431    18247.792    43.406257 
   24060     489.0723   -8793.4697   -8738.9129   -84.679336      18260.7    43.455814 
   24070    487.82621   -8793.5496   -8739.1319   -1274.7924    18273.409     43.48668 
   24080    495.11723    -8794.597   -8739.3659   -3065.6729    18283.882    43.474104 
   24090    501.46978    -8795.581   -8739.6413   -4295.5393    18289.177    43.396709 
   24100    479.95117   -8793.4823    -8739.943   -4005.8497    18287.312    43.250459 
   24110      476.548   -8793.3921   -8740.2324   -3095.8827    18278.612    43.061039 
   24120    472.21152   -8793.1541   -8740.4782   -1596.9259    18264.676     42.87128 
   24130    470.75284   -8793.1787   -8740.6655   -219.97004    18247.965    42.721187 
   24140    496.50711    -8796.227   -8740.8409    687.75813    18230.768    42.631016 
   24150    501.08954   -8796.9397   -8741.0424    1899.5463    18214.806    42.594352 
   24160    476.36457   -8794.3876   -8741.2484    3101.8099     18202.07    42.593914 
   24170    476.08314   -8794.5414   -8741.4336    4077.4436    18194.593    42.618517 
   24180    470.77626   -8794.1203   -8741.6045    5142.6327    18194.099    42.662132 
   24190      466.799   -8793.8573   -8741.7851    5406.3245    18202.262    42.729781 
   24200    480.72251   -8795.5954   -8741.9701    4032.6333    18219.456    42.832618 
   24210     488.5837   -8796.6345   -8742.1323    1561.2014    18243.445    42.972704 
   24220    481.85263   -8796.0004    -8742.249   -1436.3828    18270.131    43.140763 
   24230    472.64997   -8795.0313   -8742.3065   -4293.7143    18294.478    43.314002 
   24240    461.83259   -8793.8315   -8742.3134   -6079.5456    18311.629    43.463271 
   24250    466.81613   -8794.3663   -8742.2922   -6538.4005    18318.491    43.568226 
   24260    477.40079   -8795.5126   -8742.2578    -6021.587    18314.178     43.62269 
   24270    470.62051   -8794.7005   -8742.2021   -3827.9415    18299.741    43.625523 
   24280    491.01355   -8796.8835   -8742.1102   -1349.6635     18278.75     43.58301 
   24290    500.72253    -8797.842   -8741.9856    901.67162    18255.445    43.510196 
   24300    487.82173    -8796.264   -8741.8468    3386.9739    18233.803    43.422278 
   24310    486.55449   -8795.9693   -8741.6934    5221.7297     18217.91    43.335959 
   24320    482.30316   -8795.3372   -8741.5355    5827.6005    18210.776    43.272222 
   24330    485.94568   -8795.5887   -8741.3807    5560.4565    18213.504    43.248113 
   24340     495.8614   -8796.5314   -8741.2173    4242.5379    18225.585    43.265943 
   24350    496.60916   -8796.4244   -8741.0269    2238.3541    18244.844    43.310106 
   24360    502.21501   -8796.8247   -8740.8018   -232.75206    18267.854    43.361203 
   24370    483.56301   -8794.4747   -8740.5325   -2132.6522    18290.575     43.41005 
   24380    489.29206   -8794.8044   -8740.2231   -3809.9398    18309.619    43.447696 
   24390    496.68814   -8795.2821   -8739.8758   -4346.9949    18322.252    43.464017 
   24400    492.18275   -8794.4346   -8739.5309   -3619.8464    18327.566    43.457907 
   24410    515.36833   -8796.6818   -8739.1917   -2782.3033    18326.605    43.429994 
   24420    499.34176   -8794.5611   -8738.8588   -1601.1062     18320.91    43.385897 
   24430    492.67954   -8793.5027   -8738.5436   -1089.1871     18312.35    43.344069 
   24440    503.22189   -8794.3657   -8738.2305   -1253.8141    18301.812    43.315794 
   24450    495.44193   -8793.2033    -8737.936   -295.80722    18289.344    43.295098 
   24460    499.58518    -8793.386   -8737.6566    1299.2593    18276.507    43.277996 
   24470    508.03419   -8794.0657   -8737.3937    2454.2112    18265.865    43.270621 
   24480    509.15609   -8793.9843   -8737.1872    3046.7704    18259.418    43.280959 
   24490     511.0429   -8794.0723   -8737.0647    3195.9001    18258.153    43.315282 
   24500    494.89487   -8792.2109   -8737.0046    3621.6563    18262.448    43.373647 
   24510    499.77434   -8792.7379   -8736.9873     3211.002    18272.817    43.455015 
   24520    516.18958   -8794.5828    -8737.001    1702.8515    18288.506    43.558192 
   24530    524.92905   -8795.6177   -8737.0611    15.263217    18307.081    43.666804 
   24540    503.21686   -8793.2942   -8737.1596   -1153.9724    18325.734    43.759328 
   24550    501.57562   -8793.2326    -8737.281   -2477.5583    18342.266    43.828527 
   24560    510.69987   -8794.4057   -8737.4364   -3253.2051    18354.549    43.875079 
   24570     508.3081   -8794.3639   -8737.6614   -3293.4192    18361.241    43.896416 
   24580    501.12444   -8793.8681   -8737.9669   -2923.4371    18362.231    43.889938 
   24590    504.20087   -8794.5997   -8738.3553    -2574.332    18358.173    43.860754 
   24600    489.70901   -8793.4403   -8738.8125    -2037.956    18349.713    43.807208 
   24610    479.94311   -8792.8145   -8739.2761   -1401.4793    18337.779    43.725642 
   24620    506.64699   -8796.2759   -8739.7586   -807.58321    18323.493    43.624555 
   24630    501.47981   -8796.1957   -8740.2549     843.4371     18308.11    43.521224 
   24640    490.73914   -8795.4677    -8740.725    2480.1929    18294.257    43.429388 
   24650    490.16098   -8795.8263   -8741.1481    3801.2166    18284.728    43.357443 
   24660    485.89751   -8795.7187   -8741.5161    4347.7744    18281.685    43.318854 
   24670    478.67791    -8795.209   -8741.8118    3906.3388    18285.988    43.323726 
   24680    486.33073   -8796.2855   -8742.0346    2431.5477    18296.788    43.367393 
   24690    490.13256   -8796.8747   -8742.1997    993.79587    18311.689    43.438979 
   24700    474.30493   -8795.2228   -8742.3134    391.66727    18328.294    43.535455 
   24710    468.79666   -8794.6678   -8742.3728    193.66676    18345.462    43.659934 
   24720    477.92371   -8795.7079   -8742.3947    347.66293    18362.849    43.813656 
   24730    470.28086   -8794.8678   -8742.4073    705.88311    18380.671    43.997943 
   24740    473.10868   -8795.1951   -8742.4191    667.15845    18399.471    44.212912 
   24750    484.93442   -8796.5146   -8742.4194   -166.33972    18419.088    44.450271 
   24760    475.34371   -8795.4204   -8742.3951   -939.08437    18438.176    44.695827 
   24770    479.85686   -8795.8541   -8742.3253   -1693.8367    18455.366    44.929393 
   24780    494.19002   -8797.3472   -8742.2196   -2348.0177    18469.329    45.118237 
   24790    472.20825   -8794.7804   -8742.1048   -2084.0452    18479.106    45.238903 
   24800     467.5785    -8794.126   -8741.9669   -1994.8253    18485.019    45.300503 
   24810    484.49991   -8795.8388   -8741.7921   -2291.1096    18487.279    45.323998 
   24820    487.18676   -8795.9526   -8741.6062   -2216.2722    18485.556    45.320914 
   24830    480.62114   -8795.0323   -8741.4183   -994.32192    18480.235    45.304098 
   24840    496.38666   -8796.6006   -8741.2279   -54.343988    18473.227    45.287818 
   24850    498.49231   -8796.6573   -8741.0498    479.79694    18466.211    45.274916 
   24860     485.8842   -8795.0979   -8740.8968    896.46779    18460.189    45.259101 
   24870    483.87199   -8794.7299   -8740.7532    1114.1011     18455.83    45.244831 
   24880    464.65417   -8792.4253   -8740.5924    1405.9675    18453.543    45.242886 
   24890    471.14803   -8792.9533    -8740.396    809.28897    18453.591    45.261302 
   24900    494.70719   -8795.3426   -8740.1572    56.100493    18455.031    45.300071 
   24910    497.12954   -8795.3679   -8739.9123   -315.95989    18456.618    45.349413 
   24920    500.30506    -8795.502   -8739.6922   -806.68333    18457.586    45.395693 
   24930    498.47229   -8795.1017   -8739.4963    -711.6883    18457.209    45.429915 
   24940    495.96191   -8794.6497   -8739.3244    69.791378    18455.716    45.458568 
   24950    493.26461   -8794.1869   -8739.1625    944.09201    18454.378    45.493448 
   24960    495.70001   -8794.3045   -8739.0084    2135.0292    18454.753    45.538706 
   24970    505.07065   -8795.2109   -8738.8695    2967.1106    18458.779    45.591416 
   24980    507.63076   -8795.3959   -8738.7689    3272.3337    18467.809    45.651413 
   24990     503.0809   -8794.8289   -8738.7095    2448.6667    18482.134    45.726154 
   25000    525.03151   -8797.2494   -8738.6814    70.131685    18500.122     45.81855 
Loop time of 13626.3 on 16 procs for 20000 steps with 864 atoms

Performance: 0.127 ns/day, 189.255 hours/ns, 1.468 timesteps/s
95.6% CPU use with 16 MPI tasks x 1 OpenMP threads

MPI task timing breakdown:
Section |  min time  |  avg time  |  max time  |%varavg| %total
---------------------------------------------------------------
Pair    | 2889.1     | 7404.7     | 13432      |4162.7 | 54.34
Bond    | 0.0016019  | 0.0039744  | 0.0096118  |   3.6 |  0.00
Neigh   | 0.15496    | 0.35485    | 0.65644    |  30.9 |  0.00
Comm    | 49.724     | 4524.9     | 9094.8     |4489.4 | 33.21
Output  | 2.1006     | 2.1349     | 2.6402     |   8.9 |  0.02
Modify  | 121.14     | 1694.2     | 6839.4     |5441.8 | 12.43
Other   |            | 0.08944    |            |       |  0.00

Nlocal:        54.0000 ave          90 max          24 min
Histogram: 3 0 4 2 1 0 2 0 1 3
Nghost:        520.812 ave         688 max         332 min
Histogram: 3 0 2 1 1 2 1 1 2 3
Neighs:         0.00000 ave           0 max           0 min
Histogram: 16 0 0 0 0 0 0 0 0 0
FullNghs:      2861.38 ave        6146 max         647 min
Histogram: 4 2 3 1 0 0 2 0 1 3

Total # of neighbors = 45782
Ave neighs/atom = 52.988426
Ave special neighs/atom = 0.0000000
Neighbor list builds = 2000
Dangerous builds = 2000
unfix   3
                
Total wall time: 4:43:26
