LAMMPS (29 Sep 2021 - Update 3)
OMP_NUM_THREADS environment is not set. Defaulting to 1 thread. (src/comm.cpp:98)
  using 1 OpenMP thread(s) per MPI task
units	metal
atom_style	full

read_data	mixed.data
Reading data file ...
  orthogonal box = (0.0000000 0.0000000 0.0000000) to (15.857269 15.758596 73.856324)
  2 by 1 by 8 MPI processor grid
  reading atoms ...
  864 atoms
Finding 1-2 1-3 1-4 neighbors ...
  special bond factors lj:    0        0        0       
  special bond factors coul:  0        0        0       
     0 = max # of 1-2 neighbors
     0 = max # of 1-3 neighbors
     0 = max # of 1-4 neighbors
     1 = max # of special neighbors
  special bonds CPU = 0.001 seconds
  read_data CPU = 0.008 seconds

pair_style	quip
pair_coeff	* * /ocean/projects/cts180021p/wuziqi/clease/mint-PD/PhaseDiagram-Clease/Liquid/GAP_potential/gap_LiKCl.xml "Potential xml_label=GAP_2021_9_27_0_1_17_37_618" 17 19 3

neighbor	0.3 bin
neigh_modify	delay 10

timestep	0.001
compute	msd all msd
thermo_style	custom step temp pe etotal press vol c_msd[4]
thermo	10
dump	1 all custom 10 xyz-mix.dump type id x y z
dump	2 all custom 10 force-mix.dump type id fx fy fz

fix     1 all nve
run     2000
Neighbor list info ...
  update every 1 steps, delay 10 steps, check yes
  max neighbors/atom: 2000, page size: 100000
  master list distance cutoff = 6.22
  ghost atom cutoff = 6.22
  binsize = 3.11, bins = 6 6 24
  1 neighbor lists, perpetual/occasional/extra = 1 0 0
  (1) pair quip, perpetual
      attributes: full, newton on
      pair build: full/bin
      stencil: full/bin/3d
      bin: standard
Per MPI rank memory allocation (min/avg/max) = 8.896 | 8.907 | 8.915 Mbytes
Step Temp PotEng TotEng Press Volume c_msd[4] 
       0            0   -6680.0933   -6680.0933   -8281.1165    18455.831            0 
      10    70.089017   -6687.9205    -6680.102   -9637.9304    18455.831 0.00053514082 
      20    180.09083   -6700.2003   -6680.1109   -11326.743    18455.831 0.0066144209 
      30    218.60542   -6704.4933   -6680.1075   -10699.378    18455.831  0.022432956 
      40    219.14865   -6704.5494    -6680.103   -8951.3193    18455.831  0.042690684 
      50    240.47609   -6706.9311   -6680.1056   -8003.5149    18455.831  0.059191698 
      60    253.66901   -6708.4039   -6680.1068    -7626.627    18455.831   0.07070925 
      70     242.9182   -6707.2018   -6680.1039   -7466.6829    18455.831  0.079364222 
      80    245.92472    -6707.537   -6680.1038   -7609.4954    18455.831  0.086633288 
      90    257.49674   -6708.8305   -6680.1063   -7851.5904    18455.831  0.095173812 
     100    252.46946   -6708.2676   -6680.1043   -7551.0395    18455.831   0.10676573 
     110    248.46405   -6707.8212   -6680.1047   -7097.6705    18455.831   0.12025968 
     120    250.68872   -6708.0687    -6680.104   -6824.8497    18455.831   0.13340609 
     130      258.818   -6708.9777   -6680.1062   -6596.3887    18455.831   0.14573975 
     140    253.60976   -6708.3953   -6680.1047   -6185.2051    18455.831   0.15889724 
     150    247.40375   -6707.7026   -6680.1043   -5947.5032    18455.831   0.17318983 
     160    248.95468   -6707.8762   -6680.1049   -5851.7986    18455.831   0.18766652 
     170    251.06346   -6708.1121   -6680.1056   -5590.4969    18455.831   0.20144657 
     180    246.23782    -6707.572   -6680.1038   -5247.2261    18455.831   0.21382042 
     190    251.48989   -6708.1586   -6680.1045   -5416.1608    18455.831   0.22371169 
     200    260.44308   -6709.1586   -6680.1058   -5793.9896    18455.831   0.23141162 
     210    257.82494   -6708.8658    -6680.105   -6133.6533    18455.831   0.23844771 
     220    250.73963   -6708.0747   -6680.1043   -6257.2025    18455.831   0.24564622 
     230    248.07271   -6707.7773   -6680.1044   -6243.0592    18455.831   0.25309034 
     240    248.93862   -6707.8742   -6680.1047   -6226.9294    18455.831   0.26091643 
     250    248.99388   -6707.8804   -6680.1047   -6334.5414    18455.831   0.26913526 
     260    251.27669   -6708.1344   -6680.1041   -6551.8246    18455.831   0.27705303 
     270    260.34527   -6709.1477   -6680.1058        -6764    18455.831   0.28421607 
     280    260.83001   -6709.2011   -6680.1051   -6639.8092    18455.831   0.29163604 
     290    256.24266   -6708.6893    -6680.105   -6449.9322    18455.831   0.29974682 
     300    250.69638     -6708.07   -6680.1044   -6471.1016    18455.831   0.30849754 
     310    250.05901    -6707.999   -6680.1046   -6562.0942    18455.831   0.31777754 
     320    252.23509   -6708.2423   -6680.1051   -6693.6464    18455.831   0.32755563 
     330    250.81469   -6708.0833   -6680.1046   -6713.8004    18455.831   0.33779883 
     340    250.65515   -6708.0657   -6680.1047     -6614.52    18455.831   0.34801692 
     350    252.94275   -6708.3202   -6680.1041   -6588.7327    18455.831   0.35730468 
     360    261.50627   -6709.2774    -6680.106   -6797.9362    18455.831   0.36504658 
     370    261.10007   -6709.2316   -6680.1055   -6831.7443    18455.831   0.37190178 
     380    253.99916   -6708.4387   -6680.1047   -6726.1215    18455.831   0.37827271 
     390    253.05009   -6708.3325   -6680.1044    -6835.806    18455.831   0.38397661 
     400    258.03703   -6708.8906   -6680.1062   -6768.7818    18455.831   0.38955387 
     410      252.036   -6708.2195   -6680.1045   -6292.4532    18455.831   0.39652014 
     420    250.52201   -6708.0507   -6680.1046   -5826.2725    18455.831   0.40500255 
     430    256.29495   -6708.6954   -6680.1053    -5546.315    18455.831    0.4145153 
     440    262.43605   -6709.3808   -6680.1057   -5439.0868    18455.831   0.42473971 
     450    264.26046   -6709.5844   -6680.1058   -5272.9671    18455.831   0.43527985 
     460    262.52327   -6709.3894   -6680.1046   -5195.9426    18455.831   0.44476232 
     470    267.68384   -6709.9661   -6680.1056   -5304.7962    18455.831   0.45177569 
     480    270.55653   -6710.2863   -6680.1053   -5291.2639    18455.831   0.45687774 
     490    270.72724   -6710.3054   -6680.1053   -5218.7322    18455.831   0.46120142 
     500    269.05227   -6710.1187   -6680.1055   -5175.8745    18455.831   0.46642946 
     510    263.94553   -6709.5489   -6680.1053   -5239.9274    18455.831   0.47407361 
     520    257.63711   -6708.8446   -6680.1048   -5291.7388    18455.831   0.48412853 
     530    257.06548   -6708.7811   -6680.1051   -5321.5334    18455.831   0.49506416 
     540    260.38526   -6709.1518   -6680.1055   -5376.0867    18455.831   0.50501047 
     550    260.91759   -6709.2118    -6680.106    -5479.615    18455.831   0.51322197 
     560    255.01677   -6708.5518   -6680.1043   -5675.0057    18455.831   0.52041437 
     570     259.1908   -6709.0183   -6680.1051   -6233.3417    18455.831    0.5272333 
     580    265.73933   -6709.7494   -6680.1058   -6810.0612    18455.831   0.53425593 
     590    267.07214   -6709.8973    -6680.105   -7271.0617    18455.831   0.54173358 
     600    270.59769   -6710.2906    -6680.105   -7669.4363    18455.831   0.54966243 
     610    275.51295   -6710.8394   -6680.1055   -7859.4286    18455.831   0.55825095 
     620    275.26386   -6710.8118   -6680.1057   -7564.3126    18455.831   0.56786247 
     630    267.62803    -6709.959   -6680.1047   -6980.9593    18455.831   0.57832835 
     640    265.09163   -6709.6761   -6680.1047   -6568.2152    18455.831   0.58820723 
     650    267.67247   -6709.9653    -6680.106    -6347.284    18455.831   0.59641333 
     660    264.01415   -6709.5562    -6680.105   -5916.0469    18455.831   0.60309646 
     670    263.52965    -6709.502   -6680.1049   -5671.0684    18455.831   0.60844331 
     680    269.00124    -6710.113   -6680.1055   -5692.2827    18455.831    0.6132683 
     690    271.45591    -6710.387   -6680.1057   -5574.8525    18455.831   0.61933075 
     700     270.0884   -6710.2336   -6680.1048   -5412.3704    18455.831   0.62727776 
     710    274.16504    -6710.689   -6680.1055   -5445.9009    18455.831   0.63604213 
     720    276.77226   -6710.9801   -6680.1057   -5459.4182    18455.831   0.64454539 
     730    275.88502   -6710.8806   -6680.1052    -5417.932    18455.831   0.65171241 
     740    275.85971   -6710.8783   -6680.1057   -5536.9233    18455.831   0.65662341 
     750    272.97993   -6710.5569   -6680.1056   -5708.1328    18455.831    0.6598394 
     760    268.28422    -6710.033   -6680.1055   -5761.8441    18455.831   0.66298993 
     770    264.14144   -6709.5705   -6680.1051   -5775.8492    18455.831   0.66717813 
     780    263.51726    -6709.501   -6680.1053   -5700.2554    18455.831   0.67265545 
     790    266.55703   -6709.8409    -6680.106    -5605.591    18455.831   0.67864068 
     800    265.59911   -6709.7343   -6680.1063   -5512.5062    18455.831   0.68325498 
     810    257.26872   -6708.8037    -6680.105    -5609.846    18455.831   0.68551207 
     820    257.02246   -6708.7759   -6680.1047   -5957.2323    18455.831   0.68532325 
     830    268.49996   -6710.0576    -6680.106   -6395.3276    18455.831   0.68384718 
     840      275.603   -6710.8497   -6680.1057   -6790.5333    18455.831   0.68323699 
     850    277.81756   -6711.0961   -6680.1052   -7039.0507    18455.831   0.68429619 
     860    281.61629     -6711.52   -6680.1053    -7112.387    18455.831   0.68675849 
     870    285.63694   -6711.9688   -6680.1055   -6936.0551    18455.831    0.6904508 
     880    286.29079   -6712.0419   -6680.1057   -6480.6542    18455.831   0.69538495 
     890    281.96956   -6711.5596   -6680.1055   -6039.8274    18455.831   0.70113257 
     900    274.65893   -6710.7442   -6680.1055     -5564.23    18455.831   0.70667182 
     910    267.20366   -6709.9114   -6680.1045   -5257.3591    18455.831   0.71136984 
     920     269.3838   -6710.1555   -6680.1053    -5367.122    18455.831   0.71512054 
     930    273.08823   -6710.5689   -6680.1055   -5720.7294    18455.831   0.71853359 
     940    275.14424   -6710.7982   -6680.1055   -5917.6904    18455.831   0.72236347 
     950    276.67291   -6710.9689   -6680.1056   -5610.0935    18455.831   0.72713733 
     960    276.62748   -6710.9635   -6680.1053   -5046.3658    18455.831   0.73337224 
     970     278.3434   -6711.1556   -6680.1059   -4610.3497    18455.831   0.74121898 
     980    276.50421   -6710.9503   -6680.1058   -4305.2609    18455.831   0.75038076 
     990    274.46428   -6710.7216   -6680.1047   -4327.9119    18455.831   0.75935205 
    1000    282.87647   -6711.6614   -6680.1061   -4696.6429    18455.831   0.76641954 
    1010    286.63377   -6712.0812   -6680.1068   -4990.2699    18455.831   0.77271728 
    1020    279.06324   -6711.2352   -6680.1053   -4771.2676    18455.831   0.78024384 
    1030    275.82234   -6710.8738   -6680.1054    -4403.339    18455.831   0.78871428 
    1040    278.66942   -6711.1919   -6680.1059   -3941.2604    18455.831   0.79675694 
    1050    279.04998   -6711.2352   -6680.1068   -3356.1301    18455.831   0.80429238 
    1060    270.39607   -6710.2685   -6680.1054   -2836.7873    18455.831   0.81167046 
    1070    268.92869   -6710.1046   -6680.1052   -2775.6081    18455.831   0.81774479 
    1080    276.86697   -6710.9921   -6680.1072   -2982.0197    18455.831   0.82183502 
    1090    273.51021   -6710.6167   -6680.1062   -3002.8881    18455.831   0.82504043 
    1100    268.10286   -6710.0129   -6680.1056    -3041.916    18455.831   0.82859974 
    1110    268.86345   -6710.0983   -6680.1061   -3274.5241    18455.831   0.83307382 
    1120    271.12867   -6710.3511   -6680.1063   -3502.0504    18455.831   0.83788345 
    1130    271.41072   -6710.3825   -6680.1063   -3567.0764    18455.831   0.84210043 
    1140    271.86949   -6710.4327   -6680.1053   -3657.0206    18455.831   0.84510588 
    1150    281.86599   -6711.5491   -6680.1065   -4076.7437    18455.831    0.8468347 
    1160    288.73127   -6712.3154    -6680.107   -4317.2032    18455.831    0.8485126 
    1170    284.72713   -6711.8682   -6680.1065   -4221.6867    18455.831   0.85124425 
    1180    277.76624   -6711.0907   -6680.1055   -3786.2546    18455.831   0.85522238 
    1190    278.42764   -6711.1658   -6680.1068   -3453.5254    18455.831   0.86063272 
    1200    274.57485   -6710.7358   -6680.1066   -3135.4804    18455.831   0.86799772 
    1210    268.17301   -6710.0207   -6680.1056   -3061.7485    18455.831   0.87596914 
    1220    269.73514   -6710.1951   -6680.1058   -3498.6687    18455.831   0.88197829 
    1230    275.57277   -6710.8475    -6680.107   -3998.6686    18455.831   0.88464671 
    1240    273.28864   -6710.5919   -6680.1062   -4275.4959    18455.831   0.88485118 
    1250    269.21341   -6710.1371    -6680.106   -4301.1389    18455.831   0.88413656 
    1260    268.47841   -6710.0549   -6680.1057   -4311.1873    18455.831   0.88296339 
    1270    272.54156   -6710.5085   -6680.1061   -4356.8217    18455.831   0.88172746 
    1280    277.77621   -6711.0926   -6680.1063   -4588.2508    18455.831   0.88180594 
    1290    280.19269   -6711.3629    -6680.107   -4852.3632    18455.831   0.88389526 
    1300    274.38994   -6710.7142   -6680.1056   -4801.0391    18455.831   0.88737003 
    1310    272.68687   -6710.5248   -6680.1062   -4600.8128    18455.831   0.89133871 
    1320    273.33879   -6710.5972   -6680.1059   -4506.2257    18455.831   0.89528436 
    1330    275.86937     -6710.88   -6680.1064   -4590.7459    18455.831   0.89889495 
    1340    276.57557   -6710.9584    -6680.106   -4592.8619    18455.831   0.90245999 
    1350    276.61512   -6710.9634   -6680.1066   -4506.7758    18455.831   0.90646299 
    1360    272.26073   -6710.4771    -6680.106   -4467.2196    18455.831   0.91136845 
    1370    268.73878   -6710.0839   -6680.1057   -4589.1112    18455.831   0.91701889 
    1380    269.83102   -6710.2061    -6680.106   -4803.1401    18455.831   0.92344131 
    1390    271.01809   -6710.3391   -6680.1066   -4995.7936    18455.831   0.93117145 
    1400    266.53417   -6709.8383   -6680.1061   -4887.7324    18455.831   0.93925395 
    1410    264.34979   -6709.5941   -6680.1054   -4661.6641    18455.831   0.94440069 
    1420    271.24246   -6710.3639   -6680.1064   -4782.1646    18455.831   0.94464645 
    1430    278.14891   -6711.1341   -6680.1062   -5345.1098    18455.831   0.94130273 
    1440    284.26073    -6711.816   -6680.1063   -5956.3496    18455.831    0.9366539 
    1450    286.06102   -6712.0176    -6680.107   -6473.9841    18455.831   0.93338269 
    1460    278.13817   -6711.1322   -6680.1055    -6637.014    18455.831   0.93336514 
    1470    274.95588   -6710.7774   -6680.1057   -6848.7234    18455.831   0.93597431 
    1480    275.34081   -6710.8209   -6680.1062   -7017.9963    18455.831   0.93943367 
    1490    271.96867   -6710.4442   -6680.1057   -6827.7136    18455.831   0.94245071 
    1500    271.43894   -6710.3851   -6680.1057   -6399.8258    18455.831   0.94456699 
    1510    273.11981   -6710.5738   -6680.1069   -5919.9683    18455.831   0.94612167 
    1520    266.58025   -6709.8431   -6680.1057   -5429.0631    18455.831   0.94681802 
    1530    264.24493   -6709.5825   -6680.1056   -5386.7007    18455.831   0.94511663 
    1540    268.14703   -6710.0187   -6680.1065   -5636.8718    18455.831   0.94138542 
    1550    270.20911    -6710.248   -6680.1058   -5845.7424    18455.831   0.93815309 
    1560    276.27553   -6710.9252   -6680.1062   -5792.6983    18455.831   0.93754478 
    1570    281.48981   -6711.5074   -6680.1068   -5440.6487    18455.831   0.94039184 
    1580    279.21915   -6711.2534    -6680.106   -4999.2991    18455.831   0.94601391 
    1590     277.1071   -6711.0177    -6680.106   -4867.2447    18455.831   0.95254979 
    1600    278.30993   -6711.1519    -6680.106   -4854.7315    18455.831   0.95811089 
    1610    283.09805   -6711.6862   -6680.1062   -4922.4033    18455.831   0.96206314 
    1620    285.07138   -6711.9077   -6680.1076   -4696.0901    18455.831   0.96577017 
    1630    273.23535   -6710.5854   -6680.1056   -4246.7962    18455.831   0.97096923 
    1640     267.7179   -6709.9697   -6680.1053   -4035.6486    18455.831     0.977191 
    1650    272.52244   -6710.5064   -6680.1061   -4111.8074    18455.831   0.98346373 
    1660     277.8589   -6711.1018   -6680.1062   -4253.7363    18455.831   0.98934697 
    1670    281.07361    -6711.461   -6680.1068   -4561.0787    18455.831   0.99446833 
    1680    278.83973   -6711.2107   -6680.1057   -4801.2753    18455.831   0.99855733 
    1690    282.27607   -6711.5942   -6680.1059   -5070.8212    18455.831    1.0013333 
    1700    288.92729   -6712.3376   -6680.1074   -5075.7299    18455.831    1.0032748 
    1710    283.97303   -6711.7838   -6680.1062   -4524.3033    18455.831    1.0056492 
    1720    280.32496   -6711.3763   -6680.1056   -4088.2037    18455.831    1.0090707 
    1730    285.00962   -6711.9005   -6680.1072   -4166.6509    18455.831    1.0129097 
    1740    281.71349    -6711.532   -6680.1064   -4428.6075    18455.831    1.0162807 
    1750    277.27178   -6711.0355   -6680.1055   -4669.9286    18455.831    1.0185587 
    1760    282.23006   -6711.5895   -6680.1063   -4723.6015    18455.831    1.0199448 
    1770    285.90961   -6712.0006   -6680.1069   -4414.9618    18455.831      1.02094 
    1780    282.38129   -6711.6061    -6680.106   -3873.7091    18455.831    1.0213084 
    1790    282.44165    -6711.613   -6680.1062   -3619.8434    18455.831    1.0208436 
    1800    287.55602   -6712.1841   -6680.1067   -3726.4708    18455.831    1.0207901 
    1810    288.11308   -6712.2473   -6680.1079    -3934.633    18455.831    1.0230701 
    1820    276.98552   -6711.0034   -6680.1052    -4186.202    18455.831    1.0283135 
    1830    277.15263   -6711.0235   -6680.1067   -4345.9838    18455.831    1.0350393 
    1840    276.23823   -6710.9215   -6680.1067   -4368.7653    18455.831    1.0414724 
    1850    273.19513   -6710.5804   -6680.1051   -4416.5455    18455.831    1.0455768 
    1860    283.83055   -6711.7684   -6680.1067   -4696.8368    18455.831    1.0462471 
    1870    291.37755   -6712.6113   -6680.1077   -4729.2468    18455.831    1.0448258 
    1880    283.33807   -6711.7134   -6680.1066   -4658.1696    18455.831    1.0428769 
    1890    273.10669    -6710.571   -6680.1055   -4806.2478    18455.831     1.040683 
    1900    272.25017   -6710.4761   -6680.1062   -4992.1727    18455.831    1.0384095 
    1910    274.11365   -6710.6842   -6680.1065    -4851.611    18455.831    1.0367748 
    1920     274.3815    -6710.714   -6680.1064   -4374.9654    18455.831    1.0362621 
    1930    273.80361   -6710.6496   -6680.1064   -3953.3671    18455.831    1.0369737 
    1940    273.81216   -6710.6506   -6680.1064   -3660.7249    18455.831     1.038631 
    1950     274.0972   -6710.6826   -6680.1067   -3555.6748    18455.831    1.0408007 
    1960     275.1804   -6710.8028    -6680.106   -3995.0323    18455.831    1.0431217 
    1970    281.99645   -6711.5638   -6680.1067   -4818.7611    18455.831    1.0450424 
    1980     287.0536   -6712.1285   -6680.1072   -5430.2829    18455.831    1.0464652 
    1990    282.90097   -6711.6645   -6680.1064   -5324.8363    18455.831    1.0478613 
    2000    278.29624   -6711.1501   -6680.1058   -5003.2499    18455.831    1.0492005 
Loop time of 1485.25 on 16 procs for 2000 steps with 864 atoms

Performance: 0.116 ns/day, 206.285 hours/ns, 1.347 timesteps/s
97.2% CPU use with 16 MPI tasks x 1 OpenMP threads

MPI task timing breakdown:
Section |  min time  |  avg time  |  max time  |%varavg| %total
---------------------------------------------------------------
Pair    | 688.48     | 1116.7     | 1484.3     | 562.3 | 75.19
Bond    | 0.00018501 | 0.00054774 | 0.0013893  |   0.0 |  0.00
Neigh   | 0.01886    | 0.030227   | 0.049408   |   3.8 |  0.00
Comm    | 0.50995    | 328.52     | 756.78     | 981.8 | 22.12
Output  | 0.2944     | 22.389     | 53.848     | 432.6 |  1.51
Modify  | 0.0091014  | 0.010997   | 0.015878   |   1.6 |  0.00
Other   |            | 17.6       |            |       |  1.18

Nlocal:        54.0000 ave          86 max          35 min
Histogram: 1 1 3 7 2 1 0 0 0 1
Nghost:        537.750 ave         662 max         448 min
Histogram: 3 1 1 5 0 0 3 1 1 1
Neighs:         0.00000 ave           0 max           0 min
Histogram: 16 0 0 0 0 0 0 0 0 0
FullNghs:      2646.75 ave        5387 max        1216 min
Histogram: 2 2 3 4 3 1 0 0 0 1

Total # of neighbors = 42348
Ave neighs/atom = 49.013889
Ave special neighs/atom = 0.0000000
Neighbor list builds = 199
Dangerous builds = 198
unfix   1

velocity    all create 750.0 1312343 dist gaussian
fix     2 all npt temp 750.0 750.0 $(100.0*dt) aniso 0.0 1.01325 $(1000.0*dt)
fix     2 all npt temp 750.0 750.0 0.10000000000000000555 aniso 0.0 1.01325 $(1000.0*dt)
fix     2 all npt temp 750.0 750.0 0.10000000000000000555 aniso 0.0 1.01325 1
run     3000
Per MPI rank memory allocation (min/avg/max) = 8.897 | 8.909 | 8.917 Mbytes
Step Temp PotEng TotEng Press Volume c_msd[4] 
    2000          750   -6711.1501   -6627.4865   -1957.9486    18455.831    1.0492005 
    2010    664.92128    -6701.633     -6627.46     21.24093    18454.906    1.0542285 
    2020    543.13179   -6687.8691    -6627.282    2758.6572    18454.062    1.0663205 
    2030    510.63961   -6683.7976    -6626.835    3180.9974    18456.119     1.077301 
    2040    496.28018   -6681.4231   -6626.0623    2722.3007    18461.736    1.0882362 
    2050    477.58016   -6678.3617    -6625.087    2486.3301    18470.511     1.099511 
    2060    487.76865   -6678.5038   -6624.0925    1876.2231    18482.098    1.1096435 
    2070    506.52547   -6679.6757    -6623.172     1489.971    18495.874    1.1196442 
    2080    517.01763   -6679.9859   -6622.3118    1717.1168    18511.473    1.1300528 
    2090    520.62903   -6679.5023   -6621.4254    1508.5245    18529.045    1.1396318 
    2100    542.28228   -6680.9357   -6620.4433    410.40547    18548.319    1.1478167 
    2110    574.19536   -6683.3718   -6619.3194   -932.56804    18568.094    1.1568006 
    2120    565.29168   -6681.1852   -6618.1261   -1088.6897    18586.951    1.1680725 
    2130      534.387   -6676.5612   -6616.9495   -10.097872    18604.741    1.1792036 
    2140    536.50264   -6675.6117    -6615.764    553.41467    18622.512    1.1881198 
    2150     537.5653   -6674.4866   -6614.5203    231.33242    18640.894    1.1960279 
    2160     544.7957   -6674.0185   -6613.2457   -729.22326    18659.537    1.2037977 
    2170    566.80199   -6675.1447   -6611.9171   -1560.3168    18677.395     1.211844 
    2180    567.36126    -6673.855    -6610.565   -1620.1428    18693.556    1.2210037 
    2190    559.43513   -6671.6372   -6609.2314   -1306.8305    18707.902    1.2300319 
    2200    572.20395   -6671.7135   -6607.8833   -1351.3804    18720.714     1.237832 
    2210    583.56037   -6671.5907   -6606.4936   -1668.3403    18731.941     1.244999 
    2220     584.8662   -6670.3404   -6605.0977   -1897.1753    18741.247    1.2511889 
    2230    581.82661   -6668.6104   -6603.7068   -2236.8997    18748.333    1.2550301 
    2240     593.9798   -6668.5679   -6602.3086   -2640.5483    18752.804    1.2553368 
    2250    604.91082   -6668.3674   -6600.8887   -2876.1208    18754.198    1.2530381 
    2260    612.10412   -6667.7506   -6599.4694   -2676.8933    18752.228    1.2506818 
    2270    615.54519   -6666.7224   -6598.0574    -1965.391    18747.143    1.2512735 
    2280    617.44085   -6665.5214   -6596.6449   -967.75827    18739.766    1.2551404 
    2290    625.09392   -6664.9548   -6595.2247     43.83251    18731.238    1.2592902 
    2300    641.43759   -6665.3382   -6593.7849    611.95179    18722.678    1.2611008 
    2310    653.42286   -6665.2339   -6592.3436    797.53245     18714.78    1.2612265 
    2320    666.57683   -6665.2768   -6590.9191    639.49512    18707.757    1.2607567 
    2330    661.61246   -6663.3309    -6589.527    608.08575    18701.476    1.2609827 
    2340    658.68076   -6661.6441   -6588.1673    13.847705    18695.821    1.2630562 
    2350    666.23448   -6661.1254   -6586.8059   -761.07387     18690.14    1.2674402 
    2360    670.79939   -6660.2686   -6585.4399   -818.74829    18683.619    1.2729587 
    2370    684.33882   -6660.4167   -6584.0777   -260.97168    18676.204    1.2766504 
    2380    695.43663   -6660.2989   -6582.7219    269.81581    18668.462    1.2781815 
    2390    691.61872   -6658.5451    -6581.394    677.68487        18661    1.2800235 
    2400    690.80221   -6657.1466   -6580.0865    1022.0598    18654.305    1.2827768 
    2410    701.85207    -6657.082   -6578.7893     1377.839    18648.794    1.2868941 
    2420    724.19444   -6658.2799    -6577.495     1342.273    18644.821     1.294162 
    2430    720.85007   -6656.6452   -6576.2333     1702.115    18642.469    1.3063487 
    2440    723.03984   -6655.6847   -6575.0285    1500.0926    18642.034     1.321362 
    2450    730.79734   -6655.3737   -6573.8522    986.57072    18643.333    1.3359466 
    2460    740.03375   -6655.2595   -6572.7076    472.06741    18645.784    1.3474373 
    2470    754.84751   -6655.8055   -6571.6011     121.3285    18648.817    1.3554527 
    2480    763.44363   -6655.7185   -6570.5552    165.85062    18652.055    1.3625313 
    2490    750.13356   -6653.2692   -6569.5907     412.6904    18655.525    1.3704449 
    2500    738.52965   -6651.0721    -6568.688    460.13517    18659.468    1.3784639 
    2510    747.25364   -6651.1642   -6567.8069    281.09597    18663.938    1.3872209 
    2520    735.77309   -6649.0167   -6566.9401    742.72104    18668.838     1.399087 
    2530    737.07348   -6648.3147    -6566.093    947.21816    18674.603    1.4116287 
    2540    758.77412   -6649.8818   -6565.2394     275.4198    18681.407    1.4231004 
    2550    769.16345   -6650.2117   -6564.4104   -309.25724    18688.581    1.4343905 
    2560    783.77564   -6651.0757   -6563.6444   -402.38251    18695.484    1.4461395 
    2570    786.64231   -6650.7101    -6562.959    277.78984    18702.041    1.4594756 
    2580     792.6867   -6650.8022   -6562.3768    880.82801    18708.956    1.4745132 
    2590    788.79154   -6649.8893   -6561.8984    1255.1925    18716.947    1.4909437 
    2600    784.93158   -6649.0843    -6561.524    923.53851    18726.389    1.5065703 
    2610    768.51933   -6646.9594   -6561.2299    360.59378    18736.964    1.5193119 
    2620    750.38863   -6644.6872   -6560.9802    148.42087    18748.093    1.5292877 
    2630    751.94392   -6644.6197   -6560.7392   -571.11644    18759.404    1.5398366 
    2640    756.58857   -6644.8946    -6560.496   -1052.6965    18770.148     1.553368 
    2650    761.81392   -6645.2469   -6560.2654   -875.48079    18779.804     1.569006 
    2660     771.0285   -6646.0745   -6560.0651   -472.17092    18788.533     1.586224 
    2670    769.89031   -6645.7937   -6559.9112   -631.77091     18796.72    1.6042405 
    2680    765.40302   -6645.1831   -6559.8013   -1260.9266     18804.18    1.6200008 
    2690    768.55684   -6645.4671   -6559.7334   -1758.4087    18810.226    1.6335843 
    2700    758.77243   -6644.3404   -6559.6982   -2037.4914    18814.264    1.6489683 
    2710    760.12577   -6644.4816   -6559.6884   -2316.5789    18815.895    1.6678504 
    2720    766.66348   -6645.2259   -6559.7034   -1774.2197    18814.881    1.6908364 
    2730    756.96932    -6644.185    -6559.744   -896.87427    18811.799    1.7170615 
    2740    754.55347   -6643.9793   -6559.8077   -672.48615     18807.55    1.7435959 
    2750    767.23145   -6645.4767   -6559.8909    -722.0462    18802.447    1.7699622 
    2760    768.49121   -6645.7388   -6560.0124   -808.94848    18796.436    1.7959612 
    2770    764.66777   -6645.4771   -6560.1773   -1048.8735    18789.408    1.8202801 
    2780    762.76177   -6645.4618   -6560.3746   -1665.8836    18781.029    1.8437329 
    2790    754.82073   -6644.7995   -6560.5981   -1651.7408    18770.685    1.8684992 
    2800    757.26863   -6645.3145     -6560.84   -1498.3806    18758.335    1.8941962 
    2810    762.23319   -6646.1429   -6561.1146    -1516.421    18744.084    1.9213187 
    2820    737.21216   -6643.6367   -6561.3996   -324.26111     18728.08     1.951248 
    2830    730.60408   -6643.1465   -6561.6466    679.45411    18711.538    1.9821674 
    2840    741.43053   -6644.5528   -6561.8451    968.43957    18695.607    2.0129515 
    2850    753.16696   -6646.0378   -6562.0208    1158.6833    18680.683    2.0438967 
    2860    745.19666   -6645.3194   -6562.1916    1577.3178    18667.028    2.0780733 
    2870    728.77895   -6643.6388   -6562.3424    1915.2087    18655.128    2.1162035 
    2880    737.91364    -6644.771   -6562.4557    1773.4588    18645.336    2.1548974 
    2890    733.85343   -6644.3982   -6562.5358    1639.6585    18637.556    2.1916218 
    2900    726.14258   -6643.5837   -6562.5814    1177.7241    18631.614    2.2274293 
    2910     739.3908   -6645.0762    -6562.596    523.62029    18626.968    2.2634284 
    2920     727.9788   -6643.7831    -6562.576    735.21887    18622.997     2.299324 
    2930    727.18938   -6643.6361    -6562.517    1021.8968    18619.867    2.3318934 
    2940    741.25745   -6645.0989   -6562.4106    763.22164    18617.851    2.3593455 
    2950    758.69894   -6646.9207   -6562.2867    545.03002    18616.725    2.3829248 
    2960    761.37001   -6647.1098   -6562.1778    762.93054     18616.28    2.4033808 
    2970    751.47811   -6645.9221   -6562.0936    766.37992    18616.693    2.4199835 
    2980    733.57511   -6643.8424    -6562.011    948.25323    18618.053    2.4320831 
    2990    728.50337   -6643.1641   -6561.8984    1027.0007     18620.53     2.441203 
    3000    733.95684   -6643.6164   -6561.7424    1145.6789     18624.25    2.4527347 
    3010    744.77941   -6644.6302    -6561.549    1173.6475     18629.34    2.4689294 
    3020    758.50297   -6645.9585   -6561.3464    1001.5301     18635.84    2.4886352 
    3030    750.68001   -6644.8895     -6561.15    971.93693     18643.61    2.5105292 
    3040    742.70804   -6643.8084   -6560.9582     801.6285    18652.607    2.5317015 
    3050    746.87592   -6644.0707   -6560.7555   -61.279077    18662.563    2.5470679 
    3060     733.6874   -6642.3781   -6560.5341   -564.69743    18672.615    2.5561981 
    3070    729.48712   -6641.6571   -6560.2817   -926.26553    18682.168    2.5628429 
    3080    741.34934   -6642.6802   -6559.9815   -1823.7286    18690.686    2.5695818 
    3090    738.23106   -6642.0022   -6559.6514   -2135.6387    18697.237    2.5800287 
    3100    747.11644   -6642.6485   -6559.3065   -2496.5675    18701.328    2.5963562 
    3110    749.90391   -6642.6028   -6558.9499   -2191.7569    18702.625    2.6160994 
    3120    746.38452   -6641.8478   -6558.5875   -1472.0971    18701.394    2.6350467 
    3130    744.72419   -6641.2864   -6558.2113   -702.07977    18698.429    2.6508228 
    3140    764.96564    -6643.168    -6557.835   -881.88878    18694.484    2.6654189 
    3150    776.78723   -6644.1316   -6557.4798   -772.32845    18689.511    2.6840466 
    3160    786.15155   -6644.8829   -6557.1865   -154.55205    18683.628    2.7062816 
    3170    779.53576   -6643.9199   -6556.9615    709.93371    18677.523    2.7286404 
    3180    769.53892   -6642.6461   -6556.8028    1479.9349    18672.162    2.7488938 
    3190    762.17431   -6641.7143   -6556.6926    1434.4674    18668.373    2.7660147 
    3200    761.69683   -6641.5847   -6556.6163    738.99717    18666.158    2.7788617 
    3210    768.01212   -6642.2484   -6556.5755     21.23835    18664.774     2.788503 
    3220     755.9508   -6640.8983   -6556.5709    245.46265    18663.493    2.7965129 
    3230    744.91498   -6639.6812   -6556.5848    1112.3885    18662.556    2.7996349 
    3240    744.00057   -6639.5902   -6556.5958    1900.7387    18662.919    2.7967877 
    3250    742.92001   -6639.4707   -6556.5969    1950.9156    18665.434    2.7913114 
    3260    749.07977   -6640.1568   -6556.5958    1348.9084    18670.229    2.7846282 
    3270    722.34182   -6637.1507   -6556.5723    963.41665    18676.752    2.7765122 
    3280    730.92821   -6638.0329   -6556.4967   -136.37945    18684.443    2.7646169 
    3290    781.74262   -6643.5782   -6556.3737   -1564.7357    18692.077    2.7510665 
    3300    806.83252   -6646.3086   -6556.3053   -1940.7808    18698.123    2.7424209 
    3310    782.82843   -6643.6789   -6556.3532   -1142.8839    18702.129    2.7421925 
    3320    764.43489   -6641.7559    -6556.482   -447.43557    18704.845    2.7485874 
    3330    763.19246   -6641.7887   -6556.6535   -375.31655    18707.031    2.7569877 
    3340    769.36436   -6642.6892   -6556.8655   -777.87811    18708.774    2.7638561 
    3350    767.79142   -6642.7761   -6557.1278   -647.10402    18709.691    2.7680005 
    3360    756.28893     -6641.79   -6557.4248   -120.36326    18709.897    2.7681105 
    3370     767.6862   -6643.3856    -6557.749   -30.841286    18709.916    2.7631135 
    3380    761.73039   -6643.0832    -6558.111    461.84748    18709.945    2.7529211 
    3390    732.29713   -6640.1702   -6558.4814    1392.3761    18710.581    2.7403748 
    3400    739.61913   -6641.3265   -6558.8208    1498.4889    18712.774    2.7302115 
    3410    758.18737   -6643.7162   -6559.1393     1592.493     18716.78    2.7266903 
    3420    747.52898   -6642.8478   -6559.4598    2452.3018    18722.846    2.7283625 
    3430    750.56045   -6643.5082    -6559.782    2767.6578    18731.866     2.729224 
    3440    758.53533   -6644.7337   -6560.1179    2144.8333    18744.234    2.7254312 
    3450    737.58429   -6642.7298   -6560.4512    1834.8766      18759.4    2.7156624 
    3460    727.41775   -6641.9029   -6560.7583    1837.8295    18777.028    2.6998668 
    3470    732.30815   -6642.7083   -6561.0182    1002.2854    18797.031    2.6795681 
    3480    741.87513   -6643.9906   -6561.2333   -747.95045    18818.426    2.6563334 
    3490    741.27441   -6644.0986   -6561.4084   -2053.8628     18839.29    2.6329283 
    3500    734.87057   -6643.5313   -6561.5554   -2012.7592    18858.145    2.6132362 
    3510    734.18978    -6643.578   -6561.6781   -1579.8783    18874.866    2.5996763 
    3520    735.85295   -6643.8492   -6561.7637   -1274.7181    18889.894    2.5923221 
    3530    743.14527   -6644.7185   -6561.8196    -1574.053    18903.493    2.5913471 
    3540    728.75655   -6643.1425   -6561.8486   -1814.5452     18915.36    2.5952643 
    3550    716.27763   -6641.7388    -6561.837    -1832.632    18925.193    2.5974873 
    3560    733.47254   -6643.6022   -6561.7822   -2030.6238    18932.874    2.5943834 
    3570    719.65474   -6641.9573   -6561.6788   -1229.1919    18938.312    2.5871641 
    3580    712.49101   -6641.0065   -6561.5271   -582.28129    18942.287    2.5774963 
    3590    722.39343   -6641.8878   -6561.3037   -598.18895    18945.531    2.5678787 
    3600     731.7847   -6642.6485   -6561.0168   -898.01708    18948.059    2.5611913 
    3610    725.14813   -6641.5732   -6560.6819    -1196.399    18949.515    2.5603218 
    3620    720.08471   -6640.6193   -6560.2928   -1063.4196    18949.613    2.5631564 
    3630     734.0812    -6641.733   -6559.8451   -1133.8161    18948.393     2.564309 
    3640    727.97237   -6640.5584    -6559.352   -969.57102    18945.829    2.5605021 
    3650    744.66533   -6641.9081   -6558.8396   -878.74993    18942.073    2.5509361 
    3660    775.65883   -6644.8305   -6558.3046   -758.18323    18937.234    2.5416051 
    3670    777.23758   -6644.5039   -6557.8019    -104.9859    18931.507    2.5403973 
    3680     763.5196    -6642.544   -6557.3722    465.39858    18925.597    2.5470737 
    3690    751.87781   -6640.8633   -6556.9902    697.68332    18920.165    2.5573797 
    3700    748.92634   -6640.1712   -6556.6274    651.46898    18915.502     2.570184 
    3710    747.98461   -6639.7004   -6556.2616    523.45395    18911.582    2.5832272 
    3720    762.90172   -6641.0021   -6555.8993    689.36824    18908.301    2.5937133 
    3730    774.16658   -6641.9153   -6555.5558    988.61281     18905.86    2.6026384 
    3740    776.22939   -6641.8441   -6555.2545    990.25811    18904.567     2.609259 
    3750    784.20901   -6642.5042   -6555.0245    1144.3622    18904.469    2.6127285 
    3760    754.67572   -6639.0438   -6554.8586    1552.2173     18905.76    2.6140691 
    3770    746.47582   -6637.9952   -6554.7247    1570.8778    18908.871     2.611508 
    3780    760.30701   -6639.4016   -6554.5882    1284.5918    18913.878    2.6066295 
    3790    776.60889   -6641.1059    -6554.474    404.51366    18920.408    2.6046136 
    3800    782.74428   -6641.7317   -6554.4154    -361.5463    18927.515    2.6093385 
    3810    765.44929   -6639.8107   -6554.4236   -609.41162    18934.309    2.6225701 
    3820    752.89487   -6638.4612   -6554.4746   -730.75857    18940.458    2.6409043 
    3830    762.04027   -6639.5519   -6554.5451   -1288.0911    18945.742    2.6588022 
    3840    765.87783    -6640.082   -6554.6471   -1798.4001    18949.518     2.672317 
    3850    746.79985   -6638.0846   -6554.7779   -1715.8276    18951.231    2.6789463 
    3860    740.26556   -6637.4893   -6554.9116   -1700.7025    18950.876    2.6788801 
    3870    744.96547   -6638.1341   -6555.0321   -1464.4112    18948.496    2.6771165 
    3880    749.18878   -6638.7187   -6555.1456    -1239.224    18944.323    2.6770148 
    3890    729.47389   -6636.6148   -6555.2409   -1102.6475    18938.581    2.6769353 
    3900    727.45744   -6636.4457   -6555.2968   -840.88262    18931.471    2.6722891 
    3910    748.82318   -6638.8388   -6555.3064   -1054.8532    18923.212    2.6643871 
    3920    758.01929   -6639.8733   -6555.3151   -1346.5187    18913.575    2.6594581 
    3930    731.16706   -6636.8912   -6555.3285   -721.88417    18902.326    2.6571693 
    3940    728.42086   -6636.5732   -6555.3167    120.37379      18890.1    2.6519687 
    3950    730.55502   -6636.7448   -6555.2502    902.66059    18877.897    2.6437831 
    3960     734.1194   -6637.0296   -6555.1375    1161.9507    18866.571    2.6351602 
    3970    746.83273   -6638.2939   -6554.9836    1116.1162    18856.477    2.6299625 
    3980    760.54621   -6639.6517   -6554.8116    925.43676    18847.584    2.6309124 
    3990    771.04776   -6640.6693   -6554.6577    779.34172     18839.69    2.6368739 
    4000     767.1092   -6640.1078   -6554.5356    987.07077    18832.654     2.644388 
    4010     778.2232   -6641.2705   -6554.4585    1274.6772    18826.718    2.6513333 
    4020    765.11979    -6639.781   -6554.4307    1556.2324     18822.25    2.6593857 
    4030    752.77817   -6638.4138   -6554.4403    1691.3319    18819.574    2.6689825 
    4040    747.95731   -6637.8932   -6554.4574    1565.1993    18818.852    2.6813975 
    4050     738.9195   -6636.8957   -6554.4682    1431.6682    18820.001    2.6956266 
    4060    742.16722   -6637.2558    -6554.466    1217.4069    18822.856    2.7065533 
    4070    746.19366   -6637.6866   -6554.4476    1305.0266    18827.243    2.7123393 
    4080    762.93115   -6639.5344   -6554.4283    1056.3496    18833.209     2.715286 
    4090    758.57017   -6639.0402   -6554.4205    1281.8357    18840.606    2.7188189 
    4100    746.32468   -6637.6792   -6554.4256    1353.5848    18849.643    2.7240432 
    4110    752.23869   -6638.3428   -6554.4294    848.04613    18860.408    2.7290136 
    4120    774.91324   -6640.8869   -6554.4441    -286.1531    18872.281    2.7322109 
    4130    766.54235   -6640.0133   -6554.5044   -530.01222    18884.109    2.7378191 
    4140    744.51669   -6637.6535   -6554.6015    15.373725    18895.604    2.7483161 
    4150    762.02396   -6639.7311   -6554.7262   -280.78746     18907.19    2.7600808 
    4160    751.48168   -6638.6976   -6554.8687    44.567727    18918.731    2.7708086 
    4170    751.44616   -6638.8683   -6555.0434    570.91173     18930.54    2.7804399 
    4180    755.81114   -6639.5533   -6555.2414    858.76301    18943.237    2.7907292 
    4190    754.67405   -6639.6552   -6555.4702    334.83946    18957.119    2.8029164 
    4200    750.79004    -6639.471   -6555.7192   -711.21346    18971.617    2.8175137 
    4210    757.44125   -6640.4898   -6555.9961   -1448.6103    18985.592    2.8317351 
    4220    740.97433   -6638.9575   -6556.3007   -1650.6147    18998.151     2.841301 
    4230    735.92763   -6638.7068    -6556.613   -2478.8927    19008.863    2.8449372 
    4240    747.87973   -6640.3513   -6556.9242   -3571.1303    19016.732    2.8464371 
    4250    741.20453    -6639.932   -6557.2495    -3477.083    19020.529     2.850421 
    4260    731.73167   -6639.2069   -6557.5811   -2879.0991    19020.219    2.8564764 
    4270    742.25217   -6640.7148   -6557.9155   -2729.3956    19016.326    2.8644629 
    4280    737.85881   -6640.5623    -6558.253   -1942.4805     19009.09    2.8786951 
    4290     727.4846   -6639.7215   -6558.5695   -1133.9669     18999.33    2.8981099 
    4300    734.49899   -6640.7942   -6558.8597   -824.78879    18987.939    2.9185657 
    4310    724.12545   -6639.8964   -6559.1192   -690.20927    18975.299    2.9377447 
    4320    728.36144    -6640.597   -6559.3472   -734.20142     18961.55    2.9526981 
    4330     740.3282   -6642.1342   -6559.5495   -1095.3116    18946.595    2.9639703 
    4340    734.02363   -6641.6211   -6559.7396   -1303.4435    18930.037    2.9722984 
    4350    719.06681   -6640.1133   -6559.9003   -1006.3228    18911.626     2.976497 
    4360    725.25878   -6640.9132   -6560.0095   -430.24334    18891.663    2.9757542 
    4370    731.35524   -6641.6456   -6560.0618    263.93471    18870.833     2.972508 
    4380    730.26982   -6641.5304   -6560.0677    378.82582    18849.864    2.9693693 
    4390    732.41573   -6641.7314   -6560.0293    509.09007    18828.972    2.9669985 
    4400    737.30229   -6642.1887   -6559.9415    1158.0229     18808.39    2.9657602 
    4410    750.46176   -6643.5308   -6559.8157    1465.6781    18788.797    2.9657146 
    4420    752.42582      -6643.6   -6559.6657    1627.0806    18770.597    2.9644562 
    4430    752.40309   -6643.4419   -6559.5102    1940.3026    18754.036    2.9620411 
    4440     740.1328   -6641.9055   -6559.3426    2356.0651    18739.522    2.9615524 
    4450    732.90223   -6640.8933   -6559.1369    2629.3357    18727.542    2.9636691 
    4460    731.40557   -6640.4325   -6558.8431    2766.3597    18718.477    2.9681136 
    4470    750.91764   -6642.2205   -6558.4545    2255.4776    18712.461    2.9736965 
    4480    765.73354   -6643.4201   -6558.0014     1801.895    18709.034    2.9797571 
    4490    758.31089   -6642.1211   -6557.5304    1939.3651    18707.765    2.9891499 
    4500    742.60006   -6639.8933   -6557.0551    1794.7194    18708.704    3.0051079 
    4510    731.88405   -6638.1966   -6556.5538    1742.4542      18711.8    3.0268679 
    4520    740.83784   -6638.6424   -6556.0009    1731.5315    18717.019    3.0523174 
    4530    762.29082   -6640.4334   -6555.3987    1991.9875     18724.41    3.0799618 
    4540    776.58429   -6641.4336   -6554.8045    2163.8621    18734.275    3.1089458 
    4550    784.23075   -6641.7594   -6554.2772    2170.5578    18746.851    3.1373383 
    4560     788.0308   -6641.7448   -6553.8388    1920.4934     18762.18    3.1635766 
    4570    782.91012   -6640.8306   -6553.4958    1518.5331    18780.034    3.1874658 
    4580    782.81971   -6640.5665   -6553.2418    708.67677     18799.92    3.2092287 
    4590    784.27291   -6640.5449    -6553.058     55.33478    18820.971    3.2311756 
    4600    766.20666   -6638.4185    -6552.947    57.946729    18842.462     3.253196 
    4610     744.2314   -6635.9094   -6552.8893    386.81453    18864.379    3.2731755 
    4620    750.58859    -6636.571   -6552.8417   -166.89541    18886.959    3.2911539 
    4630    770.10126    -6638.692    -6552.786    -1129.789    18909.598    3.3103019 
    4640    778.72538   -6639.6218   -6552.7538   -1918.6679    18931.176    3.3311701 
    4650    763.92272   -6637.9697   -6552.7529   -2311.0454    18950.754    3.3519665 
    4660    755.70522   -6637.0908   -6552.7907   -2521.6393    18967.775    3.3709642 
    4670    736.50498   -6634.9993    -6552.841   -2055.6422    18982.011    3.3898136 
    4680    737.87059   -6635.1937   -6552.8832   -1826.3436     18993.88    3.4083402 
    4690    760.47698   -6637.7532   -6552.9209   -2057.3886    19003.608    3.4243148 
    4700    757.13229   -6637.4317   -6552.9724   -1965.9426    19010.978    3.4377642 
    4710    757.08839   -6637.5173   -6553.0629   -2351.5891    19015.958    3.4497473 
    4720    755.68101    -6637.489   -6553.1917   -2636.3578    19018.138    3.4595003 
    4730    748.12576   -6636.8133   -6553.3587   -2062.3485    19017.243    3.4663735 
    4740    744.82663   -6636.6476   -6553.5611   -1618.9095    19013.808    3.4709131 
    4750    725.12696   -6634.6697   -6553.7807   -1013.2918    19008.413    3.4759266 
    4760    705.13282   -6632.6333   -6553.9747   -204.14167    19001.763    3.4818517 
    4770    717.10784   -6634.1098   -6554.1153   -279.93158    18994.681    3.4872854 
    4780    728.16288   -6635.4331   -6554.2055   -765.01949    18987.142    3.4929699 
    4790     734.0576   -6636.1475   -6554.2623   -906.49514    18978.637    3.4978453 
    4800    742.87316   -6637.1539   -6554.2852   -430.43648    18969.023    3.5008306 
    4810    744.78016   -6637.3581   -6554.2768   -167.20623    18958.758    3.5026707 
    4820    758.29051   -6638.8547   -6554.2662   -604.07084    18948.103     3.502699 
    4830    759.30442   -6638.9789   -6554.2773   -837.77602    18936.639    3.5008718 
    4840    754.73703   -6638.5053   -6554.3132   -931.35741    18924.057    3.4967676 
    4850    754.85104   -6638.5693   -6554.3646   -926.15757    18910.221    3.4920752 
    4860    737.94075    -6636.731   -6554.4126   -59.717167    18895.239    3.4898214 
    4870     726.6744    -6635.494   -6554.4323    893.72451    18880.031    3.4905615 
    4880    726.39095   -6635.4319   -6554.4019    1628.1777    18865.719    3.4907214 
    4890    742.59342   -6637.1669   -6554.3295    1696.7606    18853.132    3.4896706 
    4900    754.41817   -6638.3877   -6554.2312    1515.9549    18842.431    3.4908677 
    4910    760.45721   -6638.9603   -6554.1301    1506.5996    18833.466    3.4949011 
    4920    775.52135   -6640.5573   -6554.0467    1699.7325    18826.243     3.498383 
    4930    775.15828   -6640.4767   -6554.0066    2008.4641        18821    3.4993381 
    4940      758.603   -6638.6423    -6554.019     1830.081    18818.064    3.4996455 
    4950    767.01285   -6639.6345    -6554.073    673.28328    18817.168    3.4989452 
    4960    780.15237   -6641.2002   -6554.1731   -323.53384     18817.09    3.4980094 
    4970    774.39917   -6640.7278   -6554.3424   -650.74918    18816.685    3.5017864 
    4980    759.75772    -6639.327   -6554.5749   -65.906422    18815.601    3.5140765 
    4990    747.35456   -6638.2056   -6554.8371    428.24613     18814.42    3.5321555 
    5000    750.16991   -6638.8009   -6555.1183    655.21087    18813.733    3.5487703 
Loop time of 2382.17 on 16 procs for 3000 steps with 864 atoms

Performance: 0.109 ns/day, 220.571 hours/ns, 1.259 timesteps/s
97.0% CPU use with 16 MPI tasks x 1 OpenMP threads

MPI task timing breakdown:
Section |  min time  |  avg time  |  max time  |%varavg| %total
---------------------------------------------------------------
Pair    | 1593.2     | 2040.7     | 2323.2     | 526.3 | 85.67
Bond    | 0.00032687 | 0.00081539 | 0.0016425  |   0.0 |  0.00
Neigh   | 0.034218   | 0.044332   | 0.057216   |   3.3 |  0.00
Comm    | 42.213     | 265.68     | 760.54     |1435.3 | 11.15
Output  | 0.8888     | 0.89288    | 0.95244    |   1.6 |  0.04
Modify  | 1.5276     | 74.809     | 152.35     | 712.5 |  3.14
Other   |            | 0.01589    |            |       |  0.00

Nlocal:        54.0000 ave          68 max          41 min
Histogram: 1 1 4 2 1 2 1 0 3 1
Nghost:        535.625 ave         657 max         480 min
Histogram: 4 3 4 1 0 1 1 0 0 2
Neighs:         0.00000 ave           0 max           0 min
Histogram: 16 0 0 0 0 0 0 0 0 0
FullNghs:      2514.62 ave        3891 max        1649 min
Histogram: 2 3 2 2 3 0 1 2 0 1

Total # of neighbors = 40234
Ave neighs/atom = 46.567130
Ave special neighs/atom = 0.0000000
Neighbor list builds = 300
Dangerous builds = 300
unfix   2

fix     3 all npt temp 750.0 750.0 $(100.0*dt) aniso 1.01325 1.01325 $(1000.0*dt)
fix     3 all npt temp 750.0 750.0 0.10000000000000000555 aniso 1.01325 1.01325 $(1000.0*dt)
fix     3 all npt temp 750.0 750.0 0.10000000000000000555 aniso 1.01325 1.01325 1
run     20000
Per MPI rank memory allocation (min/avg/max) = 8.904 | 8.910 | 8.917 Mbytes
Step Temp PotEng TotEng Press Volume c_msd[4] 
    5000    750.16991   -6638.8009   -6555.1183    655.21087    18813.733    3.5487703 
    5010    763.50696   -6640.2961   -6555.1257    752.30504     18814.16    3.5590623 
    5020    760.32815   -6639.9724   -6555.1567    695.10997    18815.472    3.5617223 
    5030    765.03124   -6640.5584    -6555.218    162.43847    18817.565     3.558256 
    5040    767.92476   -6640.9783   -6555.3151   -345.34484    18819.871    3.5534825 
    5050    747.19945   -6638.7983   -6555.4471   -584.75937    18821.801    3.5485138 
    5060    739.30362   -6638.0522   -6555.5818   -1112.3991    18823.005    3.5393953 
    5070    748.85642    -6639.241   -6555.7049   -1483.0888    18822.905     3.527985 
    5080    758.53668   -6640.4536   -6555.8377   -1487.4794    18821.084    3.5204261 
    5090    755.53035   -6640.2811   -6556.0005   -1016.9053    18817.537    3.5192011 
    5100    740.93341    -6638.837   -6556.1847   -15.170713    18812.823     3.522917 
    5110    743.69289   -6639.3352   -6556.3752     882.9648    18808.058    3.5290668 
    5120    752.43028   -6640.5126   -6556.5779    1366.5148    18804.278    3.5351893 
    5130    757.14019   -6641.2815   -6556.8214    2245.6438    18802.146    3.5373517 
    5140    756.98577   -6641.5615   -6557.1186     3125.428    18802.665    3.5334553 
    5150    766.29434   -6642.9822   -6557.5009    2864.8784    18806.783    3.5275295 
    5160    757.90235   -6642.5268   -6557.9816    2222.1873    18814.316    3.5258613 
    5170    753.04623   -6642.5589   -6558.5554    1361.6787    18824.519    3.5297091 
    5180    754.72672   -6643.3942   -6559.2033    446.30952     18836.42    3.5371509 
    5190    758.85234   -6644.5813   -6559.9301   -296.29473    18848.912    3.5451819 
    5200    743.59667   -6643.6515   -6560.7021   -100.05819    18861.225    3.5487613 
    5210    721.15311    -6641.901   -6561.4553    350.11474     18873.52    3.5443168 
    5220    707.93395    -6641.074   -6562.1029    337.97037    18886.261    3.5355237 
    5230    724.96232   -6643.5071   -6562.6365   -495.89953    18899.389    3.5276025 
    5240    734.14796   -6644.9699   -6563.0746   -1270.7677    18912.017    3.5223295 
    5250    733.31193   -6645.2358   -6563.4337   -1739.9516    18923.229    3.5206532 
    5260    736.75492   -6645.9142   -6563.7281   -1924.4888    18932.453    3.5233575 
    5270    736.07807   -6646.0732   -6563.9626   -1867.7434     18939.45    3.5284456 
    5280    742.77442   -6647.0124   -6564.1548   -2105.6238    18944.199    3.5339087 
    5290    739.92428    -6646.851   -6564.3113    -2153.958    18946.479    3.5409469 
    5300    737.44756   -6646.7023   -6564.4389   -2135.1758    18946.184    3.5502111 
    5310    730.41439   -6646.0075   -6564.5286   -2472.6832    18943.268    3.5607538 
    5320    731.79419   -6646.2159   -6564.5832   -2915.3457    18937.351    3.5723348 
    5330    725.35388   -6645.5129   -6564.5985   -2817.4734    18927.939    3.5845299 
    5340    715.54233   -6644.3834   -6564.5636   -1988.0168    18915.162    3.5956224 
    5350    717.59572   -6644.5089     -6564.46   -1355.8061    18899.874    3.6043447 
    5360    721.72914   -6644.8033   -6564.2933   -1120.8765    18882.791    3.6076686 
    5370    716.36781   -6643.9763   -6564.0644   -910.10849    18864.256    3.6055513 
    5380    731.21148   -6645.3532   -6563.7854   -979.31638    18844.456    3.5991683 
    5390    726.17801   -6644.4661   -6563.4599   -473.52008    18823.413    3.5885298 
    5400    725.48425    -6644.029   -6563.1001   -13.724142    18801.641    3.5772952 
    5410    724.04865   -6643.4665   -6562.6978    375.55734    18779.706    3.5725519 
    5420     728.4468   -6643.5207   -6562.2614    740.61426    18758.061    3.5769313 
    5430    739.05308   -6644.2477   -6561.8052    1175.1179    18737.139    3.5873805 
    5440     734.0222   -6643.2315   -6561.3502    1949.7303    18717.486    3.5976384 
    5450    730.52729   -6642.3995   -6560.9081    2578.7614    18699.968    3.6023223 
    5460    735.90404   -6642.5698   -6560.4786    2932.2741    18685.338    3.6033142 
    5470     741.8059   -6642.8269   -6560.0773    3156.7977     18674.05    3.6053603 
    5480    748.03485   -6643.1684    -6559.724    3153.8824    18666.357    3.6084212 
    5490    755.61024   -6643.7143   -6559.4248    3147.0141     18662.31    3.6134623 
    5500    762.06376   -6644.2051   -6559.1958    3216.2463    18661.908    3.6208016 
    5510    753.95046   -6643.1367   -6559.0324    3564.8171    18665.302    3.6280991 
    5520    755.72168   -6643.2228   -6558.9209    3424.9048    18672.833    3.6363756 
    5530    759.53018   -6643.5737   -6558.8469    3132.1788    18684.453    3.6504248 
    5540    755.00415   -6643.0317   -6558.8099      3241.49    18699.956    3.6689373 
    5550    751.49114   -6642.6312   -6558.8013    3496.8671    18719.495    3.6861781 
    5560    767.72084   -6644.4499   -6558.8095    2996.6987    18743.315    3.6981573 
    5570    783.74175    -6646.293   -6558.8655    2559.0112    18770.984    3.7067649 
    5580    761.31245   -6643.9091   -6558.9835      2497.02    18802.057    3.7186686 
    5590    735.33364   -6641.1563   -6559.1287    2069.0826    18836.406    3.7361381 
    5600    713.67702    -6638.833   -6559.2213    1287.8974    18873.579    3.7586982 
    5610    731.24391   -6640.7959   -6559.2246   -212.82241    18912.591    3.7865515 
    5620    749.84435   -6642.7911   -6559.1448   -1588.7468    18951.735    3.8195226 
    5630    741.82133   -6641.7824   -6559.0311   -2509.9398    18989.308    3.8529407 
    5640    738.35651   -6641.2615   -6558.8968   -3047.2291     19024.13    3.8831425 
    5650       737.03    -6640.956   -6558.7392   -3191.9297    19055.495    3.9082141 
    5660    730.33166   -6640.0264   -6558.5568   -3098.2571    19083.169    3.9281083 
    5670    742.06652    -6641.124   -6558.3453   -3307.4028    19107.142    3.9468697 
    5680    732.88431   -6639.8536   -6558.0993   -3565.1185    19127.174    3.9714836 
    5690    719.20931   -6638.0456   -6557.8167   -3946.4577    19142.901    4.0024527 
    5700    716.13664   -6637.3554   -6557.4692   -3988.9475    19153.871    4.0333724 
    5710    718.88761   -6637.2372   -6557.0442   -3991.4503    19159.955    4.0562775 
    5720    723.82254   -6637.2904   -6556.5469   -4031.5845    19161.129    4.0676819 
    5730    731.51933   -6637.5973   -6555.9953    -3900.029    19157.363    4.0726505 
    5740    744.22741   -6638.4341   -6555.4144   -3729.2941     19148.78     4.080098 
    5750    751.17908   -6638.6306   -6554.8354   -3422.7633     19135.61    4.0923833 
    5760     744.2578   -6637.3099   -6554.2869   -2654.0869     19118.28    4.1064344 
    5770    746.50676   -6637.0453   -6553.7713   -2045.0533    19097.654    4.1184761 
    5780     751.8469   -6637.1644   -6553.2948   -1271.2452     19074.52    4.1289077 
    5790    741.51871   -6635.5772   -6552.8597   -124.68617    19049.868     4.138977 
    5800    740.33118   -6635.0523   -6552.4672    352.94378    19025.005    4.1457971 
    5810    745.31192   -6635.2521   -6552.1114   -289.55285    19000.465     4.149896 
    5820    783.90074   -6639.2775   -6551.8322   -1557.8542    18975.501    4.1550856 
    5830    793.43477   -6640.1805   -6551.6717   -1737.1618    18948.809    4.1623495 
    5840    774.53588   -6638.0194   -6551.6188   -1233.9598    18920.142    4.1692573 
    5850      776.071    -6638.209   -6551.6371   -924.31226    18890.024    4.1724345 
    5860    780.52237   -6638.7742   -6551.7057   -341.30198    18858.901    4.1713972 
    5870    778.12499   -6638.6152   -6551.8142    509.10112    18827.491    4.1667477 
    5880    774.54099   -6638.3614   -6551.9602    1553.3674    18796.815    4.1620489 
    5890    750.96656   -6635.8827   -6552.1113    2525.5081    18768.074    4.1619073 
    5900    742.61015   -6635.0811   -6552.2418    2853.7201    18742.355    4.1642895 
    5910     764.1911   -6637.6006    -6552.354    2709.2135    18720.058    4.1659534 
    5920    795.08354   -6641.2048   -6552.5121    2708.1575    18701.027    4.1696603 
    5930    782.13567   -6639.9929   -6552.7445    3663.6922    18685.334    4.1798258 
    5940    776.22689   -6639.6275   -6553.0382    4558.6784    18673.969     4.192772 
    5950    791.70741   -6641.7116   -6553.3954    4771.8494    18667.906    4.2058395 
    5960    792.75148   -6642.2732   -6553.8406    4311.9372    18667.348    4.2204002 
    5970    773.23213   -6640.6084   -6554.3532    3759.0645    18671.799    4.2338777 
    5980    766.46778   -6640.3951   -6554.8944    3318.3335    18680.636     4.243826 
    5990    756.12552   -6639.7731   -6555.4262    2986.8725    18693.344    4.2517669 
    6000    752.32737   -6639.8565   -6555.9333     2872.849    18709.547    4.2599479 
    6010    760.00959   -6641.1883   -6556.4081    2486.1191    18729.075    4.2734197 
    6020    775.98986   -6643.4277   -6556.8649    1422.0308     18751.42    4.2951399 
    6030    777.68977   -6644.0726   -6557.3202    427.14342    18775.408    4.3238289 
    6040    764.41102   -6643.0434   -6557.7722    52.769543    18799.925    4.3566564 
    6050    758.20614     -6642.78   -6558.2009   -383.86859    18824.446    4.3896767 
    6060    751.20415   -6642.3748   -6558.5768   -954.76383    18848.436    4.4200826 
    6070     743.5115   -6641.8316   -6558.8918   -1167.8141    18871.263    4.4464773 
    6080    728.49801   -6640.4085   -6559.1434   -960.96434    18892.661    4.4685952 
    6090    720.90498   -6639.7517   -6559.3337   -412.97172    18912.879    4.4897868 
    6100    715.46847   -6639.2607   -6559.4491    -225.6612    18932.487     4.513096 
    6110    724.21828     -6640.27   -6559.4823    -856.4636     18951.66    4.5358925 
    6120    753.59092   -6643.5184   -6559.4542   -2505.7154    18969.601    4.5566287 
    6130    770.45757   -6645.3697    -6559.424   -3507.9145    18984.534    4.5789977 
    6140    764.12272   -6644.6834   -6559.4443   -3050.1945    18995.322    4.6070762 
    6150     737.5473   -6641.7646   -6559.4901    -2361.294    19002.393    4.6423477 
    6160    717.33106   -6639.5286   -6559.5093   -2139.9537    19006.532    4.6814993 
    6170    703.86861    -6637.978   -6559.4603   -2163.8947    19008.049    4.7168293 
    6180    717.57146   -6639.3756   -6559.3295   -2656.2332    19006.898    4.7421331 
    6190     742.3823   -6641.9548   -6559.1409   -3052.7273    19002.549    4.7583095 
    6200    739.10758   -6641.3797   -6558.9312   -2206.6354    18994.695    4.7715489 
    6210    721.62609    -6639.189   -6558.6906   -901.95709    18984.295      4.78793 
    6220    716.20516   -6638.2801   -6558.3863   -251.67686    18972.811    4.8097519 
    6230    715.26345   -6637.7833   -6557.9945    138.32667    18961.094    4.8344712 
    6240    737.17201   -6639.7607   -6557.5281    199.22792    18949.581    4.8564459 
    6250    743.51938   -6639.9578   -6557.0171    191.84682    18938.372    4.8707245 
    6260    748.84817   -6640.0356   -6556.5005   -120.03281    18927.438    4.8742207 
    6270    778.80169    -6642.882   -6556.0055   -606.15591    18916.416    4.8727207 
    6280    758.15165   -6640.1512   -6555.5782   -254.12947    18904.822    4.8752377 
    6290    725.71564   -6636.1562   -6555.2015    371.08124    18893.024    4.8848518 
    6300    739.11282    -6637.268   -6554.8188    456.14738     18881.66    4.8989291 
    6310    753.44026    -6638.477   -6554.4296    656.72878    18870.927    4.9176665 
    6320    758.38724   -6638.6745   -6554.0752     903.5547    18861.048    4.9372292 
    6330    764.36469   -6639.0454   -6553.7794    794.58501    18852.259     4.947496 
    6340     771.9491   -6639.6641    -6553.552    189.13027    18844.408    4.9486923 
    6350    781.69268   -6640.6083   -6553.4093   -548.49713     18836.79     4.948463 
    6360    773.82404   -6639.6747   -6553.3535   -431.10982    18828.658    4.9503556 
    6370    763.31311   -6638.5007   -6553.3519    282.24155    18820.125    4.9508147 
    6380     762.7415   -6638.4625   -6553.3775    912.34115    18811.952    4.9460563 
    6390    756.20955   -6637.7708   -6553.4145    1649.2206    18804.922    4.9374782 
    6400     766.3349   -6638.9529   -6553.4671    2096.5187     18799.85    4.9293308 
    6410    774.04914   -6639.8974   -6553.5511    2119.5931    18797.229    4.9286665 
    6420    772.09948   -6639.8059   -6553.6771    1666.8176    18797.091    4.9369788 
    6430    762.19646   -6638.8517   -6553.8275    1048.2366    18798.922    4.9502088 
    6440     752.1612   -6637.8855   -6553.9808    882.85845     18802.03    4.9642031 
    6450    752.17407   -6638.0309   -6554.1248     1246.164    18806.246     4.974659 
    6460    763.34046   -6639.4213   -6554.2695    985.44139    18811.832    4.9786438 
    6470    760.39587   -6639.2476   -6554.4243    828.03512    18818.587    4.9767548 
    6480    761.49317   -6639.5377    -6554.592    1095.3719    18826.363    4.9719117 
    6490     772.2016   -6640.9143    -6554.774    1312.3374    18835.416    4.9702496 
    6500    777.76825    -6641.754   -6554.9928    939.31089    18845.933    4.9765276 
    6510    756.50754   -6639.6305    -6555.241    534.90374    18857.551    4.9921616 
    6520    731.36533   -6637.0578   -6555.4729    8.0190005    18869.764    5.0124873 
    6530    726.14043   -6636.6502   -6555.6481   -467.86043    18881.971    5.0303465 
    6540    736.61719   -6637.9335   -6555.7627   -854.66576    18893.603    5.0452948 
    6550    751.23244   -6639.6467   -6555.8456   -1236.8773    18904.194    5.0609288 
    6560    754.67925   -6640.1076    -6555.922   -1438.6738    18913.315    5.0791797 
    6570    744.28837   -6639.0263   -6555.9998   -1663.8987    18920.677    5.0981915 
    6580    740.52972   -6638.6708   -6556.0636   -1662.8869    18926.064    5.1161336 
    6590    759.89693   -6640.8837    -6556.116   -1912.2149    18929.416    5.1305161 
    6600    770.23975   -6642.1128   -6556.1914   -1586.8146    18930.551    5.1404927 
    6610    752.85467   -6640.2865   -6556.3045   -690.39888    18929.837    5.1490232 
    6620       736.49   -6638.5799   -6556.4233    431.94719     18928.34     5.160797 
    6630    737.82153   -6638.8224   -6556.5173    696.68809    18927.268     5.178633 
    6640    744.02364   -6639.5813   -6556.5843    567.73339    18927.005    5.2016154 
    6650    749.36198    -6640.239   -6556.6466    327.07615     18927.42    5.2266939 
    6660     738.8182   -6639.1145   -6556.6982    248.64759    18928.263    5.2521703 
    6670    747.41881   -6640.1157     -6556.74    255.93947    18929.416    5.2763194 
    6680    753.73888   -6640.8542   -6556.7735      278.405    18930.888    5.2986767 
    6690    760.20625   -6641.6267   -6556.8245    234.51111    18932.687    5.3191645 
    6700    735.91302   -6638.9815   -6556.8893    553.01038    18934.812    5.3365849 
    6710    724.60152   -6637.7659   -6556.9355    405.47624    18937.578    5.3468561 
    6720    739.50963   -6639.4344    -6556.941   -628.09765    18940.745    5.3530085 
    6730    736.57837   -6639.0788   -6556.9124   -1209.5073    18943.218    5.3611358 
    6740    729.74178   -6638.2485   -6556.8447   -925.48073    18944.359    5.3692794 
    6750    738.16435   -6639.0583    -6556.715   -519.70852    18944.414     5.373697 
    6760    739.31113     -6638.98   -6556.5087   -495.03643    18943.805    5.3770171 
    6770    732.66037   -6637.9511   -6556.2217   -675.65496    18942.587    5.3866858 
    6780    735.88875   -6637.9224   -6555.8329   -1215.5174      18940.5    5.4057352 
    6790    750.84867   -6639.0928   -6555.3346    -1442.339    18936.987     5.427137 
    6800    766.59652   -6640.2715   -6554.7565   -1139.2591    18931.779    5.4424713 
    6810    773.19521   -6640.3981    -6554.147   -162.33709     18925.27     5.447802 
    6820    776.36805   -6640.1517   -6553.5467     846.7273    18918.551    5.4419604 
    6830    787.11877   -6640.7908   -6552.9865    1116.1228    18912.731    5.4267201 
    6840    797.49301   -6641.4649   -6552.5033    864.14393    18908.196    5.4130445 
    6850    803.44747   -6641.7649   -6552.1392    292.53487     18904.63    5.4111109 
    6860    778.54962   -6638.7423   -6551.8939    921.71539    18901.542    5.4211095 
    6870    778.63774   -6638.5872    -6551.729    1528.8349    18899.536    5.4358566 
    6880    794.54856   -6640.2694   -6551.6363    1724.1465    18899.298    5.4540333 
    6890    771.91981   -6637.7347   -6551.6259    2445.8403    18901.201    5.4751019 
    6900    780.45418    -6638.751   -6551.6901    2548.8472    18905.984    5.4914828 
    6910     808.4475   -6642.0262   -6551.8427    1974.5299    18913.801    5.5042738 
    6920    795.20508   -6640.8344    -6552.128    1883.9988    18924.126     5.521681 
    6930    763.08856   -6637.6365   -6552.5129    2275.2408    18936.885    5.5457363 
    6940    769.32242   -6638.7759   -6552.9568    2041.9543    18952.429    5.5737064 
    6950    771.17659   -6639.4769    -6553.451    1595.8301     18970.56    5.6060472 
    6960    759.27906   -6638.6861   -6553.9874    1068.5634    18990.798    5.6375999 
    6970    756.78305   -6638.9479   -6554.5276    82.191728    19012.505    5.6613915 
    6980    775.07292   -6641.5384   -6555.0779    -894.3236    19034.543    5.6769779 
    6990    771.50999   -6641.7158   -6555.6527   -963.43562    19055.819    5.6923044 
    7000    756.20654   -6640.6017   -6556.2458   -467.79694    19076.185    5.7120001 
    7010    731.31355   -6638.3699   -6556.7908    -133.4163    19096.168    5.7339349 
    7020    733.92968   -6639.1223   -6557.2513   -466.75316    19116.115    5.7534781 
    7030    740.91601   -6640.2827   -6557.6324   -1064.8373    19135.666    5.7713239 
    7040    739.99364   -6640.4978   -6557.9504   -1502.8897    19154.133    5.7913136 
    7050    734.10479   -6640.1045    -6558.214   -1498.5683    19171.003    5.8136737 
    7060    735.57432   -6640.4683   -6558.4139   -1602.1866      19186.2    5.8340337 
    7070    754.74503   -6642.7674   -6558.5744   -2121.0309    19199.535    5.8496566 
    7080    753.71062   -6642.7959   -6558.7184   -2103.4805    19210.458     5.863259 
    7090    752.07772   -6642.7617   -6558.8663   -2015.2722    19218.891    5.8762117 
    7100    737.84891   -6641.3142   -6559.0061    -1793.903    19224.945    5.8907546 
    7110    732.99801   -6640.8855   -6559.1185   -2032.2193    19228.796    5.9123105 
    7120    734.30801   -6641.1082    -6559.195   -2840.8257    19230.109    5.9449694 
    7130    715.23832   -6639.0148   -6559.2289    -3322.357     19227.96    5.9832565 
    7140    708.25494   -6638.2132   -6559.2063   -3822.8528    19221.632    6.0176974 
    7150    701.75968   -6637.3899   -6559.1075   -3702.1293    19210.548    6.0455626 
    7160    697.89381   -6636.7736   -6558.9225   -3218.1391    19194.755    6.0662402 
    7170    713.30805   -6638.2118   -6558.6412   -2784.7173    19174.762    6.0766585 
    7180      735.083    -6640.289   -6558.2894   -2304.8537    19151.059    6.0810047 
    7190    729.55926   -6639.2721   -6557.8886    -1385.386    19124.288     6.088345 
    7200     738.3718   -6639.8237   -6557.4572   -1046.1331    19095.399    6.1010301 
    7210    749.72112   -6640.6384   -6557.0059   -584.88109    19064.913    6.1167559 
    7220    758.60244    -6641.188   -6556.5648    10.095115    19033.387    6.1320163 
    7230    754.41858   -6640.3057   -6556.1491    771.67696    19001.568    6.1420578 
    7240    755.28644   -6640.0179   -6555.7645    1396.1154    18970.355    6.1433437 
    7250    764.30918   -6640.6758    -6555.416    1996.5624     18940.53    6.1423763 
    7260    758.74399   -6639.7578   -6555.1187    2705.5635    18912.845    6.1487841 
    7270    747.81457   -6638.2874   -6554.8676    3222.7783    18888.113    6.1642641 
    7280    746.55705   -6637.9244   -6554.6449    3366.4899    18866.962    6.1822819 
    7290    750.72107    -6638.191   -6554.4469    3384.2161    18849.627    6.1943667 
    7300    751.76054   -6638.1394   -6554.2794    3745.8447    18836.215    6.1986629 
    7310    755.80517   -6638.4547   -6554.1435    3686.5739    18827.102    6.2015728 
    7320    756.63975   -6638.4466   -6554.0423    3227.7384    18822.251    6.2118942 
    7330     771.0486    -6639.998   -6553.9864    2819.8681    18821.229    6.2302354 
    7340    775.83146   -6640.5249   -6553.9797    2326.7411    18823.573    6.2540105 
    7350    771.13432   -6640.0607   -6554.0395    2205.3143    18828.762    6.2821292 
    7360    754.28443   -6638.2826   -6554.1411    2745.6293    18836.731    6.3059606 
    7370    733.29455   -6636.0449   -6554.2448    3766.0903    18848.164    6.3144077 
    7380    737.84582   -6636.6341   -6554.3263    4120.4985    18864.208    6.3069976 
    7390    751.41833   -6638.2134   -6554.3916    3280.4714    18885.328    6.2963271 
    7400    741.44671   -6637.1548   -6554.4453    2088.0302    18910.681    6.2930675 
    7410    733.88429   -6636.3382   -6554.4723    1359.5204    18938.985    6.3013162 
    7420    739.78133   -6636.9862   -6554.4625    1002.8332    18969.384     6.324333 
    7430    734.20388   -6636.3193   -6554.4177    933.36781    19001.457     6.357374 
    7440     738.2854   -6636.7037   -6554.3468    1146.3426    19035.164    6.3905321 
    7450    756.33922   -6638.6351   -6554.2643    1053.4793    19070.687    6.4244078 
    7460    757.42451   -6638.6835   -6554.1917    741.23719     19107.93    6.4550711 
    7470    750.76905   -6637.8811   -6554.1317    244.56941    19146.507    6.4752824 
    7480     755.6012   -6638.3621   -6554.0736   -387.96622    19185.786    6.4927407 
    7490    731.29723   -6635.5783    -6554.001   -992.45625    19224.977    6.5153126 
    7500    722.30055   -6634.4563   -6553.8826   -2203.3372    19263.205     6.544102 
    7510    734.58011   -6635.6228   -6553.6793   -3635.7339    19298.928    6.5799921 
    7520    719.82103   -6633.7123   -6553.4152   -3989.7856    19330.444    6.6225033 
    7530     709.2118   -6632.2129   -6553.0993   -3949.0196    19357.168    6.6655704 
    7540    733.21936   -6634.5023   -6552.7106   -4709.3267    19378.927    6.7055701 
    7550    748.71138   -6635.7847   -6552.2648   -5201.6424    19394.875    6.7405563 
    7560    755.25693     -6636.08     -6551.83   -5234.4319    19404.346    6.7662219 
    7570    746.36258   -6634.6853   -6551.4274   -4682.0532     19407.31     6.780746 
    7580    741.32292   -6633.7405   -6551.0448   -4014.2485    19404.395    6.7849897 
    7590    764.53728   -6635.9566   -6550.6713   -4087.1461    19396.318    6.7782771 
    7600    783.81388   -6637.7782   -6550.3426   -4100.7126    19383.085    6.7640302 
    7610     776.7724   -6636.7506   -6550.1004     -3519.62    19364.732    6.7486865 
    7620    770.07643   -6635.8394   -6549.9362   -2782.5018    19341.928    6.7366863 
    7630    765.56629   -6635.2139   -6549.8139    -1498.971    19315.688       6.7333 
    7640    749.46952    -6633.318   -6549.7136   -337.45986    19287.533    6.7425772 
    7650    737.37309   -6631.8576   -6549.6025    381.89839    19258.906    6.7598284 
    7660    739.89118   -6632.0019   -6549.4659    419.61598    19230.683    6.7745166 
    7670    753.73314   -6633.3977   -6549.3177   -281.49342    19202.925    6.7807789 
    7680    782.89053    -6636.541   -6549.2083   -1413.0574     19174.78    6.7783395 
    7690     783.9736   -6636.6252   -6549.1717   -1553.2773    19145.036    6.7700464 
    7700    777.61191   -6635.9587   -6549.2149   -977.39105    19113.494    6.7589527 
    7710    766.20641   -6634.7711   -6549.2997   -365.37713    19080.828    6.7490241 
    7720    783.55217   -6636.8378   -6549.4314   -202.25668    19047.755     6.746011 
    7730    775.29155   -6636.1114   -6549.6265    230.44584    19014.581    6.7500264 
    7740    740.48369   -6632.4562   -6549.8542    1429.1982    18981.914    6.7556469 
    7750    735.00094   -6632.0387   -6550.0483    2237.1627     18951.09    6.7569496 
    7760    763.54673   -6635.4055   -6550.2307    2322.8798     18923.02    6.7513747 
    7770     775.4639   -6636.9674   -6550.4632    2646.4572      18897.9     6.745176 
    7780     768.9561   -6636.5564   -6550.7782    3273.8337    18876.126     6.742715 
    7790    768.07105   -6636.8841   -6551.2046    3414.2395    18858.312    6.7386524 
    7800    758.62681   -6636.4096   -6551.7837    3369.7061    18844.644    6.7318961 
    7810    750.95201    -6636.325   -6552.5551    3400.1448    18835.062    6.7282683 
    7820    745.19878    -6636.686   -6553.5579     3462.254    18829.574    6.7324068 
    7830    738.32893   -6637.1522   -6554.7905    3017.6704    18828.183    6.7431161 
    7840    727.11277   -6637.2347   -6556.1242     1771.026    18830.306    6.7530297 
    7850     724.2295   -6638.1345   -6557.3456    515.49031     18834.52    6.7561374 
    7860    714.57124   -6638.0076   -6558.2961     309.6444    18839.459    6.7528646 
    7870    709.17062   -6638.0305   -6558.9215    390.42732    18844.775    6.7426392 
    7880    724.36263   -6640.1001   -6559.2963    144.11929    18850.509    6.7271598 
    7890    740.66016   -6642.1455   -6559.5238   -112.63982    18856.395      6.71739 
    7900    739.25669   -6642.1456   -6559.6804    700.49781    18862.272    6.7243255 
    7910    729.61064   -6641.1744   -6559.7852     1552.419    18868.993    6.7483832 
    7920    733.04827     -6641.62   -6559.8474    1312.5633    18877.419    6.7788234 
    7930     733.3271   -6641.6689   -6559.8652    725.79079    18887.363    6.8029957 
    7940    742.70007   -6642.6965   -6559.8471   -201.02783    18898.104     6.815746 
    7950    728.03644   -6641.0083   -6559.7948   -353.06788    18908.655    6.8201989 
    7960     725.3253   -6640.6126   -6559.7015    89.550476    18918.827    6.8188955 
    7970    737.10461    -6641.787   -6559.5619     36.41044    18929.027    6.8172202 
    7980    725.01214   -6640.2594   -6559.3832    227.43348    18939.298    6.8227182 
    7990    705.32628   -6637.8391   -6559.1589    759.54599    18949.876    6.8364623 
    8000    709.22248   -6637.9692   -6558.8544    597.73887    18961.269    6.8570919 
    8010    728.54876   -6639.7283   -6558.4576    67.332019    18973.323    6.8849689 
    8020    740.14349   -6640.5585   -6557.9943   -406.59288    18985.454    6.9184534 
    8030    744.95364   -6640.5929   -6557.4922   -1087.3451    18997.032    6.9498388 
    8040    724.36685   -6637.7953   -6556.9911   -965.67251    19007.373    6.9726689 
    8050    729.49702    -6637.849   -6556.4725   -749.64601    19016.538    6.9865799 
    8060     736.8865   -6638.1194   -6555.9186   -545.01438    19024.791    6.9953864 
    8070    733.07649   -6637.1431   -6555.3673   -360.06759    19032.368    7.0037594 
    8080    725.44554   -6635.7393   -6554.8147   -296.69076    19039.503     7.014071 
    8090    727.81988   -6635.4419   -6554.2525   -769.94506    19046.211    7.0248582 
    8100    738.87559   -6636.1014   -6553.6787   -1340.9589    19051.984    7.0347528 
    8110    763.08896   -6638.2451   -6553.1214   -2437.3779    19056.063    7.0440087 
    8120    773.33247    -6638.892   -6552.6256    -3026.038    19057.248    7.0516989 
    8130    769.56221   -6638.0768    -6552.231   -2372.9327    19054.884    7.0585218 
    8140    730.55613    -6633.399   -6551.9044   -659.54957     19049.78    7.0650839 
    8150    715.39054   -6631.3809    -6551.578    269.09015    19043.784    7.0673556 
    8160    748.60123   -6634.7192   -6551.2116    30.678835    19037.991    7.0661408 
    8170    772.22585   -6636.9901   -6550.8471   -660.48722    19032.182    7.0692453 
    8180    760.22143   -6635.3446   -6550.5408   -524.21806    19025.673    7.0801969 
    8190    747.72362   -6633.6896   -6550.2799    329.97652    19018.634    7.0966083 
    8200    762.72301   -6635.1184   -6550.0355    420.80458    19011.903    7.1149074 
    8210    785.91575   -6637.4898   -6549.8197    208.60008    19005.665    7.1354932 
    8220    792.74137   -6638.1139   -6549.6824   -109.84953    18999.667    7.1559961 
    8230    768.83912   -6635.3899   -6549.6247   -444.24159    18993.548    7.1709349 
    8240    765.90349   -6635.0585   -6549.6209   -940.53174    18986.877    7.1781064 
    8250    765.03276   -6634.9924   -6549.6518   -1011.7924    18979.118    7.1851376 
    8260    752.47302   -6633.6455    -6549.706   -113.79699    18970.261    7.1955816 
    8270    753.29109   -6633.8044   -6549.7737    1366.2669    18961.332    7.2021602 
    8280    739.82674   -6632.3638    -6549.835     2712.486    18954.046     7.199143 
    8290    755.32423     -6634.15   -6549.8924     2472.916    18949.851    7.1894246 
    8300    775.03982   -6636.4249    -6549.968    1442.3986    18948.551    7.1822829 
    8310    778.68332   -6636.9649   -6550.1016    713.90298    18949.031    7.1808665 
    8320    784.05269   -6637.7809   -6550.3186    292.36599    18950.385    7.1804599 
    8330    781.48384   -6637.8127    -6550.637    384.34089    18952.138    7.1762442 
    8340    780.67571   -6638.1454   -6551.0599    354.55981     18954.34    7.1682151 
    8350    792.45639   -6640.0026   -6551.6029    177.97607    18956.959    7.1638491 
    8360    771.34664   -6638.3053   -6552.2604     734.9943    18959.889    7.1682265 
    8370     762.1075   -6637.9984   -6552.9841    1063.3529    18963.685     7.176845 
    8380    760.31707   -6638.5466   -6553.7321    883.77841    18968.733    7.1903386 
    8390    734.89569   -6636.4285   -6554.4498    1217.4788    18974.958     7.208983 
    8400    718.67242   -6635.2291   -6555.0601    989.95304     18982.62    7.2237184 
    8410    723.80122    -6636.285   -6555.5439    372.75741     18991.47    7.2299653 
    8420     731.9536   -6637.5619   -6555.9114     101.0859     19000.84    7.2319935 
    8430    742.13346   -6638.9873   -6556.2012    52.474039    19010.383    7.2364521 
    8440    743.62765   -6639.3847   -6556.4319   -103.58438    19020.022    7.2469784 
    8450    752.14026   -6640.5313   -6556.6289   -572.71678    19029.539    7.2630095 
    8460    743.13087   -6639.6955   -6556.7981   -773.60005     19038.45    7.2836964 
    8470    742.07843   -6639.7193   -6556.9393   -1188.3751    19046.441    7.3058084 
[...]
   22890    720.57316   -6635.6001   -6555.2191     -904.169    19096.435    20.645561 
   22900    726.49236   -6635.8621   -6554.8208   -508.28444    19101.499     20.64977 
   22910    739.70641   -6636.9219   -6554.4065   -220.19957    19105.902     20.67453 
   22920    747.40751   -6637.3659   -6553.9915   -94.740148    19109.995     20.72023 
   22930    759.74717   -6638.3476   -6553.5967   -347.51632    19113.916    20.776718 
   22940    777.94791   -6640.0295   -6553.2483   -1075.8865    19117.343     20.83031 
   22950    780.47381   -6640.0434   -6552.9803    -1497.533    19119.481    20.868388 
   22960    771.04999    -6638.813   -6552.8013   -1509.4798    19119.823    20.883779 
   22970    758.05153   -6637.2438   -6552.6821   -1571.4286    19118.318     20.87265 
   22980    756.93622   -6637.0325   -6552.5951   -1537.6004    19114.941    20.840805 
   22990    759.71181   -6637.2797   -6552.5327   -1525.5169    19109.708    20.811554 
   23000    759.34811   -6637.2051   -6552.4987   -993.22798    19102.712    20.807092 
   23010    752.64062     -6636.44   -6552.4818   -183.30039    19094.577    20.829161 
   23020    758.00193   -6637.0326   -6552.4763    242.19703    19086.228    20.869403 
   23030    767.31012   -6638.0837   -6552.4891   -31.755236    19078.147    20.918095 
   23040    775.83805   -6639.0885   -6552.5426   -552.96308    19070.052     20.96654 
   23050     774.4052   -6639.0395   -6552.6534   -142.03655    19061.435    21.010293 
   23060    752.71446   -6636.7749   -6552.8084    1001.4732    19052.763    21.047253 
   23070    727.18306   -6634.0779   -6552.9596    1745.8995    19045.316    21.072952 
   23080    729.93789   -6634.4941   -6553.0684    1794.9827    19039.974    21.075162 
   23090    757.01198   -6637.6048    -6553.159    1219.0581    19036.739    21.055038 
   23100    738.35993   -6635.6141    -6553.249    1560.0736    19035.113    21.035826 
   23110    725.44135   -6634.2492   -6553.3251    1824.5805    19035.371    21.035942 
   23120    752.89787   -6637.3522   -6553.3653     1575.753    19037.799    21.056471 
   23130     780.0845    -6640.426   -6553.4064     1247.947    19042.134    21.091607 
   23140    775.79836    -6640.048   -6553.5066    1139.4569    19048.014    21.130064 
   23150    765.95314   -6639.1133   -6553.6701    680.93961    19055.206    21.156314 
   23160    760.35181   -6638.7085   -6553.8901    200.12374    19063.214    21.168472 
   23170    763.27811   -6639.3221   -6554.1773   -513.15103    19071.409    21.173493 
   23180    740.05106   -6637.0916   -6554.5378   -958.86505    19079.004    21.175114 
   23190    720.87406   -6635.3591   -6554.9445    -1301.488     19085.43    21.173913 
   23200    726.09743    -6636.387   -6555.3897   -1466.2238     19090.26    21.165445 
   23210    712.31169   -6635.3212   -6555.8618   -1002.4316    19093.355    21.147842 
   23220    710.17499   -6635.5739   -6556.3528   -960.90682    19095.158    21.124637 
   23230    706.70604   -6635.6729   -6556.8388   -1283.4785    19095.744    21.100174 
   23240    704.76196   -6635.9316   -6557.3143   -1318.4347     19094.79    21.086598 
   23250    704.83422   -6636.3851   -6557.7598   -737.40981    19092.315    21.095452 
   23260    707.34249   -6637.0662    -6558.161    -158.7775    19088.945    21.122764 
   23270    711.18015   -6637.8445   -6558.5113    217.82822    19085.387    21.154712 
   23280    711.52814   -6638.1771   -6558.8051    25.347256    19082.068    21.182018 
   23290      715.937   -6638.9021   -6559.0383   -559.85381    19078.768    21.198146 
   23300    715.13513   -6638.9875   -6559.2131   -939.05882    19074.844    21.205027 
   23310    705.03269   -6637.9739   -6559.3264   -1175.0352    19069.814     21.21201 
   23320    695.00465   -6636.8861   -6559.3573   -1193.1021    19063.417    21.220406 
   23330    695.16743   -6636.8256   -6559.2787   -906.61896    19055.649     21.22486 
   23340    709.18467   -6638.1871   -6559.0765   -512.52281    19046.829    21.224242 
   23350    715.66598   -6638.5816    -6558.748    -62.50634     19037.47    21.224012 
   23360    732.28979   -6640.0061    -6558.318   -205.61757    19028.027    21.220176 
   23370    746.20327   -6641.0374   -6557.7973   -567.31624    19018.393     21.21121 
   23380    760.91913   -6642.1116   -6557.2299   -998.08441    19008.128    21.202837 
   23390    739.82277   -6639.1798   -6556.6514   -559.26758     18996.83    21.199704 
   23400     734.4566   -6637.9939   -6556.0642    240.99993    18984.982    21.196807 
   23410    763.67297    -6640.636   -6555.4471    377.47597    18973.422    21.184517 
   23420    769.09901   -6640.6506   -6554.8565    750.07886     18962.45    21.156759 
   23430    758.31659   -6638.9322   -6554.3408    982.29901    18952.432    21.122271 
   23440    743.72867   -6636.8447   -6553.8806    1222.2667    18943.668    21.103753 
   23450    747.14057   -6636.7911   -6553.4464    1264.2916    18936.417    21.106865 
   23460    752.61042    -6636.992   -6553.0372    691.63841    18930.654    21.112967 
   23470    751.85583    -6636.541   -6552.6703    239.88758    18925.775     21.10191 
   23480    756.61944    -6636.746    -6552.344     289.6633    18921.287    21.072428 
   23490    770.03899   -6637.9654   -6552.0664     459.0769    18917.182    21.036399 
   23500    764.31039   -6637.1021   -6551.8421    1152.4523    18913.732    21.007788 
   23510     771.8599   -6637.7735   -6551.6713    1583.8119    18911.661     20.99053 
   23520    786.50008   -6639.2937   -6551.5585    1651.7564    18911.467    20.987863 
   23530    779.22719   -6638.4498   -6551.5258    1935.6144    18913.289    21.005316 
   23540    771.10944   -6637.5815   -6551.5631    1837.8723    18917.358    21.045559 
   23550    763.20655   -6636.7883   -6551.6515     1489.796    18923.557    21.104348 
   23560    749.12883   -6635.3271   -6551.7607    1472.8541    18931.563    21.172976 
   23570    759.20707   -6636.5759   -6551.8852    1353.4167    18941.271    21.251611 
   23580    755.90452   -6636.3374   -6552.0151    1377.9468    18952.575    21.329395 
   23590    765.56167    -6637.562   -6552.1624    1125.9508     18965.45     21.38448 
   23600    769.33298   -6638.1532   -6552.3329    851.83094     18979.63    21.414025 
   23610    759.06353   -6637.2185   -6552.5438    1232.0944    18994.875      21.4365 
   23620    744.67077   -6635.8459   -6552.7768     1529.297     19011.53    21.469007 
   23630    751.67739   -6636.8616   -6553.0108    844.00587    19029.863    21.523038 
   23640    756.04847   -6637.5763    -6553.238   -129.74103    19049.112    21.592384 
   23650    734.69914   -6635.4076   -6553.4508   -413.03771    19068.222     21.65468 
   23660    729.63543   -6635.0244   -6553.6325   -676.93661    19086.754    21.697554 
   23670    739.93199   -6636.3173   -6553.7767   -908.98751    19104.394    21.726102 
   23680    740.94481   -6636.5469   -6553.8933   -1214.8565    19120.831    21.754918 
   23690    743.56877   -6636.9357   -6553.9894   -1440.7479    19135.719    21.790803 
   23700    748.18943    -6637.538   -6554.0763   -1682.5604    19148.756    21.819561 
   23710    743.97282   -6637.1543    -6554.163   -1773.5439    19159.681    21.829556 
   23720    744.78012   -6637.3308   -6554.2495   -2076.2473    19168.363    21.822697 
   23730    755.41676   -6638.6141   -6554.3462   -2854.4871    19174.399    21.811371 
   23740    757.81427   -6639.0132   -6554.4779   -3340.1643    19176.943     21.80807 
   23750    747.88512   -6638.0854   -6554.6577   -3297.8933     19175.43    21.809507 
   23760    736.84012   -6637.0798   -6554.8841   -2800.9644    19169.933    21.807097 
   23770    725.46681   -6636.0669     -6555.14   -2061.8985    19161.105    21.791862 
   23780    730.33584   -6636.8906   -6555.4206   -2032.1057    19149.738    21.767024 
   23790    747.61785   -6639.1556   -6555.7577    -2589.951     19135.89    21.743125 
   23800    743.25306   -6639.0872   -6556.1762   -2879.2916    19119.015    21.722341 
   23810    729.01097   -6637.9866   -6556.6644    -2697.179    19098.792    21.695569 
   23820    706.82256   -6636.0131    -6557.166   -1925.1749    19075.498    21.658339 
   23830    697.14409   -6635.3787   -6557.6112   -1313.7085    19050.021    21.612847 
   23840    716.73411   -6637.9432   -6557.9905   -976.59962    19023.128    21.565575 
   23850    739.78225    -6640.853   -6558.3291   -866.85473    18995.264    21.525818 
   23860    746.43523   -6641.9339   -6558.6679   -926.10463    18966.587    21.504057 
   23870    737.71851   -6641.3002   -6559.0065   -313.05406    18937.135    21.507916 
   23880    734.78552   -6641.2814    -6559.315    760.86988    18907.651    21.523703 
   23890    732.98305   -6641.3459   -6559.5805    1740.3578    18879.371    21.527918 
   23900    730.02999   -6641.2437   -6559.8078    2244.7632    18853.394    21.514453 
   23910    735.54514   -6642.0483   -6559.9972    2424.7669    18830.332    21.488915 
   23920    752.68354   -6644.1398   -6560.1768     2504.483    18810.384    21.462351 
   23930    746.44963   -6643.6326   -6560.3651    3082.9974    18793.665    21.437297 
   23940    734.32888   -6642.4656   -6560.5501    3393.7423    18780.696    21.411192 
   23950    728.46904   -6641.9805   -6560.7187    3295.4755    18771.797       21.392 
   23960    702.44505   -6639.2022   -6560.8434    3585.8301    18766.894    21.393831 
   23970    686.88676   -6637.5027   -6560.8794    3728.2434    18766.219    21.412498 
   23980    716.99337   -6640.7896   -6560.8079     3193.155    18769.871    21.431708 
   23990    748.54129   -6644.1585   -6560.6576     2528.942    18777.239    21.444064 
   24000    753.00952   -6644.4823   -6560.4829    2345.5037    18787.581    21.453225 
   24010    757.35746   -6644.7907   -6560.3063    1777.0819    18800.544    21.473236 
   24020    755.19315   -6644.3692   -6560.1262    1053.9714    18815.485    21.511678 
   24030    733.10543   -6641.7176   -6559.9386    938.95877    18831.624    21.561731 
   24040     709.7475   -6638.8804    -6559.707    1099.2594    18848.786    21.616587 
   24050    706.87928   -6638.2374   -6559.3839    1082.1367    18867.122    21.676214 
   24060     714.5899   -6638.6553   -6558.9417    448.68923    18886.545    21.742405 
   24070    736.94792   -6640.5894   -6558.3818   -421.60927    18906.353    21.811092 
   24080    738.97013   -6640.1784   -6557.7452   -898.51391    18925.576    21.874136 
   24090    723.22799   -6637.7575   -6557.0803   -884.42269    18943.641       21.923 
   24100    730.75188   -6637.9121   -6556.3956   -665.84841    18960.538    21.953843 
   24110    732.15334   -6637.3775   -6555.7047   -153.20406    18976.543    21.968696 
   24120    715.62788   -6634.8785   -6555.0492    551.16859    18992.274    21.981824 
   24130    728.11901   -6635.6528     -6554.43    506.11059    19008.471    22.014096 
   24140    760.04942   -6638.6394   -6553.8547     466.1762    19025.166     22.07037 
   24150    758.40665   -6637.9846   -6553.3832    906.58162    19042.366    22.139626 
   24160    741.89671   -6635.7783   -6553.0186     1010.225    19060.514    22.214209 
   24170    740.28709   -6635.2789   -6552.6988    422.65569    19079.687    22.284389 
   24180    744.46771   -6635.4419   -6552.3954   -112.37564    19099.244    22.345293 
   24190    743.58003   -6635.0624   -6552.1149   -202.51152    19118.566     22.39756 
   24200    741.49831   -6634.5721   -6551.8568   -185.65183    19137.495    22.438715 
   24210    744.84012   -6634.6977   -6551.6097   -458.98919    19156.011    22.464283 
   24220     751.1071   -6635.1541   -6551.3669   -977.97123    19173.777    22.477524 
   24230    769.34908   -6636.9638   -6551.1418   -1730.4447    19190.154    22.483192 
   24240    779.77656   -6637.9464   -6550.9612    -2154.345    19204.293    22.492573 
   24250    767.03403    -6636.408   -6550.8442   -2008.3527    19215.722    22.524381 
   24260    768.49462   -6636.5102   -6550.7834   -2323.8246    19224.535    22.574178 
   24270    759.69748   -6635.5051   -6550.7597   -3068.7174    19230.371    22.615434 
   24280    756.18181   -6635.1249   -6550.7717   -3244.9538    19232.451    22.629682 
   24290    762.59342   -6635.8784     -6550.81   -3170.8736    19230.536    22.621888 
   24300     766.0261    -6636.336   -6550.8846   -3032.1568    19224.746    22.606473 
   24310    774.57965   -6637.4189   -6551.0134   -2948.1853    19215.267    22.595364 
   24320    763.29424   -6636.3474   -6551.2007   -2512.7855    19202.299    22.597521 
   24330    740.86396   -6634.0581   -6551.4136   -2228.9129    19186.354    22.606431 
   24340    771.06188   -6637.6516   -6551.6385   -2461.7821    19167.779    22.607504 
   24350    800.57004   -6641.2318    -6551.927   -2076.6233     19146.46    22.596804 
   24360    788.79056   -6640.3137   -6552.3229   -1083.9393    19122.884    22.581233 
   24370     762.6677   -6637.8674   -6552.7906    -25.37368    19098.274     22.55663 
   24380    764.05582     -6638.53   -6553.2984     459.7711    19073.854    22.519372 
   24390    769.30349   -6639.6684   -6553.8514    840.09021    19050.274    22.483573 
   24400    751.61318   -6638.2731   -6554.4295    1381.7412    19028.014    22.462305 
   24410     750.6283   -6638.7269   -6554.9932    1539.9363    19007.668    22.446667 
   24420    768.20001   -6641.2527   -6555.5589    1427.4299    18989.407    22.427827 
   24430      774.462   -6642.5253   -6556.1329    1582.0341    18973.119    22.409449 
   24440    761.08419   -6641.6029   -6556.7028     2193.312    18958.991    22.391658 
   24450    755.00224   -6641.4466    -6557.225    2331.5536    18947.594    22.367203 
   24460    769.47824   -6643.5489   -6557.7124    2110.0324     18939.07     22.33488 
   24470    738.61938   -6640.5347   -6558.1406    2565.4136    18933.245    22.303668 
   24480    732.39223   -6640.1791   -6558.4796    2357.6184    18930.465    22.278297 
   24490    731.02997   -6640.2815    -6558.734    2012.9837    18930.521    22.264405 
   24500    724.11609   -6639.6883   -6558.9121    2172.9936    18933.047    22.270309 
   24510    738.27269   -6641.3831   -6559.0277     2051.431    18938.114     22.29811 
   24520    755.29357   -6643.3636   -6559.1095    1726.9714    18945.554    22.344415 
   24530    749.22532   -6642.7642    -6559.187    1666.7752    18955.014    22.398543 
   24540    736.55283   -6641.4175    -6559.254    1507.8596    18966.365    22.451879 
   24550    736.99755    -6641.508   -6559.2948    1262.7368    18979.409    22.500258 
   24560    735.48603   -6641.3434   -6559.2989    731.62076    18993.833    22.539489 
   24570    745.59872   -6642.4434   -6559.2708   -406.04672    19008.941    22.568162 
   24580     755.3764   -6643.4866   -6559.2232   -1288.8972    19023.468    22.590593 
   24590    766.25157   -6644.6673   -6559.1907    -1917.531    19036.313    22.613948 
   24600    741.35288   -6641.8772   -6559.1782   -1269.4979    19046.873    22.643715 
   24610    719.76062   -6639.4448   -6559.1544   -678.02337     19055.79    22.675997 
   24620    723.84872   -6639.8189   -6559.0725    -628.3113    19063.762       22.702 
   24630    739.70792   -6641.4501   -6558.9345   -670.64728    19070.888    22.722033 
   24640    741.32194   -6641.4653   -6558.7697    -362.9101    19077.192    22.742104 
   24650    725.80723    -6639.546   -6558.5811   -166.88336    19082.989    22.760589 
   24660    729.03152   -6639.6746   -6558.3501    55.680128    19088.546    22.773938 
   24670    731.51905   -6639.6628   -6558.0608      396.262    19094.155    22.787414 
   24680    746.14303   -6640.9625   -6557.7291    63.746459    19100.112    22.807142 
   24690    745.87375   -6640.5697   -6557.3664   -369.22793     19106.11    22.830123 
   24700    741.11434   -6639.6553   -6556.9829    -798.6119    19111.622    22.844444 
   24710    753.06893   -6640.5768   -6556.5708   -1093.8621    19116.132    22.847101 
   24720     759.9722   -6640.9192   -6556.1431   -1013.6154    19119.306    22.846904 
   24730    743.58193   -6638.6663   -6555.7186   -26.180949    19121.347    22.851752 
   24740    717.87171   -6635.3595   -6555.2799    303.02301     19123.25     22.85846 
   24750    725.70915   -6635.7429   -6554.7889   -292.83471    19125.402    22.857097 
   24760    752.50759   -6638.1819   -6554.2385   -856.35861    19127.186    22.848926 
   24770    755.37655   -6637.9473   -6553.6839   -504.67499    19128.018     22.84688 
   24780    749.95407   -6636.8251   -6553.1666    13.382931    19128.261    22.862144 
   24790    763.07372    -6637.807    -6552.685   -335.02482     19128.44    22.892785 
   24800    768.02328   -6637.9402    -6552.266   -547.82123     19128.23    22.929144 
   24810    753.48658   -6635.9776   -6551.9251   -241.45411    19127.409    22.961795 
   24820     760.0202   -6636.4255   -6551.6441   -387.44999    19126.251    22.984561 
   24830     785.3767   -6639.0368   -6551.4268   -726.82572    19124.611    22.994455 
   24840    782.88779   -6638.6416   -6551.3093   -268.39468    19122.196    22.990261 
   24850    778.25938   -6638.0961   -6551.2801    229.64398    19119.478    22.979245 
   24860    786.59139   -6639.0723   -6551.3268    167.68444    19116.973    22.979598 
   24870    768.32228   -6637.1256   -6551.4181    488.68205    19114.756    23.004283 
   24880    768.27345   -6637.2475   -6551.5454    527.15062    19113.119    23.052088 
   24890    760.23695   -6636.4899   -6551.6843    505.73982    19112.134    23.116855 
   24900    760.46506   -6636.6521    -6551.821    490.56326    19111.786    23.183548 
   24910     774.1753   -6638.3268   -6551.9664     228.0876    19112.011    23.250193 
   24920    758.61558   -6636.7448   -6552.1201    244.55192    19112.544    23.314847 
   24930    757.71128    -6636.813   -6552.2891    548.52865    19113.424    23.355631 
   24940    753.84353   -6636.5451   -6552.4527    234.91865    19114.889    23.356724 
   24950      756.745   -6637.0264   -6552.6103   -572.07759    19116.574    23.323527 
   24960     747.9197   -6636.2018   -6552.7703   -879.81219    19117.602    23.282043 
   24970    729.39034   -6634.2648   -6552.9002   -666.93419    19117.615    23.258321 
   24980    745.90789   -6636.1964   -6552.9892    -1182.405    19116.719    23.262357 
   24990    755.47088   -6637.3376   -6553.0637   -1612.4368    19114.406     23.28532 
   25000    745.54113   -6636.3111   -6553.1449   -1103.4818    19110.249    23.312956 
Loop time of 15952.2 on 16 procs for 20000 steps with 864 atoms

Performance: 0.108 ns/day, 221.558 hours/ns, 1.254 timesteps/s
96.9% CPU use with 16 MPI tasks x 1 OpenMP threads

MPI task timing breakdown:
Section |  min time  |  avg time  |  max time  |%varavg| %total
---------------------------------------------------------------
Pair    | 10561      | 13715      | 15712      |1288.6 | 85.97
Bond    | 0.0027936  | 0.0058386  | 0.012293   |   3.8 |  0.00
Neigh   | 0.22806    | 0.29251    | 0.38045    |   8.4 |  0.00
Comm    | 204.44     | 1774.2     | 5304.9     |3486.0 | 11.12
Output  | 1.2721     | 1.336      | 1.9748     |  14.3 |  0.01
Modify  | 18.276     | 461.69     | 955.81     |1770.9 |  2.89
Other   |            | 0.1045     |            |       |  0.00

Nlocal:        54.0000 ave          69 max          42 min
Histogram: 1 3 1 1 4 2 1 2 0 1
Nghost:        515.188 ave         608 max         465 min
Histogram: 3 1 4 3 2 0 1 0 0 2
Neighs:         0.00000 ave           0 max           0 min
Histogram: 16 0 0 0 0 0 0 0 0 0
FullNghs:      2483.50 ave        3595 max        1570 min
Histogram: 1 3 2 0 3 3 1 1 0 2

Total # of neighbors = 39736
Ave neighs/atom = 45.990741
Ave special neighs/atom = 0.0000000
Neighbor list builds = 2000
Dangerous builds = 2000
unfix   3
                
Total wall time: 5:30:25
