LAMMPS (29 Sep 2021 - Update 3)
OMP_NUM_THREADS environment is not set. Defaulting to 1 thread. (src/comm.cpp:98)
  using 1 OpenMP thread(s) per MPI task
Reading data file ...
  orthogonal box = (0.0000000 0.0000000 0.0000000) to (19.147970 18.143486 83.460053)
  2 by 1 by 8 MPI processor grid
  reading atoms ...
  864 atoms
Finding 1-2 1-3 1-4 neighbors ...
  special bond factors lj:    0        0        0       
  special bond factors coul:  0        0        0       
     0 = max # of 1-2 neighbors
     0 = max # of 1-3 neighbors
     0 = max # of 1-4 neighbors
     1 = max # of special neighbors
  special bonds CPU = 0.006 seconds
  read_data CPU = 0.025 seconds
Neighbor list info ...
  update every 1 steps, delay 10 steps, check yes
  max neighbors/atom: 2000, page size: 100000
  master list distance cutoff = 6.22
  ghost atom cutoff = 6.22
  binsize = 3.11, bins = 7 6 27
  1 neighbor lists, perpetual/occasional/extra = 1 0 0
  (1) pair quip, perpetual
      attributes: full, newton on
      pair build: full/bin
      stencil: full/bin/3d
      bin: standard
Setting up Verlet run ...
  Unit style    : metal
  Current step  : 0
  Time step     : 0.001
Per MPI rank memory allocation (min/avg/max) = 8.888 | 8.895 | 8.900 Mbytes
Step Temp PotEng TotEng Press Volume c_msd[4] 
       0            0   -7700.8381   -7700.8381    -4537.927    28994.935            0 
      10    45.183944    -7705.883   -7700.8427   -4512.0438    28994.935 0.00030079645 
      20    126.64468   -7714.9757   -7700.8483   -4255.0047    28994.935 0.0038182906 
      30    177.09989   -7720.6021   -7700.8463   -3781.1412    28994.935  0.013459324 
      40    209.87694   -7724.2579   -7700.8458    -3431.074    28994.935  0.027221013 
      50    241.22837   -7727.7551   -7700.8457   -3411.1653    28994.935  0.041726522 
      60    268.67173    -7730.818   -7700.8473   -3593.0662    28994.935  0.056043827 
      70     275.0391   -7731.5278   -7700.8468   -3607.6817    28994.935  0.071357203 
      80    265.25817   -7730.4352   -7700.8452   -3405.9066    28994.935  0.088279141 
      90    259.20615   -7729.7596   -7700.8448   -3201.4486    28994.935   0.10567802 
     100    263.43248   -7730.2328   -7700.8465   -3100.4009    28994.935    0.1224315 
     110    261.11727   -7729.9736   -7700.8456   -3033.5725    28994.935   0.13961289 
     120    259.78415   -7729.8251   -7700.8458   -3194.7166    28994.935   0.15773106 
     130    260.98349   -7729.9594   -7700.8463   -3347.3712    28994.935   0.17623602 
     140     255.9553   -7729.3982    -7700.846   -3347.8197    28994.935    0.1944487 
     150    249.49756   -7728.6766   -7700.8447   -3322.3017    28994.935   0.21137034 
     160     254.2947   -7729.2133   -7700.8464   -3341.2107    28994.935   0.22648355 
     170    255.39364   -7729.3354   -7700.8459   -3341.1695    28994.935   0.24056013 
     180    255.33687   -7729.3285   -7700.8453   -3331.4823    28994.935   0.25386781 
     190    260.76117   -7729.9344   -7700.8461   -3386.2272    28994.935   0.26621627 
     200    264.43741   -7730.3443   -7700.8459   -3501.0887    28994.935    0.2779645 
     210    266.13355   -7730.5336    -7700.846   -3595.0956    28994.935   0.28977516 
     220     266.1185   -7730.5314   -7700.8455   -3526.2817    28994.935   0.30213735 
     230    270.18321   -7730.9847   -7700.8454   -3347.9295    28994.935   0.31516558 
     240    278.15139   -7731.8749   -7700.8467   -3118.2308    28994.935   0.32946162 
     250    277.04449   -7731.7511   -7700.8464   -2922.7818    28994.935   0.34515362 
     260    270.54869   -7731.0256   -7700.8455   -2860.0876    28994.935   0.36076902 
     270    270.26056   -7730.9936   -7700.8456   -2886.6638    28994.935    0.3744656 
     280    273.36059   -7731.3402   -7700.8465   -2958.6022    28994.935   0.38584739 
     290    272.08277    -7731.197   -7700.8457   -3010.2651    28994.935   0.39576783 
     300    272.47723   -7731.2413   -7700.8461   -3100.0508    28994.935    0.4054068 
     310    271.93405   -7731.1808   -7700.8461   -3197.7717    28994.935   0.41587444 
     320     269.8009   -7730.9425   -7700.8458   -3135.1867    28994.935   0.42741727 
     330    269.08948   -7730.8635   -7700.8462   -2993.1826    28994.935   0.43980783 
     340    268.16652   -7730.7603   -7700.8459   -2893.4834    28994.935   0.45291747 
     350    270.00833   -7730.9658   -7700.8459    -2886.157    28994.935   0.46637788 
     360    272.40416   -7731.2339   -7700.8468   -2898.1671    28994.935   0.47993924 
     370    268.70619   -7730.8204   -7700.8458   -2820.4785    28994.935   0.49341184 
     380    268.96819   -7730.8497   -7700.8459   -2726.7365    28994.935    0.5062241 
     390    274.33864   -7731.4496   -7700.8467   -2645.6399    28994.935   0.51814514 
     400    276.36872   -7731.6757   -7700.8464   -2560.3847    28994.935   0.52930511 
     410    276.65126   -7731.7069    -7700.846   -2480.5382    28994.935   0.53982283 
     420    279.28097   -7732.0012   -7700.8469   -2431.2553    28994.935   0.55016179 
     430    276.82132   -7731.7259   -7700.8461    -2350.253    28994.935    0.5605612 
     440    277.03673   -7731.7497   -7700.8458   -2209.9282    28994.935   0.57093397 
     450    283.29469   -7732.4489    -7700.847   -2142.7855    28994.935   0.58158636 
     460    283.18302   -7732.4358   -7700.8463   -2100.6621    28994.935   0.59293578 
     470    283.23944   -7732.4417   -7700.8459   -2099.1213    28994.935   0.60470775 
     480    287.80996   -7732.9521   -7700.8464   -2253.1287    28994.935    0.6158485 
     490    288.81392   -7733.0639   -7700.8462   -2363.7422    28994.935   0.62479236 
     500    286.12762   -7732.7647   -7700.8468   -2407.5126    28994.935   0.63109946 
     510    276.45664   -7731.6849   -7700.8457   -2333.6198    28994.935   0.63597531 
     520    272.85667   -7731.2829   -7700.8454   -2206.2639    28994.935   0.64031219 
     530    279.50156   -7732.0253   -7700.8465   -2083.3564    28994.935   0.64463616 
     540    284.37697   -7732.5687    -7700.846   -1943.8509    28994.935   0.65001402 
     550    291.30626   -7733.3418   -7700.8462   -1829.3471    28994.935   0.65693039 
     560    297.78102   -7734.0651   -7700.8471   -1833.9621    28994.935   0.66549221 
     570    293.16658   -7733.5496   -7700.8465   -1837.0313    28994.935    0.6760564 
     580    285.58978   -7732.7039   -7700.8459   -1826.5131    28994.935   0.68850487 
     590    282.56573   -7732.3668   -7700.8462   -1911.9655    28994.935    0.7021441 
     600     283.4768   -7732.4683   -7700.8461   -2073.7839    28994.935    0.7157642 
     610    287.24651   -7732.8898    -7700.847   -2293.6112    28994.935   0.72816073 
     620    284.76091   -7732.6116   -7700.8461   -2326.3579    28994.935   0.73882186 
     630    285.14211   -7732.6539   -7700.8459   -2334.4346    28994.935   0.74737438 
     640    290.36779   -7733.2378   -7700.8468   -2353.3887    28994.935    0.7538232 
     650    290.71623   -7733.2766   -7700.8467   -2278.0119    28994.935   0.75912133 
     660    288.33491   -7733.0103   -7700.8461   -2194.3759    28994.935   0.76456941 
     670    289.38519   -7733.1286   -7700.8472   -2280.7715    28994.935   0.77063577 
     680    284.08824   -7732.5372   -7700.8467   -2463.5275    28994.935   0.77689412 
     690    275.77756   -7731.6093   -7700.8459   -2595.8822    28994.935   0.78265361 
     700    273.49144   -7731.3545   -7700.8461   -2613.0856    28994.935   0.78795972 
     710       273.31   -7731.3347   -7700.8466   -2521.5258    28994.935   0.79394117 
     720    269.49383   -7730.9092   -7700.8467    -2471.479    28994.935   0.80161731 
     730    262.18364   -7730.0925   -7700.8455   -2432.3962    28994.935   0.81035929 
     740    268.03582   -7730.7459   -7700.8461   -2455.7574    28994.935   0.81713067 
     750      280.622   -7732.1512   -7700.8473   -2533.4825    28994.935   0.82146207 
     760    283.23536   -7732.4419   -7700.8466   -2512.7271    28994.935   0.82470762 
     770    282.03319   -7732.3076   -7700.8464   -2550.3227    28994.935   0.82669995 
     780    279.77355   -7732.0557   -7700.8465   -2597.5325    28994.935   0.82699219 
     790    278.93712    -7731.962   -7700.8461   -2631.8344    28994.935   0.82552909 
     800    281.08894   -7732.2026   -7700.8467   -2684.1916    28994.935   0.82315699 
     810    280.13687   -7732.0959   -7700.8463   -2681.9226    28994.935   0.82177255 
     820     281.3104   -7732.2267   -7700.8461   -2639.4626    28994.935   0.82239938 
     830    285.21728   -7732.6634    -7700.847   -2628.9625    28994.935   0.82520652 
     840    283.73704   -7732.4982   -7700.8469   -2551.7329    28994.935   0.82976691 
     850    277.96973   -7731.8542   -7700.8462   -2441.8061    28994.935   0.83512428 
     860    278.46628   -7731.9092   -7700.8458    -2451.403    28994.935   0.84001546 
     870     286.3188   -7732.7868   -7700.8475   -2562.6227    28994.935   0.84379749 
     880    284.94265   -7732.6322   -7700.8465   -2543.1687    28994.935   0.84689222 
     890    282.26548   -7732.3331    -7700.846   -2457.3709    28994.935   0.84934875 
     900    285.50422   -7732.6948   -7700.8464   -2420.2274    28994.935   0.85157652 
     910    289.66708   -7733.1596   -7700.8468   -2414.4195    28994.935   0.85497176 
     920    289.15743   -7733.1025   -7700.8466   -2444.5638    28994.935   0.85995223 
     930    286.27915    -7732.781   -7700.8462   -2572.7025    28994.935   0.86509978 
     940    285.95089   -7732.7444   -7700.8462   -2776.6718    28994.935   0.86904324 
     950    288.49376   -7733.0284   -7700.8465   -2889.1908    28994.935   0.87143422 
     960    289.92569   -7733.1882   -7700.8466   -2832.2639    28994.935   0.87230061 
     970     289.5038   -7733.1411   -7700.8465   -2634.1457    28994.935   0.87176043 
     980    287.47267   -7732.9147   -7700.8467   -2412.0947    28994.935   0.87065618 
     990    285.00128   -7732.6385   -7700.8462   -2204.4549    28994.935   0.87041092 
    1000     286.6964   -7732.8282   -7700.8468   -2219.8679    28994.935   0.87192888 
    1010    285.76351   -7732.7245   -7700.8471   -2431.4357    28994.935   0.87520227 
    1020    279.23305   -7731.9951   -7700.8462   -2663.3857    28994.935   0.87962384 
    1030    276.12451   -7731.6483   -7700.8462   -2859.1863    28994.935   0.88430034 
    1040    278.85999   -7731.9537   -7700.8465    -2881.783    28994.935   0.88821373 
    1050    283.63264   -7732.4862   -7700.8465   -2806.0208    28994.935   0.89127233 
    1060    287.45819   -7732.9134    -7700.847   -2784.5081    28994.935   0.89438156 
    1070    287.50721   -7732.9183   -7700.8464    -2666.725    28994.935   0.89833559 
    1080     288.3388   -7733.0115   -7700.8468   -2554.5321    28994.935   0.90295372 
    1090    287.72687   -7732.9434   -7700.8471    -2449.256    28994.935   0.90791379 
    1100    282.26879   -7732.3342   -7700.8467   -2349.9216    28994.935   0.91319332 
    1110    278.17476   -7731.8766   -7700.8457   -2362.6978    28994.935   0.91830915 
    1120    285.00574   -7732.6397   -7700.8469   -2476.5807    28994.935   0.92287415 
    1130    291.73084   -7733.3901   -7700.8471   -2509.8798    28994.935   0.92706174 
    1140    292.56331   -7733.4827   -7700.8468   -2461.8775    28994.935   0.93059884 
    1150    291.16272   -7733.3259   -7700.8462   -2379.8012    28994.935   0.93290929 
    1160    294.20611   -7733.6658   -7700.8466   -2430.1845    28994.935   0.93429138 
    1170    296.65171   -7733.9391   -7700.8472     -2519.69    28994.935   0.93626719 
    1180    293.48989   -7733.5857   -7700.8465   -2544.9247    28994.935     0.939758 
    1190    292.32791   -7733.4561   -7700.8465   -2544.6809    28994.935   0.94403649 
    1200    292.54359   -7733.4805   -7700.8469    -2530.558    28994.935   0.94834108 
    1210    290.86487   -7733.2928   -7700.8464   -2465.9334    28994.935   0.95245077 
    1220    291.85186   -7733.4031   -7700.8466   -2358.3836    28994.935   0.95556404 
    1230    293.44413    -7733.581   -7700.8469   -2284.1551    28994.935    0.9573295 
    1240    292.76049   -7733.5044   -7700.8465   -2170.6219    28994.935   0.95845355 
    1250    293.13798   -7733.5467   -7700.8467   -2103.9544    28994.935   0.95986863 
    1260    292.96803    -7733.528    -7700.847   -2167.4504    28994.935   0.96196013 
    1270    289.24985   -7733.1127   -7700.8464   -2276.5202    28994.935   0.96415629 
    1280    285.75102   -7732.7224   -7700.8464   -2286.5297    28994.935   0.96566897 
    1290      284.651   -7732.5992    -7700.846   -2272.9878    28994.935   0.96658717 
    1300    288.60829   -7733.0414   -7700.8467   -2265.8955    28994.935   0.96788144 
    1310    290.24478    -7733.224   -7700.8467   -2190.3822    28994.935    0.9706072 
    1320    288.58259   -7733.0384   -7700.8466   -2131.8835    28994.935   0.97434843 
    1330    285.79594   -7732.7273   -7700.8463   -2097.4449    28994.935   0.97833796 
    1340    284.94721   -7732.6325   -7700.8462   -2025.5076    28994.935   0.98199327 
    1350    288.56733   -7733.0366   -7700.8465   -1879.3769    28994.935    0.9842258 
    1360    294.42631   -7733.6904   -7700.8467   -1741.8221    28994.935   0.98424419 
    1370    297.49937   -7734.0339   -7700.8474   -1667.3381    28994.935   0.98285555 
    1380    292.74623   -7733.5025   -7700.8462   -1608.0865    28994.935   0.98190459 
    1390    292.14101   -7733.4347   -7700.8459   -1576.6018    28994.935   0.98232817 
    1400    301.24748   -7734.4513   -7700.8467   -1571.9358    28994.935   0.98457679 
    1410    308.74525   -7735.2887   -7700.8477   -1627.6249    28994.935   0.98929211 
    1420    303.47704   -7734.6996   -7700.8463   -1559.3261    28994.935   0.99584973 
    1430    299.27771   -7734.2314   -7700.8465   -1560.2881    28994.935    1.0022596 
    1440    296.07219   -7733.8739   -7700.8466   -1645.0073    28994.935    1.0075133 
    1450    291.73802   -7733.3904   -7700.8466   -1761.2712    28994.935    1.0117171 
    1460    287.07709   -7732.8704   -7700.8466   -1858.1077    28994.935    1.0153184 
    1470    283.25203   -7732.4433   -7700.8461   -1859.1758    28994.935    1.0193785 
    1480    285.43138   -7732.6869   -7700.8466   -1822.6605    28994.935     1.024986 
    1490    289.90651   -7733.1866   -7700.8471   -1845.5531    28994.935    1.0319924 
    1500    290.00682   -7733.1976   -7700.8469   -1829.6868    28994.935    1.0392423 
    1510    288.95403   -7733.0793    -7700.846    -1792.572    28994.935    1.0455821 
    1520    295.71659   -7733.8347    -7700.847   -1855.4847    28994.935    1.0502501 
    1530    300.00567   -7734.3136   -7700.8475   -1884.0491    28994.935    1.0536411 
    1540    296.05902   -7733.8724   -7700.8466    -1822.818    28994.935    1.0568576 
    1550    294.34188   -7733.6807   -7700.8464   -1777.7282    28994.935    1.0604411 
    1560    298.19535   -7734.1112    -7700.847   -1665.6338    28994.935    1.0645653 
    1570    299.64452   -7734.2738    -7700.848   -1440.2495    28994.935    1.0694105 
    1580    292.64469   -7733.4917   -7700.8467   -1277.6152    28994.935     1.074918 
    1590    291.80684   -7733.3982   -7700.8467   -1332.1552    28994.935    1.0805049 
    1600    295.06101   -7733.7628   -7700.8483   -1440.1438    28994.935    1.0859126 
    1610    287.09163   -7732.8718   -7700.8463   -1485.4826    28994.935     1.091018 
    1620    286.48969   -7732.8047   -7700.8463   -1689.2872    28994.935    1.0951954 
    1630    293.71975   -7733.6125   -7700.8476   -1988.5087    28994.935    1.0988049 
    1640    292.89599   -7733.5202   -7700.8473   -2234.1959    28994.935    1.1028795 
    1650    285.80089    -7732.728   -7700.8465   -2370.0192    28994.935     1.107297 
    1660    283.13292   -7732.4301   -7700.8462   -2397.8467    28994.935    1.1109226 
    1670    289.15974   -7733.1032    -7700.847   -2351.0065    28994.935    1.1128534 
    1680    293.97663   -7733.6412   -7700.8477   -2320.8136    28994.935    1.1135229 
    1690    290.81385   -7733.2871   -7700.8464    -2229.079    28994.935    1.1138195 
    1700    291.76806    -7733.394   -7700.8469     -2159.57    28994.935    1.1136614 
    1710    294.02161   -7733.6456   -7700.8471   -2087.1354    28994.935    1.1134744 
    1720    294.14467   -7733.6593    -7700.847   -2007.8553    28994.935    1.1142792 
    1730    292.64536   -7733.4921   -7700.8471   -1906.6844    28994.935    1.1170331 
    1740    289.08712   -7733.0952   -7700.8471   -1708.4731    28994.935    1.1223514 
    1750    285.80556   -7732.7285   -7700.8464   -1570.4904    28994.935    1.1294849 
    1760     287.9638   -7732.9699   -7700.8471   -1527.7152    28994.935    1.1368575 
    1770    288.43964   -7733.0232   -7700.8473   -1474.3978    28994.935    1.1431943 
    1780    286.35452   -7732.7895   -7700.8462   -1374.2159    28994.935     1.147556 
    1790    290.77345   -7733.2831   -7700.8469   -1389.1814    28994.935    1.1497522 
    1800    296.05814   -7733.8725   -7700.8468   -1449.0765    28994.935    1.1507558 
    1810     301.3688   -7734.4651   -7700.8469   -1533.3472    28994.935    1.1516988 
    1820    304.48648   -7734.8131   -7700.8472   -1596.5101    28994.935    1.1539225 
    1830    302.85742    -7734.631   -7700.8468   -1598.9173    28994.935    1.1587776 
    1840    300.11343   -7734.3251    -7700.847   -1609.6044    28994.935    1.1667637 
    1850    297.67909   -7734.0531   -7700.8466   -1550.7625    28994.935    1.1770761 
    1860    299.64542    -7734.273   -7700.8471   -1446.6551    28994.935     1.187862 
    1870     300.4479   -7734.3628   -7700.8474   -1280.9239    28994.935    1.1969883 
    1880    297.75438   -7734.0614   -7700.8465   -1097.3535    28994.935    1.2026277 
    1890    300.44075   -7734.3616   -7700.8469   -1049.3061    28994.935    1.2042642 
    1900    303.94471   -7734.7532   -7700.8477   -1145.0928    28994.935    1.2033292 
    1910    299.67427   -7734.2762   -7700.8471   -1345.6827    28994.935    1.2022867 
    1920    294.22814   -7733.6682   -7700.8466   -1538.3262    28994.935    1.2030558 
    1930    294.31479   -7733.6782   -7700.8469   -1657.6619    28994.935    1.2063703 
    1940    296.08002   -7733.8751   -7700.8469   -1611.8933    28994.935    1.2121107 
    1950    298.47477   -7734.1425   -7700.8472   -1385.7061    28994.935    1.2194675 
    1960    298.47034   -7734.1418    -7700.847   -1084.0269    28994.935    1.2273777 
    1970    298.87552   -7734.1869   -7700.8469   -898.13371    28994.935    1.2348923 
    1980    299.98792   -7734.3117   -7700.8476   -807.05202    28994.935     1.241364 
    1990    297.18456   -7733.9979   -7700.8465   -843.22149    28994.935     1.246939 
    2000    299.90649   -7734.3021   -7700.8471   -1051.7337    28994.935    1.2522542 
Loop time of 1841.03 on 16 procs for 2000 steps with 864 atoms

Performance: 0.094 ns/day, 255.698 hours/ns, 1.086 timesteps/s
98.4% CPU use with 16 MPI tasks x 1 OpenMP threads

MPI task timing breakdown:
Section |  min time  |  avg time  |  max time  |%varavg| %total
---------------------------------------------------------------
Pair    | 1442.1     | 1668.2     | 1835.4     | 296.2 | 90.61
Bond    | 0.00025678 | 0.00076748 | 0.0018198  |   0.0 |  0.00
Neigh   | 0.018016   | 0.022623   | 0.026767   |   1.5 |  0.00
Comm    | 5.4374     | 164.05     | 393.46     | 924.6 |  8.91
Output  | 0.13063    | 5.6207     | 13.658     | 249.2 |  0.31
Modify  | 0.010803   | 0.013036   | 0.015113   |   1.2 |  0.00
Other   |            | 3.122      |            |       |  0.17

Nlocal:        54.0000 ave          63 max          44 min
Histogram: 2 0 2 1 2 3 2 1 0 3
Nghost:        408.438 ave         459 max         374 min
Histogram: 2 2 1 1 5 3 0 0 1 1
Neighs:         0.00000 ave           0 max           0 min
Histogram: 16 0 0 0 0 0 0 0 0 0
FullNghs:      1578.38 ave        2029 max        1152 min
Histogram: 2 1 2 1 2 3 2 0 1 2

Total # of neighbors = 25254
Ave neighs/atom = 29.229167
Ave special neighs/atom = 0.0000000
Neighbor list builds = 199
Dangerous builds = 198
Setting up Verlet run ...
  Unit style    : metal
  Current step  : 2000
  Time step     : 0.001
Per MPI rank memory allocation (min/avg/max) = 8.892 | 8.897 | 8.900 Mbytes
Step Temp PotEng TotEng Press Volume c_msd[4] 
    2000        412.5   -7734.3021   -7688.2871   -589.04838    28994.935    1.2522542 
    2010    393.22135   -7732.1451   -7688.2806   -436.03738    28993.541    1.2580498 
    2020    370.90724   -7729.6118   -7688.2366   -361.50595    28989.878    1.2636169 
    2030    363.33861   -7728.6466   -7688.1157   -384.74357    28984.323     1.266056 
    2040    359.96624   -7728.0516   -7687.8968   -439.57877    28976.802    1.2659811 
    2050    356.79891   -7727.3774   -7687.5759    -531.1199    28967.012    1.2659449 
    2060    358.05188   -7727.1022    -7687.161   -639.51832     28954.49    1.2677125 
    2070    360.06405   -7726.8453   -7686.6796    -677.5472    28938.735    1.2718831 
    2080    360.22716   -7726.3688   -7686.1849   -605.67469    28919.542    1.2782913 
    2090    365.90221   -7726.5369     -7685.72   -401.75947    28897.297    1.2862912 
    2100    369.81428   -7726.5569   -7685.3036   -161.72735    28873.008    1.2953055 
    2110    370.78737    -7726.295   -7684.9331   -35.808555    28847.836    1.3045325 
    2120    375.23749    -7726.447   -7684.5887   -38.182636    28822.408    1.3128282 
    2130    375.48568    -7726.137    -7684.251   -52.267046     28796.76    1.3195032 
    2140      372.291   -7725.4364   -7683.9068    -61.57602    28770.834      1.32444 
    2150    373.07592   -7725.1591    -7683.542   -55.722709    28744.596      1.32743 
    2160    377.64024   -7725.2739   -7683.1476    23.194747    28718.105    1.3291871 
    2170    380.67154    -7725.192   -7682.7275    169.59534    28691.734    1.3314744 
    2180    385.03803   -7725.2427   -7682.2912    265.03893    28666.159    1.3357118 
    2190    388.10813   -7725.1416   -7681.8475     229.6315     28641.84    1.3426474 
    2200    383.40036   -7724.1759    -7681.407    200.36902    28618.673    1.3522136 
    2210    376.70784   -7722.9902   -7680.9678    149.55181    28596.488    1.3627926 
    2220     376.8855   -7722.5616   -7680.5194    30.768736    28575.013    1.3723012 
    2230     382.0147    -7722.672   -7680.0577   -4.0343718    28553.739    1.3800796 
    2240    391.48313   -7723.2609   -7679.5904   -50.409371    28532.433    1.3866482 
    2250    398.77474   -7723.6146   -7679.1307   -11.645036    28510.916    1.3927076 
    2260    394.77523   -7722.7267   -7678.6889    152.23234      28489.4    1.3987139 
    2270    392.94894   -7722.0959   -7678.2619    226.19134    28468.616    1.4045892 
    2280    397.05795   -7722.1306   -7677.8382    137.92042    28448.904     1.411256 
    2290    398.49537   -7721.8744   -7677.4217   -48.656608     28429.85    1.4198607 
    2300    390.53608   -7720.5803   -7677.0154   -153.43595    28410.622    1.4299214 
    2310     388.3968   -7719.9342   -7676.6079   -140.11347     28390.73    1.4392581 
    2320    392.34359   -7719.9512   -7676.1847   -50.037869    28370.222    1.4467634 
    2330    396.87226   -7720.0224   -7675.7507    23.470332    28349.497    1.4528513 
    2340    409.40781   -7720.9893   -7675.3193    6.3685299     28328.87     1.457904 
    2350    412.90186   -7720.9664   -7674.9066     68.41289    28308.332    1.4623111 
    2360    416.55118   -7720.9946   -7674.5277    215.68772    28288.197    1.4661407 
    2370    422.79204   -7721.3448   -7674.1817    342.71225    28269.118    1.4699842 
    2380     424.3333   -7721.2105   -7673.8755    577.94462    28251.772    1.4744463 
    2390    423.35717   -7720.8388   -7673.6127    798.32936    28237.257    1.4792342 
    2400     419.3237   -7720.1653   -7673.3891    836.30241    28226.548    1.4840909 
    2410    414.14439    -7719.392   -7673.1936    752.75437    28219.844    1.4884235 
    2420    408.89763   -7718.6238   -7673.0107    712.89797      28216.8    1.4910751 
    2430    403.42836   -7717.8268   -7672.8237    664.96152    28217.215    1.4911506 
    2440    412.39244   -7718.6264   -7672.6234    434.31339    28220.781     1.489309 
    2450    418.92796   -7719.1501   -7672.4181    295.51372    28226.511    1.4884384 
    2460    415.24551   -7718.5463    -7672.225    321.53396    28233.787    1.4903087 
    2470    417.66954   -7718.6346   -7672.0429    239.31911    28242.601    1.4946349 
    2480    420.69693   -7718.7999   -7671.8705    140.74079    28252.599    1.5003495 
    2490    418.62466   -7718.4151   -7671.7169    179.03367    28263.385    1.5056723 
    2500    417.55719   -7718.1605   -7671.5814    359.39994    28275.142    1.5091097 
    2510    426.31472   -7719.0188   -7671.4628     613.2787    28288.718    1.5108402 
    2520    428.80666   -7719.2066   -7671.3726    869.78938    28305.314    1.5129201 
    2530    416.12261   -7717.7367   -7671.3176    1129.3169      28326.2    1.5164372 
    2540    412.03768   -7717.2442   -7671.2807    1213.2449    28352.568    1.5200992 
    2550    420.21286     -7718.12   -7671.2446    1066.6901    28384.827    1.5227294 
    2560    428.70602   -7719.0412   -7671.2184    853.88759    28422.349    1.5241359 
    2570    431.20179    -7719.321   -7671.2198    594.45881    28464.066    1.5243217 
    2580    429.22653   -7719.1378   -7671.2569     410.4342    28508.759    1.5238309 
    2590      428.885    -7719.172   -7671.3292    239.82627    28555.466    1.5236626 
    2600    430.53047   -7719.4642   -7671.4378    57.537211    28603.303     1.524851 
    2610    430.80451    -7719.643   -7671.5861   -110.00051    28651.321    1.5275681 
    2620    434.73337    -7720.278   -7671.7828   -336.08184    28698.616    1.5310756 
    2630     428.8032    -7719.861   -7672.0273   -625.28467    28744.041    1.5353951 
    2640    416.55423   -7718.7632    -7672.296   -943.74796     28786.13    1.5406595 
    2650    415.56171    -7718.923   -7672.5665   -1326.9374     28823.22    1.5460707 
    2660    415.39326   -7719.1748   -7672.8371   -1489.9401    28853.525    1.5505796 
    2670    408.55097   -7718.6803   -7673.1058   -1465.2263    28876.198    1.5538182 
    2680    404.27381    -7718.458   -7673.3607   -1407.2173    28891.352    1.5566203 
    2690    403.07427   -7718.5563   -7673.5928   -1411.7948    28899.262     1.560262 
    2700    403.17187   -7718.7766   -7673.8022    -1478.566    28899.934    1.5647537 
    2710    399.37945   -7718.5402   -7673.9888    -1607.298    28893.066    1.5690679 
    2720    391.01104   -7717.7618   -7674.1439   -1620.7746    28878.148     1.571617 
    2730    391.53473   -7717.9348   -7674.2585   -1448.0241    28855.219    1.5715707 
    2740    404.64627    -7719.473   -7674.3341    -1159.777    28825.202    1.5700248 
    2750    417.04643    -7720.912   -7674.3899   -784.22774    28789.626    1.5692653 
    2760    414.62762    -7720.695   -7674.4427   -391.60519    28750.421    1.5709207 
    2770    405.31736   -7719.7019   -7674.4881    -5.972215      28709.6    1.5743814 
    2780    402.44413   -7719.4045   -7674.5112    303.11772    28669.084    1.5786213 
    2790    402.31282   -7719.3846    -7674.506    442.78406    28630.396    1.5832129 
    2800    407.47397   -7719.9352   -7674.4809    430.33917    28594.238    1.5870378 
    2810    410.85826   -7720.2791   -7674.4473    379.01515    28560.561    1.5890973 
    2820    409.82494   -7720.1261   -7674.4095    476.69813    28529.162    1.5888011 
    2830    414.04373   -7720.5534   -7674.3662    636.05889     28500.45    1.5858585 
    2840    421.82185   -7721.3803   -7674.3254    764.13807    28475.153    1.5811744 
    2850    421.60285   -7721.3307   -7674.3003     866.0516     28453.86    1.5764192 
    2860    420.15481   -7721.1653   -7674.2964    936.84212     28437.02    1.5720811 
    2870     417.8807   -7720.9266   -7674.3114    908.08874    28424.911    1.5675222 
    2880    412.03744   -7720.3056   -7674.3422     739.7671    28417.313    1.5624358 
    2890    406.32995    -7719.704   -7674.3773    550.02082    28413.394    1.5574658 
    2900      407.042   -7719.8101   -7674.4039    482.23399    28412.256    1.5537209 
    2910    412.48211   -7720.4347   -7674.4217    501.83092    28413.518    1.5521273 
    2920    413.49665   -7720.5652   -7674.4391    521.56408    28417.231    1.5530249 
    2930    414.09085   -7720.6543   -7674.4618     439.2622    28423.435    1.5555451 
    2940    418.37772   -7721.1651   -7674.4944     342.9282    28431.748    1.5580537 
    2950    418.22025   -7721.1963   -7674.5432     306.1095    28441.712      1.55944 
    2960    418.06376   -7721.2491   -7674.6134     115.2881    28453.027    1.5593133 
    2970    416.72103   -7721.1911   -7674.7053   -108.88296    28464.824    1.5590887 
    2980    410.36512   -7720.5922   -7674.8153   -144.39655    28476.083    1.5607064 
    2990    406.96686   -7720.3321   -7674.9343   -13.252902    28486.615    1.5633726 
    3000    409.57899   -7720.7457   -7675.0566    193.64816    28497.062    1.5646458 
    3010    413.99462    -7721.371   -7675.1893    211.48409    28508.293    1.5635029 
    3020    415.47407   -7721.6877    -7675.341    190.76139    28520.496    1.5606339 
    3030    414.81224   -7721.7903   -7675.5174    118.71557    28533.529    1.5571514 
    3040    406.60465   -7721.0662   -7675.7088 -0.048564968    28547.046    1.5540167 
    3050    402.56828   -7720.8094   -7675.9023   -83.401831    28560.506    1.5518947 
    3060    402.71429   -7721.0133   -7676.0899   -109.93387    28573.487    1.5521638 
    3070    398.29548   -7720.6953   -7676.2648   -162.25817    28585.825    1.5557708 
    3080    393.19061   -7720.2741   -7676.4131   -300.01618    28597.222    1.5615709 
    3090    396.09922   -7720.7148   -7676.5294    -411.5604    28607.078     1.567272 
    3100    395.77724   -7720.7645    -7676.615   -428.02871    28614.861    1.5705871 
    3110    392.26591   -7720.4285   -7676.6707   -426.65017    28620.459    1.5698581 
    3120    391.32302   -7720.3429   -7676.6903   -395.76544    28623.924    1.5658389 
    3130    396.65563   -7720.9173   -7676.6698   -402.62984    28625.388    1.5612159 
    3140    402.41943   -7721.5022   -7676.6117   -444.60741    28624.842    1.5585107 
    3150    398.93251   -7721.0197   -7676.5182   -416.13117    28622.122    1.5584165 
    3160    398.67961   -7720.8591   -7676.3858   -410.08442    28617.352    1.5599193 
    3170    400.76435   -7720.9152   -7676.2093   -416.88785    28610.598    1.5617175 
    3180    398.48121   -7720.4397   -7675.9885   -325.80818    28601.888     1.562257 
    3190     403.8072   -7720.7677   -7675.7224    -194.6812    28591.664    1.5616813 
    3200    411.35417   -7721.3011   -7675.4139   -101.09894    28580.557    1.5631387 
    3210    416.98861   -7721.5992   -7675.0835   -34.421033    28569.037    1.5683037 
    3220    413.49266   -7720.8752   -7674.7494    14.372905    28557.446    1.5746105 
    3230    410.48921   -7720.2122   -7674.4215   0.69440598    28546.002    1.5783188 
    3240    412.16061   -7720.0758   -7674.0986   -19.926513    28534.659     1.578566 
    3250    419.59774   -7720.5957    -7673.789   -71.825759    28523.297      1.57743 
    3260    418.33019   -7720.1743   -7673.5089    -40.82587    28511.728    1.5780921 
    3270    404.40063   -7718.3737   -7673.2622    143.91289    28500.145    1.5816141 
    3280    402.91675   -7717.9745   -7673.0285    269.44886    28489.346    1.5859386 
    3290    415.11662   -7719.1043   -7672.7975    298.94683    28479.928    1.5895132 
    3300    416.60726   -7719.0596   -7672.5864    366.50855    28472.087    1.5925114 
    3310    408.95299   -7718.0242   -7672.4049    412.21253    28466.096    1.5940089 
    3320      411.928   -7718.1917   -7672.2405    335.81345    28462.133    1.5925465 
    3330    429.51763   -7720.0086   -7672.0953     191.7714     28459.82    1.5894754 
    3340    442.06507   -7721.3117   -7671.9987     191.6406    28458.538    1.5886497 
    3350    440.21667   -7721.0809   -7671.9741    295.03311    28458.277    1.5925586 
    3360    432.67067   -7720.2784   -7672.0133    322.21307    28459.428    1.6005771 
    3370    425.34072   -7719.5389   -7672.0915    334.87269    28462.162    1.6093975 
    3380    424.63145   -7719.5614   -7672.1931    288.06221    28466.509    1.6153699 
    3390     421.2941   -7719.3079   -7672.3119    212.37319     28472.23    1.6174695 
    3400    414.48677   -7718.6764   -7672.4397     220.2239    28479.016     1.617551 
    3410    416.06541   -7718.9805   -7672.5678    111.87921    28486.776    1.6180999 
    3420    418.80585   -7719.4157   -7672.6973    49.459325    28495.063    1.6205002 
    3430    413.07581   -7718.9085   -7672.8293    127.69521    28503.614    1.6249844 
    3440     411.8463   -7718.8982   -7672.9562    159.87143    28512.721    1.6304461 
    3450     421.2024   -7720.0676   -7673.0818    99.238682    28522.532    1.6358277 
    3460    422.01785   -7720.2974   -7673.2207    37.279585     28532.77    1.6412034 
    3470    411.10405   -7719.2293     -7673.37    125.16534    28543.219    1.6463439 
    3480    409.01816   -7719.1418   -7673.5152    166.56219      28554.2    1.6504542 
    3490    412.53161   -7719.6695    -7673.651    173.50679    28565.938    1.6545917 
    3500    412.18857   -7719.7559   -7673.7757    173.01296    28578.481    1.6601092 
    3510    418.90666   -7720.6235   -7673.8939    52.853775    28591.751    1.6667697 
    3520    426.49603   -7721.5932   -7674.0169    -41.98257    28605.239    1.6734819 
    3530    425.96205   -7721.6786   -7674.1619   -39.657435    28618.474    1.6790245 
    3540    419.69736   -7721.1472   -7674.3293    153.53328    28631.533    1.6831688 
    3550    420.89539   -7721.4667   -7674.5152     253.4575     28645.23    1.6871332 
    3560    417.82252   -7721.3228    -7674.714    251.56925    28660.062    1.6921386 
    3570    407.69419   -7720.3859    -7674.907    129.14562    28676.011    1.6973274 
    3580    407.37547   -7720.5184   -7675.0751   -175.92092    28692.428    1.7012231 
    3590    411.23764   -7721.0911   -7675.2169   -391.31756    28707.906    1.7033812 
    3600    412.45125    -7721.351   -7675.3414   -496.11766    28721.366    1.7035038 
    3610    418.66862   -7722.1586   -7675.4555   -648.52786    28732.213    1.7018955 
    3620    425.28681   -7723.0152   -7675.5738   -738.66517    28739.761    1.7005516 
    3630    423.24574   -7722.9214   -7675.7077   -597.59623    28743.673    1.7015773 
    3640    417.05252   -7722.3724   -7675.8495   -281.15206    28744.654    1.7049306 
    3650    409.91015   -7721.7041    -7675.978    15.800779    28744.239     1.709368 
    3660    405.16484   -7721.2727   -7676.0759    43.138495    28743.779    1.7134354 
    3670    407.79297   -7721.6317   -7676.1417   -77.689452    28743.469    1.7162599 
    3680    410.17831   -7721.9392   -7676.1831     -191.828    28742.779     1.718258 
    3690    405.13713   -7721.4021   -7676.2084   -294.09263    28741.137    1.7199923 
    3700    396.25555   -7720.4131   -7676.2102    -380.5315    28738.046    1.7205759 
    3710    400.42522   -7720.8517   -7676.1837   -476.00551    28733.088    1.7190797 
    3720    405.77698   -7721.4014   -7676.1364   -473.13934    28725.883    1.7172191 
    3730     401.0206   -7720.8136   -7676.0792   -316.76171    28716.485     1.716705 
    3740    396.86298   -7720.2796    -7676.009   -97.207125    28705.654    1.7170178 
    3750    400.01198   -7720.5401   -7675.9182    -46.64822    28694.379    1.7168074 
    3760    411.49826    -7721.718   -7675.8148   -122.86707    28682.957    1.7157414 
    3770    415.88237   -7722.1083    -7675.716   -125.93575    28671.111    1.7147759 
    3780     411.5817   -7721.5441   -7675.6316    20.911719    28658.854    1.7137966 
    3790    411.60809   -7721.4699   -7675.5544    221.01616    28646.872    1.7104253 
    3800     421.0615   -7722.4547   -7675.4847    428.67274    28636.135    1.7029266 
    3810    422.80223   -7722.5984   -7675.4342    652.73657    28627.669    1.6926883 
    3820    415.57303    -7721.766   -7675.4082    860.54567    28622.547    1.6818215 
    3830    407.86203    -7720.892   -7675.3944     1022.075    28621.766    1.6711914 
    3840    409.14497   -7721.0195   -7675.3788    1083.6221    28626.044    1.6612468 
    3850    421.31062   -7722.3626   -7675.3647    1070.8803    28635.611    1.6531334 
    3860    425.25554   -7722.8086   -7675.3707    1084.2455    28650.415    1.6481183 
    3870    420.49442   -7722.3122   -7675.4054    875.57538    28670.338    1.6459792 
    3880    413.88996   -7721.6242   -7675.4542    476.98941    28694.295    1.6449771 
    3890    405.40063   -7720.7178   -7675.4948    143.04657    28720.355    1.6425138 
    3900    404.79002     -7720.67    -7675.515   -126.86684    28746.859    1.6368146 
    3910    409.60126   -7721.2055   -7675.5139   -499.53533    28772.335    1.6293925 
    3920    409.32063   -7721.1608   -7675.5005   -712.89274    28795.031    1.6234704 
    3930    407.77016   -7720.9677   -7675.4803   -768.44087    28813.881    1.6209706 
    3940    406.30212   -7720.7698   -7675.4462   -805.68621      28828.6    1.6221792 
    3950    407.87776   -7720.8934    -7675.394    -961.3076    28838.988    1.6253627 
    3960    408.94754   -7720.9434   -7675.3247   -1117.6073    28844.369    1.6276732 
    3970    407.47379   -7720.6965   -7675.2421   -1042.8476    28844.162    1.6276407 
    3980    405.78859   -7720.4063     -7675.14   -822.03644    28838.788    1.6261704 
    3990    412.62588    -7721.039     -7675.01   -687.37129    28829.349    1.6257227 
    4000    415.69404   -7721.2228   -7674.8515   -643.89655    28816.598    1.6286542 
    4010    409.11726   -7720.3026   -7674.6649   -445.14322    28800.952    1.6348545 
    4020    403.01317     -7719.39   -7674.4333   -117.62075     28783.44    1.6419871 
    4030    410.74031   -7719.9596   -7674.1409    116.25932     28765.65    1.6476013 
    4040     423.7814   -7721.0658   -7673.7923    119.88207     28748.69    1.6511156 
    4050    433.41431   -7721.7729   -7673.4249    83.531947    28732.641    1.6533968 
    4060    432.23344   -7721.2916   -7673.0753    164.84812    28717.387    1.6553634 
    4070    419.63786   -7719.5697   -7672.7585    276.92087    28703.264    1.6576669 
    4080    418.59883   -7719.1577   -7672.4624    435.16249    28690.811    1.6612825 
    4090    422.48343   -7719.3039   -7672.1753    698.73872    28680.811    1.6676648 
    4100    422.27056   -7719.0156   -7671.9107    940.05203    28674.471    1.6760524 
    4110    417.39192   -7718.2355   -7671.6748    989.00588    28672.849    1.6837181 
    4120    420.98055   -7718.4242   -7671.4631    658.33742        28676    1.6887759 
    4130    427.43311   -7718.9537   -7671.2729     153.9772    28682.271    1.6917737 
    4140    432.51713   -7719.3663   -7671.1183   -115.27543    28689.308    1.6943547 
    4150    434.56352     -7719.49   -7671.0138   -133.81933    28695.744    1.6981552 
    4160    425.96694   -7718.4782   -7670.9609    51.086201    28701.507    1.7037507 
    4170    422.23724   -7718.0458   -7670.9446    106.24033    28707.367    1.7098534 
    4180    426.75571   -7718.5578   -7670.9525    63.381215    28713.607    1.7157752 
    4190    424.43384   -7718.3333   -7670.9871    106.49249    28720.095    1.7217503 
    4200    418.30643   -7717.7093   -7671.0466    185.25366    28727.014    1.7267898 
    4210    417.90983   -7717.7417   -7671.1232    178.29328    28734.691    1.7301658 
    4220    420.89909   -7718.1705   -7671.2186    90.700201    28743.092    1.7327452 
    4230    421.00556    -7718.302   -7671.3382   -26.547795      28751.8    1.7353365 
    4240    423.98485   -7718.7851   -7671.4889   -203.99148    28760.199    1.7381061 
    4250    424.05836    -7718.982   -7671.6777   -328.69512    28767.445    1.7411665 
    4260    425.04927   -7719.3275   -7671.9126   -366.55055    28772.946    1.7446551 
    4270     427.1395   -7719.8506   -7672.2025   -336.23087    28776.547    1.7488665 
    4280    422.73015    -7719.706   -7672.5498   -180.25235    28778.476    1.7535922 
    4290    416.71967   -7719.4272   -7672.9415   -142.58335    28779.408    1.7574931 
    4300     414.8723    -7719.638   -7673.3583   -155.69269    28779.611    1.7595196 
    4310    411.35656   -7719.6649   -7673.7774   -130.50909     28779.05     1.760078 
    4320    402.23388    -7719.038   -7674.1682   -38.555743    28777.882    1.7598517 
    4330    399.15596   -7719.0282   -7674.5017    115.38507    28776.591    1.7587803 
    4340    403.00321   -7719.7269   -7674.7713    140.72291    28775.839    1.7563212 
    4350    402.29034   -7719.8555   -7674.9794    103.77442    28775.797     1.751863 
    4360      401.201   -7719.8853   -7675.1308    36.562485    28776.289     1.745642 
    4370    409.32106   -7720.8981   -7675.2377   -155.56827    28776.893    1.7389746 
    4380     417.5644   -7721.9006   -7675.3206   -326.06929    28776.721    1.7336572 
    4390    417.64973   -7721.9886   -7675.3991   -432.72384    28774.946    1.7310613 
    4400    412.86969   -7721.5324   -7675.4761   -473.98984    28771.068    1.7300149 
    4410    405.97923   -7720.8285   -7675.5409   -385.41605    28764.967    1.7281501 
    4420     401.8958   -7720.4143   -7675.5822   -321.03986    28757.053    1.7248193 
    4430    403.63887   -7720.6261   -7675.5996   -416.57244    28747.604     1.721389 
    4440    408.55989   -7721.1791   -7675.6036    -518.6089    28736.239    1.7198671 
    4450    408.33742   -7721.1516   -7675.6009   -431.02911    28722.578    1.7214189 
    4460    412.66663   -7721.6255   -7675.5919   -314.38151    28707.034     1.725479 
    4470    420.84897   -7722.5308   -7675.5845   -249.01282    28690.177    1.7311381 
    4480    419.31229   -7722.3616   -7675.5866   -24.271676    28672.478     1.737488 
    4490     422.3906   -7722.7213    -7675.603    139.27901    28654.941    1.7427728 
    4500     420.1585   -7722.5024   -7675.6331    350.33774    28638.459    1.7466275 
    4510    420.15563   -7722.5448   -7675.6758    417.54834    28623.962    1.7499283 
    4520    429.90835    -7723.699    -7675.742    204.89199    28611.685    1.7539182 
    4530    425.33006   -7723.2925   -7675.8462    11.236756    28600.659     1.760291 
    4540    409.38172   -7721.6438   -7675.9766    50.965418    28590.013    1.7694227 
    4550    401.72993   -7720.9143   -7676.1007    191.13035    28579.877    1.7804533 
    4560    403.03472   -7721.1605   -7676.2014    326.05069    28570.874    1.7933152 
    4570     407.7744   -7721.7727   -7676.2849    424.46516    28563.628    1.8076084 
    4580    413.43406   -7722.4838   -7676.3646    507.01393    28558.606    1.8216513 
    4590    420.55568   -7723.3695   -7676.4559     616.8802      28556.2    1.8340961 
    4600    421.97519   -7723.6435   -7676.5715    674.86232    28556.871    1.8442816 
    4610    411.31404   -7722.5934   -7676.7107    556.76318    28560.775    1.8514549 
    4620    401.24162   -7721.6117   -7676.8526    362.43661    28567.326     1.855538 
    4630    402.81189   -7721.9173    -7676.983     246.9072     28575.58    1.8579972 
    4640    403.58079   -7722.1207   -7677.1007    371.26144    28585.032    1.8612426 
    4650    402.28613   -7722.0844   -7677.2088    462.68712     28596.14    1.8665943 
    4660    399.98141   -7721.9222   -7677.3037     443.5465    28609.287    1.8737399 
    4670    397.44421   -7721.7185    -7677.383     505.8504    28624.439     1.880959 
    4680    395.55413   -7721.5637   -7677.4391    557.07977    28641.835    1.8862791 
    4690    397.05963   -7721.7568   -7677.4642    405.11204    28661.613    1.8888094 
    4700    394.82221   -7721.4926   -7677.4496    240.96017    28683.089    1.8890881 
    4710    395.22132   -7721.4754   -7677.3879    76.324891    28705.399    1.8880008 
    4720    401.56494   -7722.0679   -7677.2727   -163.49676    28727.665    1.8874917 
    4730    406.12887   -7722.4093    -7677.105   -420.84682    28748.725    1.8898814 
    4740    409.68178     -7722.59   -7676.8894   -586.19954    28767.373    1.8957504 
    4750    416.16551   -7723.0547   -7676.6308   -613.36618    28782.854    1.9037311 
    4760    421.69897   -7723.3829   -7676.3418   -699.05044    28794.982      1.91221 
    4770    418.32248   -7722.7029   -7676.0384   -817.74903    28803.402    1.9202769 
    4780    414.81179   -7722.0009    -7675.728   -828.64971    28807.635    1.9273402 
    4790    410.96133   -7721.2509   -7675.4075   -622.38257     28807.74    1.9337478 
    4800    404.90689    -7720.245   -7675.0771   -324.47751    28804.766    1.9404869 
    4810    399.28214   -7719.2742   -7674.7337   -149.01159    28800.159    1.9480743 
    4820    402.52268   -7719.2776   -7674.3756   -97.812862     28794.82    1.9565937 
    4830    408.14289   -7719.5394   -7674.0105   -89.070883    28789.069    1.9658402 
    4840    419.39007   -7720.4445   -7673.6609   -261.18732    28782.875    1.9738754 
    4850    428.74436   -7721.1773   -7673.3503    -435.9696    28775.494    1.9789955 
    4860    433.20146   -7721.4265   -7673.1022   -494.01064    28766.122    1.9813736 
    4870    428.92171   -7720.7698    -7672.923   -484.40387    28754.462    1.9822569 
    4880    424.29961     -7720.13   -7672.7988   -401.36704    28740.624    1.9826746 
    4890    432.21275   -7720.9331   -7672.7191   -367.30956    28724.989    1.9835389 
    4900    434.09682   -7721.1132   -7672.6891   -323.85255    28707.782    1.9862938 
    4910    426.20884   -7720.2523   -7672.7081   -246.79383    28689.262     1.991278 
    4920    421.46224   -7719.7746   -7672.7599   -299.27664    28669.747    1.9969409 
    4930    422.35732   -7719.9472   -7672.8326   -390.92201    28649.053    2.0013193 
    4940    423.67179   -7720.1881   -7672.9269   -356.68288    28626.812    2.0035347 
    4950    417.80822   -7719.6484   -7673.0413   -158.73971    28603.227    2.0043628 
    4960    410.54262   -7718.9584   -7673.1617    27.783886    28579.207     2.004603 
    4970    409.56381   -7718.9647   -7673.2773    295.71111    28555.752    2.0044574 
    4980    401.56488   -7718.1712   -7673.3761    630.45291     28534.15    2.0041435 
    4990    402.00817   -7718.2957    -7673.451    926.59847    28515.978    2.0027317 
    5000     407.1532   -7718.9278   -7673.5092    1123.2679    28502.616    2.0000469 
Loop time of 2865.84 on 16 procs for 3000 steps with 864 atoms

Performance: 0.090 ns/day, 265.356 hours/ns, 1.047 timesteps/s
98.4% CPU use with 16 MPI tasks x 1 OpenMP threads

MPI task timing breakdown:
Section |  min time  |  avg time  |  max time  |%varavg| %total
---------------------------------------------------------------
Pair    | 2273.6     | 2671.3     | 2839.1     | 298.1 | 93.21
Bond    | 0.00045371 | 0.0012432  | 0.0034599  |   2.3 |  0.00
Neigh   | 0.028495   | 0.033859   | 0.038484   |   1.6 |  0.00
Comm    | 14.005     | 157.48     | 571.06     |1168.3 |  5.50
Output  | 0.18982    | 0.19311    | 0.24134    |   2.8 |  0.01
Modify  | 0.89496    | 36.83      | 101.45     | 621.4 |  1.29
Other   |            | 0.01671    |            |       |  0.00

Nlocal:        54.0000 ave          62 max          45 min
Histogram: 1 1 2 1 2 2 1 4 1 1
Nghost:        404.938 ave         437 max         384 min
Histogram: 2 3 0 5 3 0 1 0 0 2
Neighs:         0.00000 ave           0 max           0 min
Histogram: 16 0 0 0 0 0 0 0 0 0
FullNghs:      1608.12 ave        1967 max        1259 min
Histogram: 2 2 0 2 2 2 1 2 1 2

Total # of neighbors = 25730
Ave neighs/atom = 29.780093
Ave special neighs/atom = 0.0000000
Neighbor list builds = 300
Dangerous builds = 300
Setting up Verlet run ...
  Unit style    : metal
  Current step  : 5000
  Time step     : 0.001
Per MPI rank memory allocation (min/avg/max) = 8.896 | 8.898 | 8.900 Mbytes
Step Temp PotEng TotEng Press Volume c_msd[4] 
    5000     407.1532   -7718.9278   -7673.5092    1123.2679    28502.616    2.0000469 
    5010     402.6986    -7718.424   -7673.5024    1173.6971    28505.459    2.0006295 
    5020     406.7035   -7718.8528   -7673.4844    1074.1071    28514.046    2.0006925 
    5030    413.20347   -7719.5487   -7673.4552    954.64771    28527.974    1.9995907 
    5040    423.35719    -7720.656   -7673.4298    687.70248    28546.576    1.9964814 
    5050    429.27935   -7721.3125   -7673.4257    468.26102    28568.655    1.9922653 
    5060    429.56759   -7721.3766   -7673.4577    288.82771     28593.13    1.9880751 
    5070    429.32595   -7721.4237   -7673.5317    89.683692    28619.081     1.984355 
    5080    418.69475   -7720.3497   -7673.6437    100.14277    28645.637     1.980832 
    5090    408.34503    -7719.328   -7673.7765    235.70055    28672.791    1.9765396 
    5100    409.65759   -7719.6117   -7673.9138    363.45665     28701.18    1.9714124 
    5110    413.99128   -7720.2422   -7674.0608    401.50246     28731.41    1.9666289 
    5120    413.14108   -7720.3163   -7674.2298    408.02642    28763.708    1.9632609 
    5130    410.17977   -7720.1824   -7674.4262    344.34673    28798.076    1.9622253 
    5140    408.00132   -7720.1554   -7674.6423    87.283098     28834.11    1.9642696 
    5150    412.31686   -7720.8701   -7674.8755   -322.51725    28870.517    1.9692575 
    5160    410.30891   -7720.9008   -7675.1302   -679.34603    28905.296    1.9765018 
    5170    398.84634   -7719.8909    -7675.399   -937.84767    28936.647     1.983975 
    5180    393.47691   -7719.5575   -7675.6645   -1131.0083    28963.211    1.9882112 
    5190     390.5885   -7719.4884   -7675.9177   -1264.4518    28983.964    1.9878778 
    5200    388.69609   -7719.5082   -7676.1486   -1285.1558    28998.275    1.9839816 
    5210    393.02787    -7720.199   -7676.3561   -1339.3699    29005.965    1.9785809 
    5220    397.39355   -7720.8727   -7676.5429    -1472.267    29006.733     1.975207 
    5230    398.64526   -7721.1833   -7676.7139   -1538.7734    28999.995    1.9766729 
    5240     397.1479   -7721.1734   -7676.8709   -1596.8385    28985.425    1.9830998 
    5250    393.66518   -7720.9272   -7677.0132   -1626.2876    28962.785    1.9924071 
    5260    393.17489   -7720.9929   -7677.1337   -1452.5279    28932.077    2.0014809 
    5270    397.26564   -7721.5401   -7677.2245   -1137.0673    28894.231    2.0078656 
    5280    395.54589   -7721.4028    -7677.279   -772.60703    28850.902    2.0107488 
    5290    394.70873   -7721.3221   -7677.2917   -490.69259    28803.953    2.0096469 
    5300    400.23079   -7721.9061   -7677.2598   -291.79458    28754.908    2.0055046 
    5310    403.91768   -7722.2449   -7677.1872   -164.77914    28704.831    2.0006931 
    5320    401.06447   -7721.8126   -7677.0732    19.871658    28654.484    1.9964419 
    5330    397.55503   -7721.2535   -7676.9057    217.95279    28604.785    1.9925373 
    5340    399.20662   -7721.2029   -7676.6708    329.28195    28556.703    1.9890599 
    5350    409.17641   -7722.0134   -7676.3692    378.31293    28510.808    1.9865594 
    5360    415.35208   -7722.3457   -7676.0126    592.97812    28467.438    1.9852225 
    5370    414.36473   -7721.8427   -7675.6197    966.09939    28427.635    1.9844445 
    5380    417.62255    -7721.793   -7675.2065    1282.9197    28393.054    1.9839403 
    5390    423.66462   -7722.0536   -7674.7931    1474.6824    28365.151    1.9839266 
    5400    429.18875   -7722.2891   -7674.4124    1526.3135    28344.743    1.9843908 
    5410    427.83516   -7721.8142   -7674.0885     1511.095    28331.981    1.9853991 
    5420    423.92329    -7721.117   -7673.8277    1435.4862    28326.692    1.9868875 
    5430    418.03667   -7720.2505   -7673.6179     1331.155    28328.442    1.9883157 
    5440     413.4892   -7719.5689   -7673.4436    1095.0207     28336.58    1.9886813 
    5450    413.69841   -7719.4376   -7673.2889    790.01655    28349.925    1.9875454 
    5460     415.4928    -7719.496   -7673.1472    591.97247    28367.043    1.9855759 
    5470    422.85371   -7720.1906   -7673.0207    264.75541      28386.8    1.9843179 
    5480    429.42405   -7720.8177   -7672.9148   -181.75341    28407.585    1.9855797 
    5490    427.45784   -7720.5261   -7672.8426    -489.4639    28427.325    1.9901129 
    5500    420.19131   -7719.6779    -7672.805   -620.48117    28444.542    1.9967961 
    5510     419.2842   -7719.5637   -7672.7919   -658.78153    28458.553    2.0034199 
    5520    414.99049   -7719.0842   -7672.7914   -438.17498    28469.287    2.0088485 
    5530    413.52194   -7718.9227   -7672.7937     -137.963    28477.795    2.0129885 
    5540    422.70213   -7719.9527   -7672.7997   -72.155394     28485.42    2.0172691 
    5550     427.1392   -7720.4739   -7672.8259   -100.91223    28492.582    2.0240647 
    5560    423.11081   -7720.0838   -7672.8852   -118.86438    28499.168    2.0331912 
    5570    416.99721   -7719.4864   -7672.9697   -55.205943    28505.144    2.0415627 
    5580    422.32868   -7720.1832   -7673.0718   -52.126755    28510.766    2.0464169 
    5590    427.49076   -7720.8916   -7673.2044   -42.064172    28516.061    2.0483733 
    5600    410.77265   -7719.1894   -7673.3671    119.89393    28521.167    2.0496333 
    5610    399.18184   -7718.0604   -7673.5311    215.96543    28526.786    2.0500559 
    5620    407.63301   -7719.1541    -7673.682    171.95723     28533.36    2.0488917 
    5630    417.12998   -7720.3675    -7673.836    111.29905    28540.737    2.0472987 
    5640    418.50947   -7720.7001   -7674.0148    44.581735    28548.595    2.0470036 
    5650    417.64226   -7720.8172   -7674.2286   -115.40947    28556.547    2.0484067 
    5660     412.8059   -7720.5255   -7674.4764   -253.23474    28563.873     2.049687 
    5670    410.00475   -7720.4894   -7674.7527   -312.00952    28569.902    2.0489778 
    5680    411.97834   -7721.0163   -7675.0595   -332.12741    28574.345    2.0472319 
    5690    413.05883   -7721.4812   -7675.4039   -285.11739    28577.161    2.0463753 
    5700    410.22967   -7721.5496   -7675.7878   -260.44892    28578.525    2.0475334 
    5710    406.14324   -7721.5011   -7676.1952   -251.60612    28578.598    2.0506551 
    5720    405.89838   -7721.8907   -7676.6121   -359.44814    28577.366    2.0550987 
    5730    399.88572   -7721.6186   -7677.0107   -382.21063    28574.436    2.0599711 
    5740    403.44909   -7722.3778   -7677.3724   -455.17632    28569.606    2.0637506 
    5750     408.9358   -7723.3122   -7677.6948   -412.13874    28562.634    2.0665203 
    5760    411.85303   -7723.9248    -7677.982   -256.04422    28553.748    2.0695191 
    5770    409.96691   -7723.9645    -7678.232    -176.1784    28543.641    2.0738882 
    5780    395.93052   -7722.5963   -7678.4297   -107.10527    28532.763    2.0794383 
    5790    385.70457   -7721.5801   -7678.5541   -110.74141    28521.416     2.084208 
    5800    391.85512   -7722.3218   -7678.6098   -184.81368    28509.589    2.0863295 
    5810    396.22901   -7722.8137   -7678.6138   -164.34085    28496.985    2.0851441 
    5820    398.04915   -7722.9874   -7678.5845    7.7642058    28483.753    2.0809374 
    5830    400.92341   -7723.2547   -7678.5311    212.51983    28470.685    2.0749816 
    5840      406.989   -7723.8646   -7678.4643    264.57026    28458.702    2.0688759 
    5850    409.65429   -7724.0937   -7678.3962    231.99322    28448.091    2.0641117 
    5860    403.57472   -7723.3485   -7678.3291    235.97235    28438.723    2.0617096 
    5870    402.68642   -7723.1745   -7678.2542    321.76881     28430.63    2.0610113 
    5880    412.52695   -7724.1882   -7678.1702    415.55346    28424.178    2.0613024 
    5890    415.52986   -7724.4422   -7678.0892    553.04635    28419.846    2.0637036 
    5900    413.39908   -7724.1377   -7678.0224    603.48843    28418.222    2.0688021 
    5910    413.15766   -7724.0549   -7677.9665    521.66402    28419.513    2.0756898 
    5920    413.72771   -7724.0693   -7677.9173    523.66241    28423.412    2.0829399 
    5930    415.18842   -7724.1877   -7677.8728    506.28238    28429.836    2.0894613 
    5940    415.51276   -7724.1856   -7677.8346    408.00288    28438.678    2.0947923 
    5950    408.48841   -7723.3666   -7677.7991    351.18572     28449.52    2.0989988 
    5960    404.56722   -7722.8866   -7677.7565    201.85675    28461.982    2.1025529 
    5970    408.11378   -7723.2231   -7677.6974    95.887982      28475.4    2.1062795 
    5980    411.94205   -7723.5784   -7677.6256    91.307076    28489.272    2.1111463 
    5990    402.80085   -7722.4746   -7677.5415    85.204121    28503.526    2.1180705 
    6000    398.85959   -7721.9268   -7677.4334   -107.94692    28518.034    2.1267328 
    6010    404.86833   -7722.4529   -7677.2892   -423.77528    28531.871    2.1357833 
    6020    406.34503   -7722.4423   -7677.1139   -525.38642    28543.634    2.1430294 
    6030    406.92997   -7722.3116   -7676.9179   -424.28445    28552.805    2.1465129 
    6040    411.59958   -7722.6185    -7676.704   -293.46858    28559.829    2.1461524 
    6050     418.4965   -7723.1632   -7676.4793   -257.77718    28565.305     2.143589 
    6060    417.07071   -7722.7813   -7676.2564   -193.62276    28569.471    2.1416209 
    6070    409.87042   -7721.7607    -7676.039   -98.410046    28572.661    2.1422231 
    6080    408.06382   -7721.3359   -7675.8157   -85.868595    28575.297    2.1452566 
    6090    412.15877   -7721.5553   -7675.5783   -99.376592    28577.489    2.1499824 
    6100    415.29295   -7721.6584   -7675.3318   -137.04307     28579.16    2.1562886 
    6110    414.95209    -7721.373   -7675.0845   -128.54197    28580.152    2.1639034 
    6120    418.63591   -7721.5396   -7674.8401    -101.4389    28580.503    2.1725336 
    6130    423.39263   -7721.8362   -7674.6062   -28.728815    28580.368    2.1823813 
    6140     416.9299   -7720.9026   -7674.3934     145.6081    28580.141    2.1933286 
    6150    408.75599    -7719.794   -7674.1967    281.37898    28580.624    2.2037593 
    6160    408.72877   -7719.5934   -7673.9991    349.67187    28582.466    2.2116799 
    6170    416.86831   -7720.3001   -7673.7978    396.00636    28586.027    2.2164841 
    6180     428.6909   -7721.4279   -7673.6068    326.91644    28591.469    2.2194978 
    6190    434.49525   -7721.9157   -7673.4471    234.01983     28598.51    2.2229639 
    6200    439.96294   -7722.4162   -7673.3377    158.71903    28606.711    2.2280758 
    6210    445.85423   -7723.0305   -7673.2948    -33.42177    28615.625    2.2346465 
    6220    444.50201    -7722.917   -7673.3321   -293.50176     28624.32    2.2426621 
    6230    434.00566   -7721.8567   -7673.4427   -495.18137    28631.547    2.2523359 
    6240    426.28577   -7721.1544   -7673.6016   -604.04247    28636.311    2.2624788 
    6250    423.07781   -7720.9844   -7673.7894   -549.76391    28638.115    2.2711315 
    6260    422.44391   -7721.1232    -7673.999   -444.04987     28637.19    2.2776105 
    6270      419.724   -7721.0484   -7674.2276   -469.98826    28633.995    2.2824848 
    6280    414.21761   -7720.6722   -7674.4656   -510.71456    28628.491    2.2851766 
    6290    407.42779   -7720.1458   -7674.6966   -458.43895    28620.506    2.2845848 
    6300    401.57117   -7719.6947   -7674.8988   -385.26844    28610.279     2.281071 
    6310    409.14577   -7720.7103   -7675.0695   -523.26221    28598.072    2.2762304 
    6320     413.9333   -7721.3969    -7675.222    -694.7854    28583.298    2.2721829 
    6330    406.84206   -7720.7422   -7675.3584   -629.49501    28565.234    2.2694535 
    6340    403.40283   -7720.4657   -7675.4655   -384.54089    28544.176    2.2663127 
    6350    410.04015   -7721.2814   -7675.5408   -59.392243    28521.308    2.2603303 
    6360    418.76441   -7722.3102   -7675.5963    220.23797     28498.19    2.2500062 
    6370     425.0125   -7723.0615   -7675.6507    369.87176    28476.171    2.2355538 
    6380    426.61408   -7723.3026   -7675.7132    516.40481     28456.04    2.2189539 
    6390    424.02945   -7723.0822   -7675.7811     703.2912    28438.538    2.2025371 
    6400    425.98626   -7723.3741   -7675.8547    764.19431    28424.509    2.1879584 
    6410    424.15427   -7723.2558   -7675.9407    682.19803    28414.204    2.1770977 
    6420    413.41904   -7722.1495    -7676.032    568.25295    28407.274    2.1704909 
    6430    411.71307   -7722.0442    -7676.117    309.61455    28403.093     2.165657 
    6440    413.12015   -7722.2741   -7676.1899    86.874816    28400.473    2.1596807 
    6450    418.16596   -7722.9059   -7676.2589   -14.237448    28398.335    2.1520111 
    6460    422.38709   -7723.4555   -7676.3376   -23.071914    28396.175    2.1443639 
    6470    415.83149   -7722.8155   -7676.4289     29.65621    28393.922    2.1378575 
    6480    412.79881   -7722.5702   -7676.5219    187.40848    28391.859    2.1319878 
    6490    420.17923   -7723.4898   -7676.6182    298.86056    28390.691    2.1269528 
    6500    420.91339    -7723.683   -7676.7295    472.16849    28391.056    2.1236171 
    6510    416.20684    -7723.286   -7676.8575    497.81541    28393.667     2.121533 
    6520    416.73251   -7723.4833   -7676.9962    368.08671    28398.656    2.1200536 
    6530    414.22535     -7723.35   -7677.1425    321.48945    28405.483    2.1200805 
    6540    407.35617   -7722.7328   -7677.2916    339.30118    28413.911    2.1231398 
    6550    401.02681   -7722.1652   -7677.4301     240.2603    28423.949    2.1295126 
    6560    396.46701   -7721.7708   -7677.5443    188.26943    28435.198     2.137503 
    6570    401.64872   -7722.4357   -7677.6312    96.971153    28447.357    2.1445931 
    6580    407.50429    -7723.158   -7677.7003   -30.801737    28459.986    2.1501819 
    6590    398.55649    -7722.215   -7677.7554    40.670546     28472.57     2.155177 
    6600     393.8766   -7721.7222   -7677.7846    99.960221     28485.35    2.1597523 
    6610    405.87316   -7723.0572   -7677.7814    54.400047    28498.575    2.1643724 
    6620    412.81891   -7723.8087   -7677.7581    74.967862    28512.118    2.1704611 
    6630    408.65912   -7723.3137   -7677.7271    36.849063    28526.027    2.1785787 
    6640     406.0289   -7722.9783   -7677.6851   -39.673491    28540.112    2.1884053 
    6650    405.52313   -7722.8641   -7677.6274   -37.604292    28554.048    2.1992177 
    6660    405.41189   -7722.7766   -7677.5523   -30.827177    28567.817    2.2093445 
    6670    407.40772   -7722.9033   -7677.4563   -48.216946    28581.431    2.2168552 
    6680    412.75124     -7723.38    -7677.337   -81.846671    28594.816    2.2215757 
    6690    411.17445   -7723.0631    -7677.196   -115.20882    28607.807    2.2247114 
    6700    412.56175    -7723.055   -7677.0331   -250.66371    28620.164    2.2268149 
    6710    421.11413   -7723.8239    -7676.848   -388.35253    28631.282    2.2284087 
    6720    430.99265   -7724.7382   -7676.6603   -505.98836    28640.455    2.2300692 
    6730    437.47483   -7725.2993   -7676.4983   -468.28757    28647.158    2.2318199 
    6740    436.13351   -7725.0321   -7676.3807   -264.79956    28651.602    2.2334217 
    6750    438.17054   -7725.1936    -7676.315   -139.95648    28654.669     2.234445 
    6760    433.17052   -7724.6263   -7676.3055   -50.041602    28657.022    2.2354311 
    6770    417.73776   -7722.9431   -7676.3439   -27.384403    28659.098    2.2366029 
    6780    407.56722   -7721.8691   -7676.4044   -74.316915    28661.026    2.2369157 
    6790    403.14059   -7721.4341   -7676.4631   -123.18935    28662.613    2.2356606 
    6800    402.56393   -7721.4177   -7676.5111   -224.65431    28663.566    2.2336108 
    6810    404.39754   -7721.6555   -7676.5443   -361.90713    28663.375     2.232295 
    6820    411.23435   -7722.4418    -7676.568   -504.27688    28661.381     2.232306 
    6830    412.62648   -7722.6209   -7676.5918    -609.4655    28656.894    2.2336229 
    6840    408.63783   -7722.2015   -7676.6173     -607.271    28649.399    2.2356125 
    6850    413.42071   -7722.7589   -7676.6412   -528.55015    28638.894    2.2376673 
    6860    419.85007   -7723.5049     -7676.67   -419.28343    28625.743    2.2404445 
    6870    420.98132   -7723.6806   -7676.7195   -381.75381    28610.427    2.2447525 
    6880      419.646   -7723.6097   -7676.7975   -424.07502    28593.153    2.2507848 
    6890    416.97401   -7723.4184   -7676.9043   -333.38054    28573.804    2.2585511 
    6900    411.54126   -7722.9357   -7677.0277   -35.118431    28552.855    2.2673649 
    6910    410.61776   -7722.9627   -7677.1577    259.55546    28531.668    2.2760653 
    6920    410.98607    -7723.138   -7677.2919    492.34469    28511.701    2.2836286 
    6930    408.97649   -7723.0553   -7677.4334    685.00983    28494.127    2.2892408 
    6940    405.26465   -7722.7861   -7677.5782    747.50864    28479.845    2.2928053 
    6950    406.64046   -7723.0859   -7677.7245    649.16063    28469.152    2.2952026 
    6960     407.4954   -7723.3292   -7677.8725    535.04504    28461.626    2.2985162 
    6970    402.74022   -7722.9445   -7678.0182    551.71448     28456.79    2.3040532 
    6980    400.91926   -7722.8749   -7678.1518    574.07575    28454.663    2.3110293 
    6990     407.4686   -7723.7279   -7678.2742    537.12504    28455.334    2.3182023 
    7000    408.08673   -7723.9155   -7678.3928    444.02977    28458.617    2.3255356 
    7010    400.18618    -7723.147   -7678.5056    421.06615    28464.155    2.3331562 
    7020    397.13175   -7722.8975   -7678.5969    287.32954    28471.757    2.3401491 
    7030    410.57131   -7724.4641   -7678.6643    71.846009    28480.808    2.3460705 
    7040    426.26265   -7726.2851   -7678.7349   -118.62138      28490.3    2.3519377 
    7050    424.74915   -7726.2191   -7678.8377   -216.37508    28499.317    2.3581816 
    7060    418.35911   -7725.6453   -7678.9767   -229.11657    28507.354    2.3642446 
    7070    413.26206   -7725.2401   -7679.1401   -133.93571     28514.36    2.3694636 
    7080    407.60831   -7724.7852   -7679.3159    31.909049    28520.775    2.3731664 
    7090    401.05918   -7724.2286   -7679.4898    218.46057    28527.417    2.3751292 
    7100    392.47645   -7723.4259   -7679.6446    295.98642    28535.147    2.3761985 
    7110    390.89504    -7723.369   -7679.7641    277.66795    28544.389    2.3774293 
    7120    402.01744   -7724.6974   -7679.8517    190.59616    28555.064    2.3796156 
    7130     407.6607   -7725.3947   -7679.9195    116.20211    28566.795    2.3829518 
    7140    407.92964    -7725.484   -7679.9788   -86.256498    28579.151    2.3861336 
    7150    403.95838   -7725.0901   -7680.0279   -344.01142    28591.163    2.3871901 
    7160    396.16613   -7724.2532   -7680.0603   -483.71995    28601.614    2.3854531 
    7170    384.08479   -7722.9022    -7680.057    -467.1747    28609.812    2.3827958 
    7180    380.90208   -7722.4885   -7679.9983   -422.20678    28615.761    2.3803977 
    7190    385.52698   -7722.8726   -7679.8665   -453.07647    28619.614    2.3791228 
    7200    393.11129   -7723.5086   -7679.6564   -433.80099    28621.267     2.380421 
    7210    400.57116   -7724.0595   -7679.3752   -458.43025    28620.715     2.384886 
    7220    406.14424   -7724.3431   -7679.0371   -368.25253    28617.921    2.3911357 
    7230    410.29373   -7724.4275   -7678.6586   -131.03908    28613.327    2.3965796 
    7240    416.17858   -7724.6855   -7678.2602    154.23333    28608.065    2.3996489 
    7250    418.40666    -7724.542   -7677.8681    360.38935    28603.477    2.4014548 
    7260    411.42226   -7723.4002   -7677.5054    544.06298     28600.64    2.4037299 
    7270    404.21492   -7722.2644   -7677.1736    700.50449    28600.479     2.406779 
    7280    404.82722   -7722.0193   -7676.8602    932.65427    28603.883     2.411417 
    7290    412.54663   -7722.5884   -7676.5682    1027.5021    28611.938    2.4188242 
    7300    413.79469    -7722.471   -7676.3116    1045.6031    28625.225    2.4271381 
    7310    411.10043    -7721.957   -7676.0982    1054.4894    28643.976    2.4318595 
    7320    407.62989   -7721.3867    -7675.915    810.21921    28668.199    2.4308105 
    7330    412.21363   -7721.7294   -7675.7464    375.05249    28696.795    2.4264475 
    7340    423.03985   -7722.7836   -7675.5928   -10.575604    28727.759     2.422538 
    7350    426.74334   -7723.0739     -7675.47   -217.16197    28759.255    2.4218589 
    7360    426.11374   -7722.9213   -7675.3877   -365.96753    28790.189    2.4260204 
    7370    425.78959   -7722.8379   -7675.3404   -548.98884    28819.756    2.4343197 
    7380    424.54975   -7722.6837   -7675.3245   -744.00001    28847.014    2.4437253 
    7390    419.29359   -7722.1053   -7675.3325   -804.18548    28870.984    2.4502332 
    7400    417.19328   -7721.8965    -7675.358   -736.99924    28891.311    2.4516367 
    7410    417.66742   -7721.9857   -7675.3943   -789.65681    28908.175    2.4490533 
    7420    419.83546   -7722.2762   -7675.4429   -949.10507    28921.256    2.4453518 
    7430    417.01247   -7722.0247   -7675.5063   -1064.2805    28929.734    2.4434662 
    7440    412.19294   -7721.5619   -7675.5812   -1253.0918     28932.85    2.4446791 
    7450    407.75242   -7721.1449   -7675.6595   -1470.1331    28929.561    2.4489468 
    7460    406.23482   -7721.0496   -7675.7335   -1517.6042    28918.737    2.4548308 
    7470    414.17129   -7722.0084    -7675.807   -1441.0543    28899.955    2.4602728 
    7480    417.83117   -7722.4988   -7675.8891   -1292.1999    28873.452    2.4648055 
    7490    415.97298   -7722.3897   -7675.9873   -1089.4544    28839.861    2.4692272 
    7500    414.09666   -7722.2897   -7676.0966   -866.47725    28800.073     2.474411 
    7510    410.80407   -7722.0365   -7676.2107   -602.27903    28755.144    2.4804299 
    7520    405.29728   -7721.5288   -7676.3173   -243.12206    28706.394    2.4863722 
    7530    405.32387   -7721.6209   -7676.4064    79.946064    28655.511    2.4903721 
    7540    410.75122   -7722.3013   -7676.4814    329.30373    28604.138    2.4920339 
    7550    410.47498    -7722.346   -7676.5569     429.1608    28553.491    2.4927964 
    7560    405.78176   -7721.8964   -7676.6309    517.32982    28504.204    2.4937364 
    7570    408.40804   -7722.2575   -7676.6989    524.28761    28456.721    2.4955368 
    7580    409.47309   -7722.4422   -7676.7648    596.69962    28411.184    2.4984941 
    7590    405.52123   -7722.0649   -7676.8284     760.4495     28368.04    2.5010571 
    7600    404.00514   -7721.9571   -7676.8897    802.56917    28328.046    2.5010209 
    7610    401.34071   -7721.7181   -7676.9479    885.16101    28291.539    2.4982509 
    7620    398.38544   -7721.4342   -7676.9937    1055.9005    28258.989    2.4945806 
    7630    400.92059    -7721.743   -7677.0197    1177.7037    28231.211    2.4914334 
    7640    405.27085   -7722.2353   -7677.0267    1220.7344    28208.855     2.489622 
    7650    407.68647   -7722.4981   -7677.0201    1270.6461    28192.214    2.4901787 
    7660    407.46274   -7722.4553   -7677.0022    1407.6462    28181.616    2.4938546 
    7670      410.855   -7722.8112   -7676.9797    1448.7351    28177.712    2.4993933 
    7680     411.6042   -7722.8751   -7676.9601    1398.7386    28180.795    2.5035097 
    7690    413.00478   -7723.0197   -7676.9484    1233.5084    28190.658    2.5039051 
    7700    412.50272   -7722.9564   -7676.9411    1160.4956    28206.688    2.5017206 
    7710    412.38706   -7722.9381   -7676.9357    1143.6423    28228.559    2.4987212 
    7720    417.64132   -7723.5172   -7676.9287    1035.6314    28256.179    2.4952432 
    7730     422.4572   -7724.0538   -7676.9281    975.75022    28289.148    2.4915212 
    7740    415.10962   -7723.2464   -7676.9403     1017.566    28327.247    2.4889199 
    7750    412.66318   -7722.9896   -7676.9564     839.8057    28370.529    2.4891166 
    7760     418.6399   -7723.6671   -7676.9672    448.72667    28418.147    2.4935611 
    7770    412.15555   -7722.9511   -7676.9745     116.9952    28468.292    2.5022341 
    7780    400.75512   -7721.6781   -7676.9733    15.891202    28519.359    2.5134867 
    7790    406.55167   -7722.3037   -7676.9522   -16.126223    28570.721    2.5256049 
    7800    415.80886   -7723.2988   -7676.9147   -27.042733    28622.159    2.5371926 
    7810    422.73972   -7724.0393    -7676.882   -130.23464    28673.508    2.5461731 
    7820    429.31438   -7724.7633   -7676.8726   -269.97996     28724.24    2.5524324 
    7830    427.08069   -7724.5432   -7676.9017   -335.01332    28773.647    2.5584785 
    7840    422.47487   -7724.0968   -7676.9691   -441.29455    28821.321    2.5664073 
    7850    425.34393   -7724.5173   -7677.0696   -642.34287    28866.653    2.5770019 
    7860    421.01522   -7724.1709   -7677.2061   -669.47639    28908.725    2.5903878 
    7870    407.30474   -7722.8047   -7677.3692   -579.58383    28947.359    2.6047576 
    7880    401.68361   -7722.3422   -7677.5338   -565.13892     28982.92    2.6168083 
    7890    403.46293    -7722.693   -7677.6861   -677.73373    29015.452    2.6251411 
    7900    405.02774   -7723.0038   -7677.8224   -945.20551    29044.338    2.6300995 
    7910    413.32201   -7724.0595   -7677.9528   -1243.4731    29068.271    2.6323526 
    7920    416.37233   -7724.5401   -7678.0931   -1381.3627    29085.823    2.6334251 
    7930    411.70419   -7724.1772   -7678.2509   -1330.6583    29096.303    2.6341195 
    7940    411.82789   -7724.3627   -7678.4226   -1172.0112    29099.952    2.6340074 
    7950    409.20294   -7724.2514   -7678.6041   -984.85229    29097.573    2.6323431 
    7960    404.48678   -7723.9071   -7678.7859   -891.37521    29090.103    2.6283508 
    7970    402.27128   -7723.8335   -7678.9595   -853.34248    29078.066    2.6224027 
    7980    393.17425    -7722.969   -7679.1099   -743.66606    29061.731     2.615793 
    7990    392.13485   -7722.9666   -7679.2234   -601.60655    29041.681    2.6088061 
    8000    403.98438   -7724.3668   -7679.3017    -523.1678    29018.605    2.6013552 
    8010    411.92522   -7725.3132   -7679.3623   -315.11741    28993.028    2.5934824 
    8020    412.83503   -7725.4732   -7679.4208   -99.322322    28965.973    2.5848944 
    8030    414.00015   -7725.6682   -7679.4859   -46.311993    28938.461      2.57493 
    8040    409.38351   -7725.2255   -7679.5582    51.867928    28910.879     2.564301 
    8050    397.83107   -7724.0014   -7679.6227    248.44862    28883.752    2.5540536 
    8060    397.05687   -7723.9539   -7679.6616    375.92107    28858.012    2.5437221 
    8070    404.61403   -7724.8093    -7679.674    292.83164    28834.212    2.5329821 
    8080    406.40058   -7725.0021   -7679.6675    248.21911    28812.042    2.5218124 
    8090    413.69308   -7725.7982   -7679.6501    247.38085    28791.264    2.5102256 
    8100    420.74151   -7726.5676   -7679.6333    382.21915     28771.91    2.4996135 
    8110    422.05111   -7726.7105   -7679.6301    628.42271    28754.632    2.4915476 
    8120    424.67366   -7727.0265   -7679.6536    766.94483    28740.566    2.4868619 
    8130    413.98811   -7725.8856   -7679.7046     737.5494    28730.343    2.4854719 
    8140    406.27211    -7725.091   -7679.7707    636.93998    28723.841    2.4850077 
    8150    411.77978    -7725.777   -7679.8423     510.3876    28720.548    2.4832301 
    8160    414.06329   -7726.1165   -7679.9271    476.89545    28719.859    2.4793759 
    8170    401.69687   -7724.8346   -7680.0247      570.184    28721.607    2.4731713 
    8180    392.56757   -7723.9018   -7680.1103    597.60317    28726.184    2.4647294 
    8190    400.05487   -7724.7961   -7680.1694    330.95053    28733.581    2.4558957 
    8200    395.18975   -7724.2796   -7680.1956    207.32549    28742.713    2.4495537 
    8210    389.65101   -7723.6497   -7680.1836    22.005987    28752.836    2.4467302 
    8220    397.85297   -7724.5023   -7680.1212   -260.75523    28763.008    2.4472105 
    8230    408.79864   -7725.6167   -7680.0146   -312.28105    28771.955    2.4500918 
    8240    411.91226   -7725.8348   -7679.8854    -177.2141    28779.391     2.453725 
    8250    409.47947   -7725.4201   -7679.7421   -161.56388    28785.868    2.4571064 
    8260    416.01498   -7725.9914   -7679.5843   -257.96253    28791.485    2.4596049 
    8270     421.3325   -7726.4195   -7679.4192   -263.88001    28795.838    2.4609918 
    8280    415.30681   -7725.5876   -7679.2595   -122.01729    28798.935    2.4615043 
    8290    407.45934   -7724.5523   -7679.0996   -28.843039    28801.397    2.4614055 
    8300    409.24429   -7724.5768    -7678.925   -30.439167    28803.681    2.4610926 
    8310    419.72139   -7725.5559   -7678.7353   -113.39353    28805.783    2.4616895 
    8320    423.49944   -7725.7895   -7678.5475    -119.3748    28807.357    2.4643921 
    8330    416.91766   -7724.8811   -7678.3733   -121.09344    28808.335    2.4691645 
    8340    419.82987   -7725.0399   -7678.2073   -271.93296    28808.618    2.4746142 
    8350    424.93879   -7725.4536    -7678.051   -356.84053    28807.556    2.4807781 
    8360    417.73669   -7724.5119   -7677.9127   -306.92872    28804.775    2.4886342 
    8370    414.39902   -7724.0158    -7677.789   -315.72941     28800.42    2.4968766 
    8380    406.22281   -7722.9804   -7677.6656   -278.00104     28794.51    2.5032389 
    8390    399.06821   -7722.0451   -7677.5285    -287.6542    28787.168    2.5064265 
    8400    406.44422   -7722.7005   -7677.3611    -360.3657    28778.338    2.5070256 
    8410    414.80611   -7723.4389   -7677.1666   -370.81008      28767.7    2.5065845 
    8420    410.12847   -7722.7114   -7676.9609   -207.72877    28755.273    2.5060189 
    8430    405.72463   -7722.0037   -7676.7445   -116.24057    28741.753    2.5056057 
    8440    412.69793   -7722.5445   -7676.5074   -143.05947     28727.59     2.506012 
    8450    421.66619   -7723.2962   -7676.2587   -209.24504    28712.669    2.5084491 
    8460    419.48169   -7722.8109   -7676.0171   -109.68775    28696.752    2.5134281 
    8470    412.10223   -7721.7543   -7675.7837     69.30974    28680.305    2.5194455 
    8480    420.30537   -7722.4371   -7675.5514    67.280832    28664.101    2.5241922 
    8490    427.20543    -7722.985   -7675.3296    104.10583    28648.254     2.527964 
    8500     429.8372   -7723.0882   -7675.1392    199.63842    28632.938    2.5323508 
    8510    435.57491   -7723.5812   -7674.9921    260.60438     28618.58    2.5380305 
    8520    438.12616   -7723.7703   -7674.8967    296.88891    28605.517    2.5441033 
    8530    446.49489   -7724.6757   -7674.8685    179.28773    28593.843    2.5490447 
    8540    442.88827   -7724.3241   -7674.9192    260.91488    28583.144    2.5521677 
    8550    430.20522   -7723.0301     -7675.04    563.13389    28573.818    2.5524296 
    8560    430.28634   -7723.2105   -7675.2115    856.16231    28567.269    2.5503179 
    8570    435.41488   -7724.0108   -7675.4396     1072.754    28564.939    2.5486185 
[...]
   22890    427.60281   -7727.1147    -7679.415    96.453617    28578.735    4.3018388 
   22900    428.84122   -7726.9275   -7679.0897   -136.09243    28572.513    4.3035216 
   22910      430.161   -7726.7616   -7678.7765   -317.07037    28565.583     4.306975 
   22920    424.68741   -7725.8564   -7678.4819   -324.50624    28557.091    4.3113395 
   22930    422.04384    -7725.285   -7678.2054   -303.62374    28546.895    4.3164424 
   22940      425.274   -7725.3815   -7677.9415   -243.41569    28535.103    4.3228132 
   22950    423.33903   -7724.9197   -7677.6956   -225.17389    28521.951    4.3310908 
   22960    416.58116   -7723.9395   -7677.4693   -129.56116    28507.583     4.341342 
   22970    419.10107   -7724.0024    -7677.251   -3.9309359    28492.437    4.3527418 
   22980    429.16994   -7724.9159   -7677.0414    181.37039    28477.148    4.3638474 
   22990    433.81759   -7725.2527   -7676.8597    360.65034    28462.579     4.374121 
   23000    431.50307   -7724.8569   -7676.7221    436.92124    28449.587    4.3845873 
   23010      426.215    -7724.171   -7676.6261    412.80564     28438.57    4.3946752 
   23020    428.95391   -7724.4168   -7676.5664    256.40212    28429.396    4.4018216 
   23030    430.20593    -7724.532   -7676.5419    246.59644    28421.491    4.4056352 
   23040    430.19301   -7724.5456    -7676.557    305.83191    28414.741    4.4074952 
   23050    434.00575   -7725.0313   -7676.6173    353.55062     28409.41    4.4094517 
   23060    438.79067   -7725.6857   -7676.7379    418.29033     28405.79     4.413703 
   23070    441.97016   -7726.2418   -7676.9394    515.34811    28404.218    4.4215828 
   23080    443.41247   -7726.7082   -7677.2449     625.6061    28405.187    4.4333909 
   23090    435.26368   -7726.2163    -7677.662    809.54609    28409.318    4.4483147 
   23100    432.11694   -7726.3759   -7678.1727    763.60458     28417.42    4.4641907 
   23110    433.05119   -7727.0646   -7678.7571    435.37698     28429.28    4.4802596 
   23120    415.82283    -7725.729   -7679.3433     319.2458    28443.578    4.4971659 
   23130     405.8243   -7725.1147   -7679.8444    262.97201    28459.696    4.5148954 
   23140    415.91875   -7726.6352   -7680.2388    88.748963     28477.29    4.5345094 
   23150    423.92584   -7727.8425   -7680.5529   -62.871507     28495.57    4.5566294 
   23160    415.44865   -7727.1476   -7680.8037   -79.884226    28513.857    4.5791058 
   23170    408.68297   -7726.5836   -7680.9944    -97.15586    28531.999    4.5983623 
   23180    409.19929   -7726.7826   -7681.1358   -211.93896    28549.857     4.613666 
   23190    402.79942   -7726.1718   -7681.2389    -233.2985    28566.946    4.6283212 
   23200    394.54711   -7725.3171   -7681.3047   -166.86133    28583.142    4.6455558 
   23210    396.04073   -7725.5106   -7681.3317   -170.27462    28598.698    4.6653179 
   23220    401.04394   -7726.0607   -7681.3236   -199.47452    28613.616      4.68576 
   23230     406.2714   -7726.6111   -7681.2909   -245.31615    28627.718    4.7044994 
   23240    409.02508     -7726.87   -7681.2426   -267.01685    28640.783    4.7198797 
   23250    406.89047    -7726.574   -7681.1847   -236.69166    28652.702     4.731525 
   23260    407.24011   -7726.5457   -7681.1175   -254.59634    28663.576    4.7403117 
   23270    409.83425   -7726.7589   -7681.0413   -299.47302    28673.307     4.748074 
   23280    411.02075   -7726.8107   -7680.9607   -251.65945    28681.701    4.7562412 
   23290    417.12343   -7727.4108   -7680.8801   -214.85348    28688.942    4.7647967 
   23300     424.7199   -7728.1875   -7680.8093   -243.87996    28695.166    4.7733329 
   23310    418.78676   -7727.4747   -7680.7584   -83.079522    28700.343    4.7810859 
   23320    413.35298   -7726.8317   -7680.7215    211.95874    28705.242    4.7857653 
   23330    421.50892   -7727.7101   -7680.6901    380.45909    28711.221    4.7865458 
   23340    430.12984   -7728.6591   -7680.6775    430.03383    28719.162    4.7853317 
   23350    425.00165   -7728.1099   -7680.7004    466.61463    28729.391    4.7839616 
   23360    415.45804   -7727.0955   -7680.7505    350.59687    28742.068    4.7824348 
   23370    415.07993   -7727.1156   -7680.8128    4.5642535    28756.591    4.7799552 
   23380     408.9752   -7726.4989   -7680.8771   -219.02415    28771.401    4.7774131 
   23390    404.21567    -7726.025   -7680.9342   -229.04492    28785.398     4.775093 
   23400    405.51383   -7726.2096   -7680.9739    -228.5136    28798.412    4.7726906 
   23410    409.07932   -7726.6345   -7681.0011   -216.23683    28810.441    4.7692116 
   23420    406.43576   -7726.3581   -7681.0196   -204.59234    28821.516    4.7635635 
   23430    403.76123   -7726.0658   -7681.0256   -292.11654    28831.638    4.7552061 
   23440    408.64299   -7726.5995   -7681.0148   -424.44751    28840.368    4.7436991 
   23450    409.69796   -7726.6949   -7680.9925   -462.86564    28847.078    4.7287882 
   23460    405.53525   -7726.2008   -7680.9627    -379.8867     28851.58    4.7104182 
   23470     403.3264   -7725.9114   -7680.9197   -340.07344    28854.174    4.6898685 
   23480     401.9571   -7725.6936   -7680.8547   -367.79788    28855.039    4.6708186 
   23490    403.02011   -7725.7194   -7680.7619   -544.80876    28853.966    4.6573134 
   23500    408.79314   -7726.2423   -7680.6408   -709.24117    28850.121    4.6499129 
   23510    418.61342   -7727.1973   -7680.5003    -700.7236      28842.7    4.6461574 
   23520    425.97153   -7727.8746   -7680.3569   -519.91172    28831.698    4.6443309 
   23530    425.33592   -7727.6733   -7680.2264   -337.36624    28817.927    4.6426359 
   23540    420.62838    -7727.035   -7680.1133   -304.66783    28802.206    4.6380913 
   23550    419.58064   -7726.8154   -7680.0105   -327.67288    28784.765    4.6289067 
   23560    420.39313    -7726.813   -7679.9175    -401.5361    28765.426    4.6153394 
   23570    410.81624   -7725.6565   -7679.8294   -180.72051    28743.964    4.5987307 
   23580    405.53051   -7724.9653   -7679.7277    195.18835     28721.41    4.5810013 
   23590     410.4554    -7725.386   -7679.5991    371.75298    28699.456    4.5655993 
   23600     411.7306   -7725.3751    -7679.446    368.50118    28679.042    4.5550993 
   23610    413.90912   -7725.4491   -7679.2769    197.93727    28660.168    4.5493885 
   23620    413.77662   -7725.2478   -7679.0904    81.407829    28642.101    4.5472831 
   23630    419.42798   -7725.6768   -7678.8889    27.990368    28624.246    4.5470051 
   23640     425.8283   -7726.1821   -7678.6803    24.696138    28606.352    4.5467015 
   23650     432.5649   -7726.7402    -7678.487    32.113539    28588.364    4.5443568 
   23660    431.67104   -7726.4783   -7678.3247    177.49062    28570.364    4.5387588 
   23670    426.05504   -7725.7261    -7678.199    398.95334    28553.071    4.5308072 
   23680    422.16809   -7725.1943   -7678.1008    501.07321    28537.514    4.5232444 
   23690    420.03387   -7724.8764    -7678.021    585.23293    28524.276    4.5176729 
   23700    412.19379   -7723.9331   -7677.9522    595.70755    28513.741    4.5138286 
   23710    404.52418   -7723.0037   -7677.8785    588.37512    28506.042    4.5113164 
   23720    407.95472   -7723.2902   -7677.7822    542.16528    28501.177    4.5103273 
   23730    418.15317   -7724.3082   -7677.6626    464.44308    28498.937    4.5116007 
   23740    428.61583   -7725.3507   -7677.5379    374.14743    28498.961    4.5153573 
   23750    430.42732   -7725.4468    -7677.432    426.95937    28500.932     4.521086 
   23760    427.28396   -7725.0196   -7677.3554    546.46608    28505.085     4.527796 
   23770    427.76355   -7725.0247   -7677.3071    663.04864    28512.017    4.5344004 
   23780    428.36468    -7725.074   -7677.2893     717.1605    28522.331    4.5396554 
   23790    433.13538   -7725.6278   -7677.3109    571.45061     28536.26    4.5416321 
   23800    437.19942    -7726.158   -7677.3878    382.22471    28553.211    4.5401345 
   23810     433.5614   -7725.9002   -7677.5357    291.30584    28572.346    4.5368225 
   23820    426.67965   -7725.3525   -7677.7557    311.77102    28593.259    4.5329007 
   23830    418.93208   -7724.7664   -7678.0339    286.87876    28616.001    4.5294297 
   23840     412.3705   -7724.3492   -7678.3487    169.49864    28640.453    4.5282009 
   23850    407.18611   -7724.1016   -7678.6794    77.646743    28666.109    4.5301188 
   23860    406.13066   -7724.3132   -7679.0087    26.015914    28692.507    4.5344553 
   23870    409.31337   -7724.9921   -7679.3326   -84.943731    28719.348     4.540609 
   23880    409.22133   -7725.2933   -7679.6441   -318.73874    28746.057    4.5487903 
   23890    409.95075   -7725.6704   -7679.9397   -651.20792    28771.461    4.5588878 
   23900    405.77823   -7725.4743   -7680.2091   -986.04312    28793.896    4.5694068 
   23910    405.48653   -7725.6785   -7680.4459   -1177.0764    28811.672    4.5771315 
   23920    410.36564   -7726.4324   -7680.6555   -1228.1256    28823.744    4.5811838 
   23930    414.08475   -7727.0451   -7680.8534   -1265.2082    28829.729    4.5836036 
   23940    405.92515   -7726.3207   -7681.0391    -1274.737    28829.374    4.5861082 
   23950     399.7455   -7725.7922      -7681.2   -1349.0661     28822.49    4.5876472 
   23960    402.32579   -7726.2128   -7681.3328   -1406.9943    28808.664    4.5863232 
   23970    404.37182     -7726.55   -7681.4417   -1312.8263    28787.607    4.5819238 
   23980    411.50394   -7727.4385   -7681.5347   -1146.9237    28759.693    4.5753548 
   23990    421.90524   -7728.6914   -7681.6273    -1022.295    28725.636    4.5675932 
   24000    426.80962   -7729.3457   -7681.7345   -710.48077    28686.155    4.5591274 
   24010    432.53331   -7730.1162   -7681.8665   -393.06965    28642.687    4.5497765 
   24020    431.72844   -7730.1922   -7682.0323   -114.06791    28596.823    4.5393368 
   24030    423.04789   -7729.4135   -7682.2219    262.53816    28550.024     4.527634 
   24040    418.17888   -7729.0652   -7682.4167    552.56823    28504.104    4.5152707 
   24050    415.71159   -7728.9799   -7682.6067    675.14038    28460.503    4.5035999 
   24060    419.16891    -7729.552   -7682.7931    760.03618     28419.91    4.4923745 
   24070    423.39442   -7730.2157   -7682.9854    867.33289    28382.801    4.4807694 
   24080    416.94747   -7729.6968   -7683.1857    869.89673    28349.666     4.469365 
   24090     404.9021   -7728.5443   -7683.3768    735.48826    28320.539    4.4585086 
   24100    400.96674   -7728.2647   -7683.5363    677.19956    28294.864    4.4479908 
   24110    408.62231   -7729.2426   -7683.6602    789.91086    28272.403     4.437746 
   24120     417.3538   -7730.3196   -7683.7632    1075.1548     28253.75    4.4295541 
   24130    420.04128   -7730.7196   -7683.8634    1274.4718    28240.179    4.4261408 
   24140    416.95382   -7730.4817   -7683.9698    1347.3633    28232.683    4.4282154 
   24150    411.53572   -7729.9847   -7684.0773    1380.7613    28231.694     4.433474 
   24160    405.17461   -7729.3716   -7684.1737     1403.234     28237.42    4.4383049 
   24170    401.41763   -7729.0281   -7684.2494    1356.4443     28250.01    4.4401607 
   24180    402.98815   -7729.2535   -7684.2996    1126.2864    28269.248    4.4391133 
   24190    407.25364   -7729.7575   -7684.3277    925.96524    28294.169    4.4377588 
   24200    407.55846   -7729.8051   -7684.3414    837.32014    28323.883    4.4396026 
   24210    405.44108   -7729.5717   -7684.3441    731.37259     28357.94    4.4477425 
   24220    400.60654     -7729.02   -7684.3318    529.64547    28395.812    4.4634688 
   24230     394.6613   -7728.3179   -7684.2929    344.17822    28436.622    4.4842139 
   24240    396.37777   -7728.4365     -7684.22    58.700699    28479.389    4.5054721 
   24250    395.60912   -7728.2432   -7684.1124   -218.44754    28522.767    4.5235139 
   24260    389.58155   -7727.4325   -7683.9741   -434.94711    28565.361    4.5355167 
   24270    389.96405   -7727.3047   -7683.8037   -478.16093    28606.134    4.5406067 
   24280    402.73023   -7728.5312    -7683.606   -557.41005    28644.726    4.5416738 
   24290    413.46023   -7729.5226   -7683.4005   -716.80168    28680.707    4.5428943 
   24300    417.86834   -7729.8255   -7683.2116   -898.22226    28713.265    4.5461844 
   24310    418.39647   -7729.7253   -7683.0525   -971.93472    28741.505    4.5522927 
   24320    417.84994   -7729.5361   -7682.9243   -938.58432    28765.034    4.5619109 
   24330    419.70235   -7729.6439   -7682.8255   -1019.5051    28783.867    4.5739573 
   24340     412.8291   -7728.8035   -7682.7517   -1027.4609    28797.677    4.5860844 
   24350    406.03983   -7727.9855   -7682.6912   -1003.8917    28806.373    4.5956898 
   24360    408.78085   -7728.2327   -7682.6326   -1021.5046    28810.021    4.6026642 
   24370    406.94737    -7727.971   -7682.5754   -1078.8645    28808.489    4.6090562 
   24380    398.40232   -7726.9587   -7682.5164   -1077.1793    28801.525    4.6155399 
   24390    394.75402   -7726.4738   -7682.4384   -1084.6189    28789.076    4.6216743 
   24400    400.94083   -7727.0609   -7682.3353   -1110.4757    28771.075    4.6264168 
   24410    400.45024   -7726.8816   -7682.2108   -962.68611    28747.478    4.6284377 
   24420    402.94163   -7727.0183   -7682.0696   -690.47927    28719.009    4.6268033 
   24430    409.33036   -7727.5741   -7681.9126   -366.66865    28687.018    4.6224091 
   24440    408.36011   -7727.3006   -7681.7474   -115.35374    28653.072    4.6178733 
   24450    404.78006   -7726.7328    -7681.579     25.10795    28618.453    4.6158467 
   24460    405.83609   -7726.6756    -7681.404    115.99933    28583.917    4.6180036 
   24470    413.48652   -7727.3481   -7681.2231    270.80147     28549.98    4.6235913 
   24480    418.95393   -7727.7821   -7681.0472    472.19265    28517.409    4.6299271 
   24490    420.76038   -7727.8296   -7680.8932    523.14106    28487.116    4.6347477 
   24500    421.16293   -7727.7502   -7680.7688    417.32333    28459.351    4.6367135 
   24510     424.3084   -7728.0083    -7680.676    365.55953    28433.668    4.6356573 
   24520    423.36419   -7727.8414   -7680.6144    511.33065    28409.898    4.6333844 
   24530    422.25347   -7727.6826   -7680.5796    716.11089    28388.681    4.6312367 
   24540    424.76054   -7727.9547    -7680.572    802.02879    28370.939    4.6306985 
   24550     420.6045   -7727.5109   -7680.5919    813.76675    28357.111    4.6342116 
   24560    419.71235   -7727.4548   -7680.6353    828.85078    28347.284    4.6422328 
   24570    416.85131   -7727.1935   -7680.6931    831.80051    28341.524    4.6532776 
   24580    412.98279   -7726.8277   -7680.7588    748.64478    28339.793    4.6642777 
   24590    414.42654   -7727.0541   -7680.8242    622.95128    28341.717    4.6725596 
   24600    423.84292   -7728.1739   -7680.8935    446.90241    28346.667    4.6783348 
   24610    427.47013   -7728.6647   -7680.9798    384.75839    28353.883    4.6836091 
   24620    425.59653   -7728.5683   -7681.0924    394.98368    28363.041    4.6896476 
   24630    425.46257   -7728.6888   -7681.2278    273.45945    28374.091     4.697585 
   24640    426.11101   -7728.9178   -7681.3845      96.8615     28386.48    4.7084901 
   24650    422.37542   -7728.6722   -7681.5556    108.78571    28399.473    4.7224185 
   24660     425.5331   -7729.2103   -7681.7414    97.977782    28413.035     4.737189 
   24670    416.56831   -7728.4031   -7681.9343    58.272267    28427.125    4.7506985 
   24680      397.139   -7726.4048   -7682.1033    33.925644    28441.557     4.760425 
   24690    393.34104   -7726.0982   -7682.2205   -69.341746    28456.168    4.7646388 
   24700     401.2869   -7727.0477   -7682.2835    -214.0735     28470.48    4.7641962 
   24710    411.36571   -7728.2045    -7682.316   -459.16769    28483.711    4.7614909 
   24720    408.78703    -7727.939   -7682.3382   -646.95547    28494.739    4.7589582 
   24730    401.21172   -7727.1092   -7682.3534   -707.48327    28502.659    4.7560863 
   24740    400.57125   -7727.0361   -7682.3517   -762.01384      28507.1    4.7505147 
   24750    406.66614   -7727.6989   -7682.3347   -763.67117    28507.802    4.7410397 
   24760    410.74289   -7728.1305   -7682.3115   -598.77686    28504.813    4.7286427 
   24770    414.52305   -7728.5326   -7682.2919   -362.19092    28498.892    4.7152153 
   24780    413.86395   -7728.4435   -7682.2764   -190.90702     28491.14    4.7033139 
   24790    410.19909   -7728.0205   -7682.2621   -113.31885    28482.402     4.693699 
   24800    411.13832   -7728.1114   -7682.2483    -94.10037    28473.069    4.6849118 
   24810    403.80432    -7727.272    -7682.227     104.9194    28463.355    4.6758153 
   24820    401.99117   -7727.0299   -7682.1872    461.43282    28454.228    4.6661088 
   24830    411.75833   -7728.0582   -7682.1259    705.20548    28447.309    4.6567193 
   24840    418.80018   -7728.7776   -7682.0598    964.04225    28443.903    4.6495766 
   24850    421.86954   -7729.0698   -7682.0096     1094.139    28445.194    4.6462612 
   24860     427.0759   -7729.6286   -7681.9877    1096.5425    28451.836    4.6465996 
   24870     429.3147   -7729.8908   -7682.0001    998.65574    28463.835    4.6494009 
   24880    425.04153   -7729.4666   -7682.0525    917.27132    28480.757    4.6537925 
   24890    415.61171   -7728.4967   -7682.1346    829.37248    28502.202      4.65929 
   24900    407.23544   -7727.6508   -7682.2231    601.63702    28527.666    4.6651016 
   24910    399.87851   -7726.9008   -7682.2937    305.63834    28556.059    4.6703447 
   24920    397.61994   -7726.6879   -7682.3328    56.854985    28585.945    4.6748867 
   24930     399.2991   -7726.8812   -7682.3387   -47.354075    28616.126    4.6797444 
   24940    403.41651   -7727.3177    -7682.316    -162.8602    28646.002    4.6859529 
   24950    407.81875   -7727.7603   -7682.2675    -375.2719    28674.963    4.6935617 
   24960    411.19769   -7728.0715   -7682.2018   -592.54309    28701.976    4.7013587 
   24970    409.19722   -7727.7729   -7682.1264   -644.08317    28726.021     4.708121 
   24980     409.1932   -7727.6907   -7682.0446   -568.67063     28746.83    4.7116271 
   24990    408.72905    -7727.545   -7681.9507    -537.7131    28764.708    4.7092333 
   25000     411.6652   -7727.7638    -7681.842   -578.78857    28779.792    4.6999157 
Loop time of 19318.7 on 16 procs for 20000 steps with 864 atoms

Performance: 0.089 ns/day, 268.315 hours/ns, 1.035 timesteps/s
98.4% CPU use with 16 MPI tasks x 1 OpenMP threads

MPI task timing breakdown:
Section |  min time  |  avg time  |  max time  |%varavg| %total
---------------------------------------------------------------
Pair    | 16004      | 18141      | 19177      | 647.0 | 93.90
Bond    | 0.0025346  | 0.0081718  | 0.018398   |   4.5 |  0.00
Neigh   | 0.19803    | 0.22853    | 0.25593    |   3.5 |  0.00
Comm    | 110.33     | 1010.5     | 3286       |2598.6 |  5.23
Output  | 1.2572     | 1.2795     | 1.601      |   7.3 |  0.01
Modify  | 27.283     | 165.92     | 476.34     |1159.4 |  0.86
Other   |            | 0.1121     |            |       |  0.00

Nlocal:        54.0000 ave          60 max          43 min
Histogram: 1 1 1 0 0 4 0 3 3 3
Nghost:        399.188 ave         437 max         371 min
Histogram: 1 3 2 2 3 1 1 1 0 2
Neighs:         0.00000 ave           0 max           0 min
Histogram: 16 0 0 0 0 0 0 0 0 0
FullNghs:      1587.50 ave        1835 max        1145 min
Histogram: 1 1 1 0 1 2 3 2 1 4

Total # of neighbors = 25400
Ave neighs/atom = 29.398148
Ave special neighs/atom = 0.0000000
Neighbor list builds = 2000
Dangerous builds = 2000
Total wall time: 6:40:34
