LAMMPS (29 Sep 2021 - Update 3)
OMP_NUM_THREADS environment is not set. Defaulting to 1 thread. (src/comm.cpp:98)
  using 1 OpenMP thread(s) per MPI task
units	metal
atom_style	full

read_data	structureA.data
Reading data file ...
  orthogonal box = (0.79842954 0.18208550 -0.12238328) to (17.333100 17.949444 36.385441)
  2 by 2 by 4 MPI processor grid
  reading atoms ...
  432 atoms
  reading velocities ...
  432 velocities
Finding 1-2 1-3 1-4 neighbors ...
  special bond factors lj:    0        0        0       
  special bond factors coul:  0        0        0       
     0 = max # of 1-2 neighbors
     0 = max # of 1-3 neighbors
     0 = max # of 1-4 neighbors
     1 = max # of special neighbors
  special bonds CPU = 0.001 seconds
  read_data CPU = 0.036 seconds

pair_style	quip
pair_coeff	* * /ocean/projects/cts180021p/wuziqi/clease/mint-PD/PhaseDiagram-Clease/Liquid/GAP_potential/gap_LiKCl.xml "Potential xml_label=GAP_2021_9_27_0_1_17_37_618" 17 19 3

neighbor	0.3 bin
neigh_modify	delay 10

timestep	0.001
compute	msd all msd
thermo_style	custom step temp pe etotal press vol c_msd[4]
thermo	10
dump	1 all custom 10 xyz-melt.dump type id x y z
dump	2 all custom 10 force-melt.dump type id fx fy fz

fix     1 all npt temp 300 2000 $(100.0*dt) z 1.01325 1.01325 $(1000.0*dt) couple none
fix     1 all npt temp 300 2000 0.10000000000000000555 z 1.01325 1.01325 $(1000.0*dt) couple none
fix     1 all npt temp 300 2000 0.10000000000000000555 z 1.01325 1.01325 1 couple none
run     5000
Neighbor list info ...
  update every 1 steps, delay 10 steps, check yes
  max neighbors/atom: 2000, page size: 100000
  master list distance cutoff = 6.22
  ghost atom cutoff = 6.22
  binsize = 3.11, bins = 6 6 12
  1 neighbor lists, perpetual/occasional/extra = 1 0 0
  (1) pair quip, perpetual
      attributes: full, newton on
      pair build: full/bin
      stencil: full/bin/3d
      bin: standard
Per MPI rank memory allocation (min/avg/max) = 8.883 | 8.889 | 8.893 Mbytes
Step Temp PotEng TotEng Press Volume c_msd[4] 
       0    288.94399   -4172.4518   -4156.3544   -512.36848    10725.174            0 
      10    286.75734   -4172.3223   -4156.3468   -398.58908    10725.049 0.0027896326 
      20    292.80629   -4172.6355   -4156.3229   -322.03251    10724.892  0.010473536 
      30    293.81239   -4172.6498   -4156.2812   -234.06643    10725.058  0.021457455 
      40    296.29011   -4172.7286    -4156.222   -258.77726    10725.868  0.033153908 
      50     296.4913   -4172.6592   -4156.1413   -355.11368    10727.374  0.044154978 
      60    288.08772   -4172.0859   -4156.0362    -306.5751    10729.481  0.054622062 
      70    281.18824   -4171.5638   -4155.8984   -203.27553      10732.2  0.064812122 
      80    290.84359   -4171.9215   -4155.7183   -340.97188    10735.656  0.074806072 
      90    305.51878   -4172.5166   -4155.4958   -526.76362    10739.915  0.084925772 
     100    314.66466   -4172.7815   -4155.2512   -593.76176    10744.841  0.094897849 
     110    321.75434   -4172.9352   -4155.0099   -617.26474     10750.13   0.10391057 
     120    319.85126   -4172.6085   -4154.7893    -557.8416    10755.405   0.11180792 
     130    306.36142    -4171.664   -4154.5962   -331.04712    10760.279   0.11879699 
     140    307.24812   -4171.5377   -4154.4205   -180.92773    10764.467   0.12486379 
     150     313.1309   -4171.6944   -4154.2495   -1.8655702    10767.898   0.13093958 
     160    317.02129   -4171.7442   -4154.0826    184.99274    10770.746   0.13739127 
     170     327.4793   -4172.1592    -4153.915    97.555064    10772.985   0.14374501 
     180    329.65858   -4172.1117    -4153.746    124.21907    10774.068   0.14996429 
     190    315.42867   -4171.1497   -4153.5768    432.78728    10773.606   0.15568419 
     200    310.07268   -4170.6704   -4153.3959    691.32843    10771.739   0.15993123 
     210    318.23847   -4170.9169   -4153.1875      837.543     10768.74   0.16301095 
     220    324.22776   -4171.0135   -4152.9504    1013.4864     10764.95   0.16620567 
     230       324.59    -4170.777   -4152.6938    1148.4626    10760.954   0.17015471 
     240    326.26766   -4170.5995   -4152.4228    1244.0761    10757.316   0.17447651 
     250    323.76145   -4170.1789   -4152.1418    1326.2452    10754.282   0.17841621 
     260    331.21729   -4170.3051   -4151.8526    1143.1999    10751.764   0.18127361 
     270    332.38476   -4170.0722   -4151.5546    1062.7351    10749.592   0.18394771 
     280    327.66178   -4169.5105   -4151.2561    1077.1575    10747.752   0.18669056 
     290    343.66571   -4170.0951   -4150.9491    848.94627    10746.249   0.18880543 
     300    361.37102   -4170.7613   -4150.6289    529.19895    10744.922   0.19121197 
     310    352.87126   -4169.9738    -4150.315     851.3583    10743.645    0.1943681 
     320    349.44366   -4169.4781   -4150.0102    1337.4309     10742.83   0.19667653 
     330    346.47893   -4169.0012   -4149.6984    1689.7429    10743.079   0.19800161 
     340    341.36843   -4168.3972   -4149.3792    1998.5046    10744.722   0.19866983 
     350    342.31657   -4168.1172   -4149.0464    1946.9558    10747.669   0.19870156 
     360    348.00136   -4168.0832   -4148.6957    1635.5962    10751.561   0.19865318 
     370     355.9362     -4168.16   -4148.3304    1112.1232    10756.149   0.19893242 
     380    370.65025   -4168.6015   -4147.9521    283.42532    10761.104   0.19922314 
     390    387.99966   -4169.1808    -4147.565   -280.88026    10765.772   0.19931479 
     400     395.5994   -4169.2211   -4147.1818   -425.59678    10769.717    0.1997354 
     410    401.76212   -4169.1948   -4146.8122   -552.60848    10773.012   0.20066896 
     420    407.40577   -4169.1462   -4146.4492    -415.9315    10775.893   0.20227967 
     430    399.96791   -4168.3766   -4146.0939    143.95743    10778.363   0.20483808 
     440    392.56021   -4167.6113   -4145.7413    706.74186    10780.195   0.20764319 
     450    390.34152   -4167.1253   -4145.3789    998.22189    10781.176   0.20997255 
     460     394.1041    -4166.956        -4145    1118.5604    10781.315    0.2116986 
     470    399.71045   -4166.8727   -4144.6044    1176.3141     10780.86   0.21366705 
     480     408.8594   -4166.9746   -4144.1966    1137.1654     10780.11   0.21685831 
     490    404.69245    -4166.331   -4143.7851    1254.1647    10779.313   0.22155819 
     500    398.10677   -4165.5563   -4143.3773    1632.8624    10778.641   0.22712332 
     510    398.24748   -4165.1495   -4142.9627    1967.4189    10778.192   0.23328318 
     520     400.3931   -4164.8425   -4142.5362    2065.7904    10777.984   0.23963318 
     530    411.97082   -4165.0476   -4142.0963    1788.8206    10777.928   0.24514958 
     540    420.71273   -4165.0838   -4141.6454    1497.9882    10777.723   0.24954799 
     550    425.64523   -4164.9076   -4141.1944    1549.2603    10777.311    0.2528253 
     560    432.72974   -4164.8515   -4140.7436    1618.5647    10777.288   0.25560496 
     570    446.28132   -4165.1547   -4140.2919    1617.6549    10778.291   0.25894822 
     580    450.37451   -4164.9335   -4139.8426    1641.2599    10780.518   0.26387793 
     590    444.23733    -4164.154    -4139.405    1857.9776    10783.972    0.2704225 
     600    448.61891   -4163.9671    -4138.974    2056.1056    10788.961   0.27764421 
     610    442.63867   -4163.1997   -4138.5398    2425.9315    10795.794   0.28524534 
     620    437.81982   -4162.5006   -4138.1092    2639.0293    10804.684    0.2922366 
     630    456.45555   -4163.0966    -4137.667    2428.2719    10815.857   0.29715092 
     640    475.80226   -4163.7143   -4137.2068    2070.6463    10829.343   0.30090051 
     650    472.87417   -4163.0953   -4136.7509    1971.4409    10844.836   0.30504873 
     660    463.72614   -4162.1427    -4136.308    2364.1744    10861.952    0.3099016 
     670    451.45752   -4161.0181   -4135.8669    2765.0841    10880.416   0.31607292 
     680    452.65227   -4160.6305   -4135.4127    2641.4053    10900.013   0.32335465 
     690    476.11301   -4161.4499   -4134.9251    1949.5204    10920.435   0.33064652 
     700     491.1344   -4161.7754   -4134.4137    1510.6174    10941.287   0.33809446 
     710    484.85789    -4160.925    -4133.913    1557.7116    10962.412   0.34649856 
     720    493.07879   -4160.8925   -4133.4225    1546.9836    10983.828   0.35580758 
     730    507.49314   -4161.1997   -4132.9267    1611.8891    11005.515   0.36711253 
     740    500.17074   -4160.3103   -4132.4453    1814.5226    11027.651   0.38124005 
     750    498.18183   -4159.7371   -4131.9828    1816.8608    11050.623   0.39610988 
     760    490.48311   -4158.8361   -4131.5107    1697.6465    11074.476   0.41093397 
     770    496.23034   -4158.6596    -4131.014     1068.031    11098.656   0.42606367 
     780    507.47237   -4158.7363   -4130.4644    255.86096    11121.918   0.44199648 
     790    508.93837   -4158.2354   -4129.8818   -436.28024    11142.569   0.45864702 
     800    513.18189   -4157.8845   -4129.2946   -857.39531    11159.253   0.47441459 
     810    526.08161   -4158.0256    -4128.717   -827.76013    11171.496   0.48772883 
     820    545.16347   -4158.5243   -4128.1527   -455.06535    11179.525   0.49806309 
     830    543.34844   -4157.8833   -4127.6127    330.05294    11184.014   0.50659207 
     840     534.0111    -4156.852   -4127.1017    1039.9821    11185.726   0.51364198 
     850    538.23517   -4156.5823   -4126.5966    1216.1793    11185.145   0.51881399 
     860    550.73639   -4156.7675   -4126.0853    1117.5321    11182.491   0.52272182 
     870    556.17016   -4156.5568   -4125.5719    1291.3688    11177.883   0.52628353 
     880    547.59272   -4155.5729   -4125.0659    1873.9877    11171.733    0.5298707 
     890    528.77432   -4154.0182   -4124.5596    2661.2342    11164.944   0.53387147 
     900    517.37907   -4152.8643   -4124.0406    3095.6022    11158.643   0.53821073 
     910    526.90058   -4152.8448   -4123.4906    3232.5643    11153.676   0.54244653 
     920    557.87484   -4153.9849   -4122.9051    2905.7789    11150.621   0.54656153 
     930    577.70281   -4154.4905   -4122.3061    2790.6655    11149.754   0.55209047 
     940    575.81521   -4153.8088   -4121.7295    2962.6992    11151.182    0.5597922 
     950     584.1388   -4153.7211    -4121.178    2723.5742    11155.016   0.56818868 
     960    601.37314   -4154.1395   -4120.6364    2189.0893    11161.273   0.57696111 
     970    595.61446   -4153.2977   -4120.1153    2026.9858    11169.906   0.58775616 
     980    591.76792    -4152.583   -4119.6149    1975.4355    11180.718   0.60101269 
     990    606.45086   -4152.9009   -4119.1149    1698.6674    11193.455   0.61754645 
    1000    597.42821   -4151.8938   -4118.6104    1543.6312    11207.718    0.6389926 
    1010    587.78901   -4150.8497   -4118.1033    1461.3176    11222.751   0.66279324 
    1020    612.41062   -4151.6799   -4117.5618    914.58281    11237.412    0.6846494 
    1030    631.59689    -4152.181    -4116.994    673.94031    11250.488   0.70292837 
    1040     626.6353   -4151.3516    -4116.441    998.86542    11261.403   0.71706845 
    1050    607.31474   -4149.7478   -4115.9136    1686.6323    11270.176   0.72713671 
    1060    602.83351   -4148.9752   -4115.3906    2147.6362    11276.979   0.73448524 
    1070    610.49458   -4148.8624   -4114.8511    2511.8271    11281.899     0.741022 
    1080    617.59372   -4148.7026   -4114.2958    2939.3019    11285.314   0.74881943 
    1090    615.91345   -4148.0475   -4113.7343    2948.1734    11287.736   0.75907606 
    1100    621.21125   -4147.7764    -4113.168    2648.3612    11289.644   0.77022815 
    1110    632.97363   -4147.8537   -4112.5901     2455.874    11291.478   0.77898005 
    1120    635.36344   -4147.4083   -4112.0115    2511.2795    11293.621   0.78281668 
    1130    662.23722   -4148.3258   -4111.4319    2484.9778    11296.208   0.78164335 
    1140    661.13651   -4147.6921   -4110.8594    2952.5564    11299.185    0.7802926 
    1150    660.87285   -4147.1306   -4110.3126     3091.024     11302.86   0.78223523 
    1160     675.1482   -4147.3834   -4109.7701    2754.4992    11306.969   0.78707294 
    1170    686.41721   -4147.4728   -4109.2317    2398.2997    11310.739   0.79339797 
    1180     694.4029   -4147.3969   -4108.7109    2615.3255    11313.785   0.79970864 
    1190    696.78436   -4147.0296    -4108.211     3005.368    11316.462   0.80509253 
    1200    715.95175   -4147.6153   -4107.7289    3012.1101    11319.241   0.80845804 
    1210    714.18296   -4147.0555   -4107.2676    3167.4381    11322.152   0.81184475 
    1220     691.5004   -4145.3599   -4106.8357    3667.0476    11325.238   0.81800459 
    1230    699.52379   -4145.3802    -4106.409    3686.5479    11328.585   0.82659067 
    1240    716.95292   -4145.9094   -4105.9671    3467.1028    11331.933   0.83599936 
    1250    721.48018   -4145.7215   -4105.5271    3230.5008    11334.679   0.84584233 
    1260    710.82072   -4144.7001   -4105.0995    3093.6005    11336.181   0.85496648 
    1270    694.74877   -4143.3833   -4104.6781    3054.0119    11336.135   0.86077948 
    1280    700.10745   -4143.2469   -4104.2431    3215.9945      11334.7   0.86383634 
    1290    708.60254   -4143.2573   -4103.7802    3339.0594    11332.212   0.86546172 
    1300    731.51418   -4144.0528   -4103.2993    3419.7961    11329.225     0.865587 
    1310    745.77411   -4144.3585   -4102.8106    3663.7224    11326.728   0.86718182 
    1320    742.94833    -4143.731   -4102.3405    3886.5844    11325.691   0.87300327 
    1330    735.28499   -4142.8552   -4101.8916    3678.1493    11326.636   0.88470897 
    1340    711.78837   -4141.1073   -4101.4527    3633.8292    11329.488   0.90367396 
    1350    698.21566   -4139.8999   -4101.0015    3533.0276    11333.653   0.92740758 
    1360    696.46431   -4139.3123   -4100.5115    3425.2383    11338.255   0.94932664 
    1370    713.50056   -4139.7296   -4099.9797    3250.6794    11342.828   0.96416553 
    1380    724.57206   -4139.7804   -4099.4137    3203.5806    11347.348   0.97252303 
    1390    730.99034   -4139.5593    -4098.835    3056.3023    11351.705   0.97740802 
    1400    752.43117   -4140.1659   -4098.2471    2581.6698    11355.372   0.98235087 
    1410    770.07459   -4140.5655   -4097.6638    2146.7424    11357.608   0.99014658 
    1420    769.99088   -4140.0053   -4097.1082    1981.5915    11358.426    1.0005329 
    1430    759.53332   -4138.8957   -4096.5812    2138.6851    11358.697    1.0106369 
    1440     772.1655   -4139.0834   -4096.0651    1631.3141      11359.3    1.0190054 
    1450    793.90742   -4139.7822   -4095.5527    1214.0432    11360.463    1.0266965 
    1460     785.7985   -4138.8366   -4095.0589    1783.8325    11362.079    1.0346679 
    1470    757.01339   -4136.7636   -4094.5895    3077.5205    11363.998    1.0423332 
    1480    750.56222   -4135.9312   -4094.1166    4358.6517    11366.421    1.0501142 
    1490    767.59884   -4136.3784   -4093.6146    4963.3688    11369.904    1.0588611 
    1500    773.20839   -4136.1657   -4093.0894    5030.4191    11374.735    1.0692005 
    1510    780.71103   -4136.0496   -4092.5553    4554.4247    11380.751    1.0809972 
    1520    788.45839   -4135.9346   -4092.0087    4041.7611    11387.232    1.0952504 
    1530    825.50275     -4137.45   -4091.4603    3631.5005    11393.633    1.1105986 
    1540    829.19726   -4137.1237   -4090.9282    3768.7754    11399.999    1.1255571 
    1550    828.75245   -4136.6101   -4090.4394    4004.6855     11406.61    1.1394403 
    1560    816.94279   -4135.4899   -4089.9771    4469.5242    11413.308    1.1546568 
    1570    796.49974   -4133.9049    -4089.531    4986.5805    11420.034    1.1725174 
    1580    820.06407   -4134.7668   -4089.0801    4827.5178    11427.335    1.1929247 
    1590     823.2054   -4134.4803   -4088.6186    4689.9953    11435.848    1.2171688 
    1600    821.34014   -4133.9253   -4088.1675    4899.0351     11445.98    1.2441844 
    1610    831.58278   -4134.0438   -4087.7154    4894.8959    11457.957    1.2732196 
    1620    835.58932   -4133.8198   -4087.2681    4924.6103    11471.861    1.3049199 
    1630    842.99557   -4133.7928   -4086.8286    4850.0308    11487.864    1.3412144 
    1640    849.25951   -4133.7074   -4086.3942    4848.3228    11505.831    1.3818407 
    1650    862.43435   -4134.0096   -4085.9624    4645.3563    11525.364     1.423706 
    1660    863.80019   -4133.6551   -4085.5318    4434.5407     11545.72    1.4657446 
    1670    841.51588   -4131.9926   -4085.1108    4911.5782    11566.156    1.5049478 
    1680    838.62206   -4131.4062   -4084.6856    5054.0799    11586.378    1.5385285 
    1690    862.23751   -4132.2634   -4084.2272    4449.5571    11605.841    1.5683538 
    1700    867.48888   -4132.0804   -4083.7516    4134.5432    11623.829    1.5978767 
    1710    882.11134   -4132.4266   -4083.2832    3568.2911     11640.16    1.6268601 
    1720    905.53201   -4133.2772   -4082.8289    2986.2731    11655.017    1.6557472 
    1730    877.10281   -4131.2689   -4082.4046    3080.5123    11668.398    1.6863164 
    1740    852.20143   -4129.4783   -4082.0012    3249.8197    11680.309    1.7165866 
    1750    862.01021   -4129.6068   -4081.5833    3346.9048    11691.073    1.7457493 
    1760    863.50256   -4129.2506   -4081.1439    3952.4062    11701.331    1.7741073 
    1770    853.24917   -4128.2219   -4080.6864    4689.0706     11711.64    1.8009255 
    1780    864.61463   -4128.3718   -4080.2031    4603.0456    11722.097    1.8263221 
    1790    866.42597   -4127.9639   -4079.6943    4234.4339    11732.828    1.8534378 
    1800    865.78003   -4127.4085   -4079.1749    3557.5014     11744.23    1.8828879 
    1810    889.47854   -4128.1901   -4078.6363    2880.4376    11756.308    1.9135223 
    1820    889.64742   -4127.6522   -4078.0889     2784.741    11768.654    1.9462036 
    1830    881.89593   -4126.6847   -4077.5532       3194.3    11781.001    1.9814069 
    1840    893.13263   -4126.7788   -4077.0213    3415.2808    11793.508    2.0201159 
    1850    927.15822   -4128.1434   -4076.4904    3468.0813    11806.501     2.060598 
    1860    932.15263   -4127.9096   -4075.9783    3614.7263    11820.064    2.1009098 
    1870     945.6783   -4128.1857   -4075.5009    3496.7889    11834.097    2.1392336 
    1880    955.05439   -4128.2582   -4075.0511    3139.9686    11847.995    2.1743879 
    1890    938.81749   -4126.9407   -4074.6381    2845.7338    11861.093    2.2076138 
    1900     917.1295   -4125.3402   -4074.2458    2650.8897    11873.153    2.2388099 
    1910     915.5021   -4124.8486   -4073.8449     2549.834     11883.58    2.2655834 
    1920    900.90293   -4123.6109   -4073.4206    3036.8538    11891.763    2.2891315 
    1930    923.28315     -4124.41   -4072.9729    3225.5339    11897.835    2.3101773 
    1940    930.19266   -4124.3191   -4072.4971    3093.2871    11902.288    2.3297027 
    1950    936.67017   -4124.1958   -4072.0129    2808.4001    11905.581    2.3472556 
    1960    949.79042   -4124.4362   -4071.5223    2320.2066    11908.256    2.3642724 
    1970    944.02208   -4123.6277   -4071.0352    2518.1632    11910.614    2.3837031 
    1980    924.35597   -4122.0507   -4070.5537    2950.4348    11912.755    2.4057947 
    1990    909.46739   -4120.7284   -4070.0609    3135.0285    11914.964    2.4302015 
    2000    925.38525   -4121.0908   -4069.5366    2877.6567    11917.762    2.4566914 
    2010    960.33921   -4122.4831   -4068.9815    2518.2212    11921.282    2.4843803 
    2020    974.70768   -4122.7269   -4068.4249    2463.5086    11924.993    2.5119845 
    2030    963.86436   -4121.5971   -4067.8991    2976.4203    11928.528    2.5356935 
    2040    934.67961   -4119.4715   -4067.3995    4115.7996    11932.316    2.5536622 
    2050    921.10209   -4118.2195   -4066.9039    4754.2488    11937.547    2.5692755 
    2060    937.41471   -4118.6149   -4066.3905    4733.2493    11945.423    2.5892497 
    2070    916.49898   -4116.9228   -4065.8636    5336.9995    11956.611    2.6159207 
    2080    925.69433   -4116.9006   -4065.3291    5614.9466    11971.399    2.6422728 
    2090    981.80309   -4119.4517   -4064.7544    5338.4244    11989.156    2.6676718 
    2100    980.91606    -4118.832   -4064.1841    5414.8597    12009.107    2.6983699 
    2110    976.77298    -4118.088   -4063.6708    5384.3713    12031.389    2.7357306 
    2120    987.81258   -4118.2073   -4063.1751    4919.3525    12056.122    2.7823256 
    2130    994.59803    -4118.108   -4062.6979     4802.194    12082.879     2.840696 
    2140    983.05023   -4117.0123   -4062.2455     5127.835    12111.579    2.9111939 
    2150    987.57516   -4116.8163   -4061.7974    5062.4467    12142.107    2.9930792 
    2160    993.36969    -4116.671   -4061.3292    4688.8152    12173.816    3.0844099 
    2170    1008.1102   -4117.0033   -4060.8403     4296.794    12205.873    3.1803101 
    2180    1002.2085   -4116.1773   -4060.3432    3975.5813     12237.51    3.2747692 
    2190    985.73837    -4114.771   -4059.8544    3577.1927    12268.568    3.3649916 
    2200    974.56817   -4113.6535   -4059.3592    3162.2964      12299.3    3.4542322 
    2210    977.14495   -4113.2733   -4058.8355      2698.58    12329.877    3.5481083 
    2220    980.27639   -4112.8816   -4058.2693    2552.4561    12360.149    3.6482718 
    2230    1008.0123   -4113.8214   -4057.6639    2206.2081    12389.649    3.7508346 
    2240    1032.5506   -4114.5522   -4057.0277    1967.3167    12417.668    3.8496537 
    2250    1072.0678   -4116.1182   -4056.3921    1581.7277     12443.21    3.9372511 
    2260    1085.0807   -4116.2434   -4055.7923    1133.0406    12465.311    4.0096253 
    2270    1066.7648   -4114.7009   -4055.2702    1429.4145     12483.51    4.0697568 
    2280    1036.3808     -4112.55   -4054.8121     2079.091    12498.543    4.1268354 
    2290    1010.8382   -4110.6908   -4054.3759    2771.0283    12511.749    4.1863358 
    2300    997.95883   -4109.5193   -4053.9219    2989.9727    12524.563    4.2492849 
    2310    1010.0096   -4109.6909   -4053.4221    2817.8764    12537.791      4.31401 
    2320    1018.0948   -4109.5932    -4052.874    2775.3583    12551.596    4.3821877 
    2330    1039.6379    -4110.209   -4052.2896    2462.1066    12565.812    4.4519664 
    2340    1071.8997   -4111.3973   -4051.6805    1881.6959    12579.846    4.5183052 
    2350    1065.1822   -4110.4226   -4051.0801     1571.802    12593.126    4.5818671 
    2360    1044.5872   -4108.7044   -4050.5093    1499.0808    12605.332     4.647016 
    2370    1023.8377   -4106.9853   -4049.9462    1822.1377    12616.588    4.7179304 
    2380    1003.6358    -4105.286   -4049.3723    2456.5147    12627.395    4.7934238 
    2390     1004.094   -4104.7074   -4048.7682    2801.3235    12638.451     4.868559 
    2400    1037.4234   -4105.9192   -4048.1232    2392.9859    12650.408    4.9396411 
    2410    1089.1368   -4108.1317   -4047.4547    1944.2931    12663.628    5.0056513 
    2420    1151.0388   -4110.9307   -4046.8051     1762.044    12677.839    5.0675461 
    2430    1174.3176   -4111.6574   -4046.2349    1958.3301    12692.545    5.1307827 
    2440    1151.7615    -4109.944    -4045.778    2434.8974    12707.827    5.1991615 
    2450    1120.2016   -4107.8071   -4045.3994     2922.435    12723.727    5.2733788 
    2460    1116.9447   -4107.2695   -4045.0432    3223.0741    12739.926    5.3506183 
    2470    1132.8071   -4107.8001   -4044.6902    3020.2135    12756.238    5.4336819 
    2480    1152.9869   -4108.5735   -4044.3393    2466.5732    12772.504    5.5230206 
    2490     1149.017   -4108.0139   -4044.0009    2136.4361    12788.051    5.6096638 
    2500     1104.882   -4105.2281   -4043.6739    2349.0763    12802.328    5.6842431 
    2510    1086.8827   -4103.8828   -4043.3314     2507.091    12815.557     5.743688 
    2520      1072.64   -4102.6872   -4042.9293     2910.166     12828.02    5.7935169 
    2530    1113.3902   -4104.4893   -4042.4611    2312.0178    12840.284    5.8387576 
    2540    1176.4553   -4107.4691   -4041.9274    1540.4727    12852.158    5.8894729 
    2550    1187.1712   -4107.5369   -4041.3983    2004.7253    12862.939    5.9557213 
    2560    1148.9113   -4104.9188   -4040.9116    2920.6552    12872.388    6.0399705 
    2570    1135.7032   -4103.7171   -4040.4458    3286.4814    12880.714    6.1319418 
    2580    1131.8303   -4103.0208   -4039.9653    3336.8117     12888.54    6.2194882 
    2590    1124.6563   -4102.1265   -4039.4706    3138.5045    12897.106    6.2985479 
    2600    1131.9485    -4102.009   -4038.9469    2734.1254    12907.179    6.3673982 
    2610    1148.1453   -4102.3616   -4038.3971    2327.6284    12918.519    6.4302375 
    2620    1149.1251   -4101.8575   -4037.8384    2337.9231    12931.107    6.4954286 
    2630    1151.7299   -4101.4498   -4037.2857    2251.7311    12945.262    6.5717979 
    2640    1162.6255   -4101.5022    -4036.731    1793.4275    12960.841    6.6586569 
    2650    1166.1624   -4101.1536   -4036.1854    1520.0561    12977.385    6.7487703 
    2660    1164.5995   -4100.5307   -4035.6495     1399.716    12994.562    6.8358379 
    2670    1168.8061   -4100.2357   -4035.1202    1266.7869    13011.834    6.9160898 
    2680    1188.5146   -4100.7967   -4034.5832    1030.9299     13027.94    6.9908298 
    2690    1218.5714   -4101.9526   -4034.0646    1251.2819    13041.557    7.0663686 
    2700    1211.5734    -4101.091   -4033.5929    1542.6075    13052.327    7.1403319 
    2710    1181.6634   -4099.0007    -4033.169    1836.2276    13060.504    7.2002867 
    2720    1164.4717   -4097.6292   -4032.7552    2006.0439    13066.221    7.2347624 
    2730    1184.1704   -4098.2943   -4032.3228    1654.5133    13069.541    7.2410696 
    2740    1204.6981   -4098.9907   -4031.8756    1508.4336     13070.78    7.2293197 
    2750    1209.7366   -4098.8258     -4031.43    1684.9511    13070.923    7.2139166 
    2760    1214.7346   -4098.6679   -4030.9937    1818.8197     13071.32    7.2080985 
    2770    1212.0095   -4098.0861   -4030.5637    2116.3205    13073.111    7.2190219 
    2780    1222.7054   -4098.2618   -4030.1436    2596.3363    13077.333    7.2470172 
    2790    1244.2361   -4099.0588    -4029.741    2775.2294    13085.514    7.2910227 
    2800    1280.0526   -4100.6965   -4029.3833    2750.0403     13098.98    7.3541222 
    2810    1284.2195   -4100.6446   -4029.0993    2866.4125    13118.537    7.4454393 
    2820    1306.1774   -4101.6619   -4028.8932    2247.8854    13144.337    7.5657705 
    2830    1333.8396   -4103.0443   -4028.7346    1048.6709    13175.157    7.7084748 
    2840    1319.2348   -4102.1404   -4028.6444    368.82389    13209.259    7.8719026 
    2850    1250.8039   -4098.2887    -4028.605    141.59579    13245.661    8.0563959 
    2860    1176.9898   -4094.1089   -4028.5375    163.04598    13283.538    8.2529981 
    2870    1136.6945   -4091.6771   -4028.3506   -37.638377    13321.691    8.4481288 
    2880    1160.2511   -4092.6397   -4028.0008   -777.97667    13358.529    8.6304698 
    2890    1215.0204   -4095.1808   -4027.4907   -1968.1424    13392.346    8.7937086 
    2900     1226.964   -4095.2468   -4026.8912    -2041.041    13421.884     8.941718 
    2910      1215.83   -4093.9995   -4026.2642   -1177.9934    13447.353    9.0838315 
    2920    1204.1045   -4092.6895   -4025.6074   -235.70528    13469.642    9.2227198 
    2930    1215.4718   -4092.6226   -4024.9073    7.0578398    13489.437    9.3566081 
    2940    1263.2533   -4094.5485   -4024.1712   -505.42184    13506.823    9.4759234 
    2950    1295.4047   -4095.6216   -4023.4532   -672.83847    13521.648    9.5765386 
    2960    1284.2939   -4094.3667   -4022.8172   -115.25006    13534.378    9.6634857 
    2970    1252.1078    -4092.026   -4022.2697     173.4535    13546.096    9.7446039 
    2980    1213.6628    -4089.383   -4021.7685    307.64101     13557.54     9.826033 
    2990    1189.7326   -4087.5479   -4021.2666    349.48918    13568.839    9.9090541 
    3000    1199.6533   -4087.5731    -4020.739    191.02508    13579.355    9.9894497 
    3010     1207.253   -4087.4378   -4020.1804   -207.86891    13589.015    10.070386 
    3020    1261.0839   -4089.8609   -4019.6045   -1085.0597     13598.04    10.156024 
    3030    1308.2054   -4091.9114   -4019.0298   -1729.5451    13605.832    10.247832 
    3040    1329.4595   -4092.5722   -4018.5065   -1913.7251    13611.111    10.333162 
    3050    1313.7727   -4091.2395   -4018.0478   -1615.6136    13613.444     10.39755 
    3060    1316.3381   -4090.9727   -4017.6381   -1451.6576    13613.393    10.439538 
    3070    1293.7951   -4089.3187   -4017.2399   -1050.4198    13611.718    10.467839 
    3080    1321.4914   -4090.4616   -4016.8398   -1097.2231    13609.025    10.484705 
    3090    1374.2236   -4092.9933   -4016.4337   -1410.7631    13605.288    10.496696 
    3100    1374.9405   -4092.6666   -4016.0671   -984.69511    13600.657    10.518115 
    3110     1303.503   -4088.3537   -4015.7341    116.25742     13596.37    10.556182 
    3120    1285.6958   -4087.0086   -4015.3811    198.74817    13593.844    10.607493 
    3130    1342.2369   -4089.7491   -4014.9716   -565.38932     13593.41    10.662855 
    3140    1338.2027   -4089.0824   -4014.5296   -763.90012    13594.359    10.720783 
    3150    1289.5563   -4085.9188   -4014.0762   -226.26676    13596.559    10.783864 
    3160    1274.3911   -4084.5716   -4013.5739   -62.633126    13600.613    10.856737 
    3170    1310.5292   -4086.0007   -4012.9897   -669.84932    13606.658    10.943288 
    3180     1342.653   -4087.1358   -4012.3351   -858.88485    13614.091    11.042096 
    3190    1360.4302   -4087.4536   -4011.6625   -736.05538    13622.392    11.151179 
    3200    1379.8782   -4087.8696    -4010.995   -775.94336     13631.06    11.266348 
    3210    1421.7921   -4089.5597   -4010.3501   -967.15094    13639.414    11.375625 
    3220    1468.2762   -4091.5694   -4009.7701    -1315.825    13646.732    11.470822 
    3230    1479.7014   -4091.7345   -4009.2987   -1245.0919    13652.495    11.555231 
    3240     1483.965   -4091.6312   -4008.9578   -970.34137    13656.843    11.643286 
    3250    1486.9371   -4091.5741   -4008.7351    -664.8752    13660.303     11.74964 
    3260    1460.6355   -4089.9839   -4008.6103   -487.54368    13663.245     11.87447 
    3270    1430.5448   -4088.2564   -4008.5592   -484.13702    13665.617    12.005946 
    3280    1402.8729   -4086.6797   -4008.5241   -458.91716    13666.999    12.123264 
    3290    1398.0367   -4086.3745   -4008.4883   -618.08271    13666.751    12.208667 
    3300     1354.772   -4083.8962   -4008.4203    101.99743    13664.648    12.272237 
    3310    1359.3792   -4084.0279   -4008.2953      110.113    13661.084    12.321066 
    3320    1360.5184   -4083.8903   -4008.0943    139.93126    13656.228    12.359918 
    3330    1340.4245   -4082.4893   -4007.8128    412.92784    13650.835    12.394581 
    3340    1366.6628   -4083.5718   -4007.4335    493.93171    13645.859     12.42831 
    3350    1435.1168   -4086.9163   -4006.9644   -91.957408    13641.416    12.462905 
    3360     1451.897   -4087.3424   -4006.4556    94.603544    13636.651    12.500768 
    3370    1447.9701   -4086.6141   -4005.9461    669.81462    13631.138    12.536842 
    3380    1473.6516    -4087.528   -4005.4292    1247.7425    13625.618    12.568754 
    3390    1489.0179    -4087.875   -4004.9202    1814.1047    13621.347    12.604982 
    3400    1463.6683   -4085.9824   -4004.4398    2286.2615    13619.124    12.650514 
    3410    1471.9183   -4085.9774   -4003.9752    1779.9646     13618.68    12.706352 
    3420    1516.8626   -4088.0248   -4003.5187    659.81024    13618.988    12.776385 
    3430    1487.1623   -4085.9444   -4003.0929    698.17125     13619.27    12.862773 
    3440    1444.4496   -4083.1727   -4002.7008    998.53177    13620.351    12.959827 
    3450    1411.2548   -4080.9022   -4002.2796    1080.3585    13623.159    13.073848 
    3460    1429.7286   -4081.4454   -4001.7936    668.77702     13627.96    13.199635 
    3470    1484.4235   -4083.9207   -4001.2218    188.37498    13633.865    13.312283 
    3480    1498.6666   -4084.1049   -4000.6125      223.912    13639.374    13.405741 
    3490    1451.3728   -4080.8573   -3999.9997    661.26972    13643.932    13.492834 
    3500    1454.8005   -4080.4053   -3999.3567    437.78466    13648.131    13.588682 
    3510    1518.3873   -4083.2414   -3998.6504   -285.82296    13651.894    13.690521 
    3520    1554.3902   -4084.5292   -3997.9324   -614.97135     13654.25    13.792019 
    3530    1553.0576   -4083.7943   -3997.2717   -512.97566    13654.833    13.887237 
    3540     1557.094   -4083.4307   -3996.6833   -446.52229    13654.545    13.958156 
    3550    1576.8234   -4084.0132   -3996.1666   -436.49054    13653.777    14.011884 
    3560    1553.5638   -4082.2892   -3995.7385     143.0682    13651.471    14.068541 
    3570    1510.3799   -4079.5267   -3995.3818    725.88512    13646.946    14.131361 
    3580     1497.528   -4078.4742   -3995.0453    909.31331    13640.577    14.192551 
    3590    1524.5876   -4079.6394   -3994.7029    1147.6611     13633.02    14.247483 
    3600    1531.1919   -4079.6715   -3994.3671    2104.5024    13625.337    14.301531 
    3610    1538.1757   -4079.7443   -3994.0508    2729.3359    13619.371    14.366746 
    3620    1549.6916   -4080.1061    -3993.771     2670.119    13616.878    14.447384 
    3630    1570.0083   -4081.0121   -3993.5452    2045.4476    13618.518     14.53678 
    3640    1574.7298   -4081.1138   -3993.3838    1215.0043    13624.196    14.649267 
    3650    1560.1413   -4080.1989   -3993.2817    570.31733    13632.676     14.79188 
    3660    1526.7322    -4078.266     -3993.21    450.01706    13642.628    14.947693 
    3670    1516.1538    -4077.611   -3993.1444    199.11135    13654.027    15.105094 
    3680    1516.5361    -4077.558   -3993.0701    124.28886     13667.08    15.261809 
    3690    1458.1207   -4074.2078   -3992.9743    940.34428    13681.597    15.415748 
    3700     1437.285   -4072.9142   -3992.8414    841.11944    13698.376    15.577609 
    3710    1432.4886   -4072.4362   -3992.6306    407.57748     13717.08    15.753502 
    3720    1436.7676   -4072.3885   -3992.3446   -4.5632877     13736.45    15.934938 
    3730    1469.1482    -4073.848   -3992.0001    -679.6451    13755.769     16.11441 
    3740    1496.2931   -4074.9711   -3991.6109   -965.00578    13774.708    16.290776 
    3750    1526.1111   -4076.2229   -3991.2015   -1095.1146    13793.367    16.472095 
    3760    1571.5034   -4078.3288   -3990.7786   -1386.1284      13811.8    16.665586 
    3770     1599.578   -4079.4771   -3990.3628   -1272.3884     13828.77    16.859427 
    3780    1586.1144   -4078.3447   -3989.9805   -612.02493    13842.869    17.033536 
    3790    1581.6561   -4077.7425   -3989.6266   -225.46458    13853.294    17.182938 
    3800    1597.5926   -4078.2964   -3989.2928   -363.56423    13859.549    17.306316 
    3810    1577.1889   -4076.8443   -3988.9773    45.330091    13861.884    17.394023 
    3820    1497.9389   -4072.1025   -3988.6506    921.76802    13861.802     17.44847 
    3830    1466.1072   -4069.9267   -3988.2482    941.17476    13861.312    17.479969 
    3840    1489.0762   -4070.6729   -3987.7148    258.42181    13861.917    17.512785 
    3850    1558.6695   -4073.8872    -3987.052   -646.53312    13864.417    17.568975 
    3860    1613.9004   -4076.2289   -3986.3167   -880.24831    13868.433    17.642049 
    3870     1631.679   -4076.4801   -3985.5775   -566.43443    13873.115    17.718719 
    3880    1632.5766   -4075.8287    -3984.876   -318.10319    13877.998    17.795419 
    3890    1640.1522   -4075.5925   -3984.2178   -241.97723    13883.301    17.877307 
    3900    1633.5894   -4074.6137   -3983.6046    211.16191    13889.498    17.972709 
    3910    1638.5364   -4074.3198   -3983.0351    798.90715     13897.43    18.094462 
    3920    1649.6083   -4074.4034   -3982.5018    1323.5268    13907.894    18.231407 
    3930    1617.8252   -4072.1513   -3982.0204    1801.0835    13922.179    18.385114 
    3940    1612.8818   -4071.4326   -3981.5772    1722.9273    13941.805    18.566571 
    3950    1633.8394   -4072.1487   -3981.1256    860.24628     13966.93    18.775726 
    3960    1668.6075   -4073.6265   -3980.6665   -153.64031    13996.664    19.010445 
    3970    1730.5925   -4076.6428   -3980.2296   -925.60212    14029.939    19.279518 
    3980    1720.7892   -4075.7316   -3979.8645   -994.05145    14065.828    19.579089 
    3990    1721.9024   -4075.5339   -3979.6048    -1425.757    14104.166    19.894661 
    4000    1682.4737   -4073.1567   -3979.4242   -1793.1018    14145.083    20.220146 
    4010    1650.2892   -4071.2359   -3979.2964    -2130.953    14188.898    20.550801 
    4020    1606.8571   -4068.6717   -3979.1519   -2346.1306     14235.47    20.888014 
    4030    1548.0302   -4065.1675    -3978.925   -2296.9426    14283.876    21.239851 
    4040    1503.9086   -4062.3629   -3978.5785   -2068.2358    14333.486     21.62313 
    4050    1514.1327   -4062.4062   -3978.0521   -2247.0776    14384.019     22.03614 
    4060    1530.8851   -4062.6084   -3977.3211   -2196.2689    14434.532    22.467733 
    4070    1587.1605   -4064.8267   -3976.4042   -2529.2613    14483.729    22.912707 
    4080    1571.7871   -4062.9584   -3975.3924   -2197.3152    14531.149    23.356089 
    4090    1585.5922   -4062.6784   -3974.3433   -2375.2546    14577.269    23.791714 
    4100     1646.961   -4064.9909   -3973.2369   -2952.0279    14621.075    24.216149 
    4110    1663.3403   -4064.8261   -3972.1595   -3223.1242    14660.611    24.608453 
    4120    1682.1368   -4064.9275   -3971.2137   -3718.7782    14694.861    24.960964 
    4130    1661.4722   -4062.9702   -3970.4077   -3379.8155    14723.363    25.279712 
    4140    1658.1293   -4062.1129   -3969.7367   -3171.5361    14746.358    25.557353 
    4150    1685.9207   -4063.0761   -3969.1516   -3315.8301    14764.844    25.785337 
    4160    1720.2504   -4064.4779   -3968.6408   -3228.8635    14779.288    25.971233 
    4170    1696.9571   -4062.7449   -3968.2055   -2627.5644    14789.804    26.126953 
    4180    1652.5038   -4059.8897   -3967.8268   -1417.0023    14797.228    26.261154 
    4190    1629.7604   -4058.2376   -3967.4418   -222.49255    14802.973    26.379189 
    4200    1589.1036   -4055.5377   -3967.0069    719.49299    14808.957     26.48979 
    4210    1572.3232   -4054.0899    -3966.494    800.43892    14816.724    26.600744 
    4220    1582.9507   -4054.0608   -3965.8728    826.03003    14826.816    26.724506 
    4230    1634.0856   -4056.1764   -3965.1396    45.766829    14839.185    26.872734 
    4240    1698.6635   -4058.9566   -3964.3222   -815.09014    14852.558    27.035522 
    4250     1733.637   -4060.0775   -3963.4947   -693.21435    14865.991    27.204335 
    4260    1756.3806   -4060.5689    -3962.719   -434.22768    14880.068    27.380026 
    4270    1774.6649   -4060.8745   -3962.0059    -913.5706    14895.288    27.556471 
    4280    1755.2713   -4059.1412    -3961.353   -2017.5701    14910.356    27.728671 
    4290    1717.1646   -4056.4103   -3960.7451   -2500.4893    14923.108    27.892763 
    4300    1668.5483   -4053.1038   -3960.1471   -1918.0999    14932.632    28.040634 
    4310     1669.195   -4052.5074   -3959.5147   -1780.1269    14939.798    28.171724 
    4320    1741.5828   -4055.8427   -3958.8171   -2802.2682    14945.565    28.292472 
    4330    1792.3051   -4057.9534   -3958.1021   -3640.7693    14949.724    28.394401 
    4340    1781.7703   -4056.6998   -3957.4353   -3264.4443    14951.323    28.479669 
    4350    1765.4566   -4055.1847   -3956.8291   -2695.5511      14950.6    28.581187 
    4360    1759.1998   -4054.2564   -3956.2494   -2486.0525    14948.256    28.700147 
    4370    1756.1817   -4053.5146   -3955.6757   -2079.5654    14944.097    28.791187 
    4380    1798.1274   -4055.2817    -3955.106   -1853.6078    14938.382    28.820719 
    4390    1844.0545   -4057.2893    -3954.555   -1934.8614    14932.272    28.809869 
    4400    1825.2168    -4055.752   -3954.0671   -1495.2711    14927.221    28.797821 
    4410    1763.7435   -4051.8974   -3953.6373   -880.92189    14924.406    28.808487 
    4420    1762.1496   -4051.3789   -3953.2075   -421.47887    14924.104     28.84868 
    4430    1837.3868   -4055.1089    -3952.746   -594.85583    14925.856    28.927118 
    4440    1909.0068   -4058.6657   -3952.3128   -850.15414    14927.894    29.033971 
    4450    1882.3215   -4056.8426   -3951.9764   -194.53487    14928.638    29.138239 
    4460    1893.7522   -4057.2513   -3951.7482    -455.0501    14928.669    29.228557 
    4470    1879.6117   -4056.3114   -3951.5962   -1403.5911    14928.605    29.307964 
    4480    1892.4132   -4056.9546   -3951.5261   -2393.1936     14928.01    29.376112 
    4490    1876.9954   -4056.0997   -3951.5302   -2867.6797    14926.222    29.437059 
    4500    1870.6508   -4055.8091    -3951.593   -3175.1386    14922.789    29.492008 
    4510    1863.9532   -4055.5539    -3951.711   -3482.6936    14916.891    29.539678 
    4520    1791.9258   -4051.6909   -3951.8607   -3439.3664    14907.683    29.580665 
    4530    1776.2695   -4050.9357   -3951.9778   -3848.3289    14895.378    29.609979 
    4540    1792.9576   -4051.9273   -3952.0396   -3803.4448    14880.311    29.629981 
    4550    1760.0662    -4050.083   -3952.0278   -3134.8848    14863.124    29.649139 
    4560    1760.9324     -4050.03   -3951.9265   -3230.4831    14844.572    29.671152 
    4570     1774.915   -4050.5841   -3951.7016   -3319.9207    14824.882    29.693631 
    4580    1816.3837   -4052.5381   -3951.3453   -3519.7398    14804.734    29.719484 
    4590    1828.4807   -4052.7249   -3950.8582   -3152.7102    14784.747    29.739992 
    4600    1823.8484   -4051.8584   -3950.2498   -2681.4449    14765.281    29.740837 
    4610    1778.9537   -4048.5828   -3949.4753   -1493.1014    14746.627    29.712363 
    4620    1791.2487   -4048.2678   -3948.4753   -872.17234    14730.515    29.666626 
    4630    1873.6693   -4051.6013   -3947.2171   -912.31443    14718.506    29.634411 
    4640    1937.9029   -4053.7411   -3945.7783   -843.04364    14710.772      29.6406 
    4650    1951.6212   -4053.0323   -3944.3053   -635.07524    14707.455    29.702252 
    4660    1951.8903     -4051.66    -3942.918   -752.79254    14708.913    29.817963 
    4670    1963.7934   -4051.0762    -3941.671   -646.58086    14714.819    29.979576 
    4680    1935.1844   -4048.4082   -3940.5969   -12.278754    14724.599    30.167687 
    4690    1932.3242   -4047.3552   -3939.7032     474.7646    14738.145    30.363501 
    4700    1917.8367   -4045.8092   -3938.9643    1276.2777    14756.274    30.572721 
    4710    1938.6447   -4046.3651    -3938.361    1133.2446    14779.835    30.823608 
    4720    1959.2739   -4046.9976   -3937.8443    604.07421    14807.401     31.12262 
    4730    2012.9849   -4049.5622   -3937.4166   -108.18214    14836.378    31.449966 
    4740    2012.7753   -4049.2438   -3937.1098   -783.85941    14864.236    31.782182 
    4750    1982.4314   -4047.3906   -3936.9472   -1020.6345     14890.03     32.10733 
    4760    2001.2011   -4048.3823   -3936.8932   -1885.5048    14914.719    32.444801 
    4770    2012.4207   -4049.0399   -3936.9257    -2686.687    14938.327    32.805791 
    4780    2016.8431   -4049.4181   -3937.0575   -3424.8596    14960.457    33.162331 
    4790     1996.358      -4048.5   -3937.2806   -3758.8305    14981.078    33.496509 
    4800    1962.1549   -4046.8801   -3937.5662   -3490.0727     15000.76    33.813755 
    4810    1959.4142   -4047.0401   -3937.8789   -3590.9196    15020.161    34.126214 
    4820    1934.3422   -4045.9533   -3938.1889   -3437.9976     15039.17    34.417471 
    4830    1946.9512   -4046.9673   -3938.5005   -3109.2445    15058.373    34.691126 
    4840    1933.1168   -4046.5036   -3938.8075   -2756.6436    15078.534    34.972357 
    4850    1936.4962   -4046.9744     -3939.09   -2398.8107    15099.807    35.253912 
    4860    1955.7077   -4048.3103   -3939.3556   -1710.0981    15121.857    35.538054 
    4870    1921.3558   -4046.6382   -3939.5974   -1143.0341    15144.009    35.842187 
    4880    1908.7498   -4046.1262   -3939.7876   -1175.1968    15164.866    36.150952 
    4890     1903.846   -4045.9784    -3939.913   -1587.0943    15182.871     36.44722 
    4900    1897.2977   -4045.6893   -3939.9887   -2288.4102    15198.003    36.724822 
    4910    1890.0129   -4045.2827   -3939.9879   -2937.4819     15211.38    36.998017 
    4920    1964.2437    -4049.361   -3939.9307    -3199.651    15223.843    37.272472 
    4930    1966.0764   -4049.3666   -3939.8343    -2374.736    15235.486     37.53895 
    4940    1975.9951   -4049.8278   -3939.7429   -1849.4421    15247.301    37.803366 
    4950    1940.3243   -4047.7308   -3939.6331   -1720.3757    15260.754    38.096877 
    4960    1888.3313   -4044.6607   -3939.4596   -2098.9522    15275.987    38.431515 
    4970    1881.1727   -4043.9559   -3939.1537   -2456.8878    15291.894     38.80222 
    4980    1922.3418   -4045.7587   -3938.6628   -3070.0606    15307.598    39.194087 
    4990    1968.3977   -4047.6372   -3937.9755   -3187.7785    15322.251     39.59501 
    5000    1933.2919   -4044.7995   -3937.0936   -2539.8611     15335.66    39.981665 
Loop time of 1950.32 on 16 procs for 5000 steps with 432 atoms

Performance: 0.222 ns/day, 108.351 hours/ns, 2.564 timesteps/s
96.5% CPU use with 16 MPI tasks x 1 OpenMP threads

MPI task timing breakdown:
Section |  min time  |  avg time  |  max time  |%varavg| %total
---------------------------------------------------------------
Pair    | 1368.1     | 1664.5     | 1875.1     | 340.3 | 85.35
Bond    | 0.00049925 | 0.0015863  | 0.0038443  |   2.2 |  0.00
Neigh   | 0.026602   | 0.03446    | 0.048294   |   3.7 |  0.00
Comm    | 74.245     | 250.32     | 443.53     | 652.5 | 12.83
Output  | 0.55193    | 0.55865    | 0.65692    |   3.4 |  0.03
Modify  | 0.3328     | 34.859     | 138.08     |1009.3 |  1.79
Other   |            | 0.02279    |            |       |  0.00

Nlocal:        27.0000 ave          37 max          22 min
Histogram: 5 4 1 2 0 0 0 1 0 3
Nghost:        289.062 ave         316 max         255 min
Histogram: 2 2 3 1 0 0 0 0 2 6
Neighs:         0.00000 ave           0 max           0 min
Histogram: 16 0 0 0 0 0 0 0 0 0
FullNghs:      774.750 ave        1374 max         543 min
Histogram: 8 3 1 0 0 0 1 0 1 2

Total # of neighbors = 12396
Ave neighs/atom = 28.694444
Ave special neighs/atom = 0.0000000
Neighbor list builds = 500
Dangerous builds = 500
unfix   1

fix     2 all npt temp 2000 2000 $(100.0*dt) z 1.01325 1.01325 $(1000.0*dt) couple none
fix     2 all npt temp 2000 2000 0.10000000000000000555 z 1.01325 1.01325 $(1000.0*dt) couple none
fix     2 all npt temp 2000 2000 0.10000000000000000555 z 1.01325 1.01325 1 couple none
run     2000
Per MPI rank memory allocation (min/avg/max) = 8.884 | 8.891 | 8.898 Mbytes
Step Temp PotEng TotEng Press Volume c_msd[4] 
    5000    1933.2919   -4044.7995   -3937.0936   -2539.8611     15335.66    39.981665 
    5010    1897.5161   -4042.7652   -3937.0525   -2019.8819    15335.658    40.209621 
    5020    1884.9148   -4041.9085   -3936.8977   -2155.1428    15335.673    40.402576 
    5030    1885.3899     -4041.66   -3936.6228   -2995.4775     15335.53    40.600061 
    5040    1876.9455    -4040.784   -3936.2172   -3919.6776    15334.919    40.814372 
    5050    1872.7821   -4040.0095   -3935.6747   -3963.3363    15333.587    41.027134 
    5060    1850.4476   -4038.0744   -3934.9839   -3751.4638    15331.422    41.241326 
    5070    1812.7532   -4035.1106   -3934.1201   -3501.2869    15328.392    41.454027 
    5080    1875.6022   -4037.5594   -3933.0675   -3685.5317    15324.368    41.650744 
    5090    1953.3319   -4040.6723     -3931.85   -3703.5247    15319.299    41.830718 
    5100    1979.5171   -4040.8599   -3930.5788   -3586.8398    15313.259    42.007082 
    5110    2021.4111    -4042.004   -3929.3889   -3528.2833    15306.135    42.167635 
    5120    2008.2218   -4040.2154   -3928.3352    -2756.189    15297.821    42.317251 
    5130    1921.3958    -4034.484   -3927.4409   -1569.0398    15288.471    42.447848 
    5140    1942.4212   -4034.8594    -3926.645   -1868.5157    15278.338    42.527544 
    5150    1982.3484   -4036.3712   -3925.9324   -2639.9623    15267.427    42.578419 
    5160    2006.7986   -4037.1329   -3925.3319   -2859.2235    15255.562    42.601385 
    5170    2033.5665   -4038.1457   -3924.8534   -2622.8178    15242.739    42.602434 
    5180    2024.3854   -4037.2518    -3924.471   -2240.9684    15229.188    42.617593 
    5190    2082.8626   -4040.2344   -3924.1958   -2105.2008     15215.17    42.643608 
    5200    2048.1458   -4038.1196   -3924.0151    -1796.165    15200.851    42.671894 
    5210    2037.9289   -4037.4581   -3923.9227   -1523.5471    15186.337    42.692468 
    5220    2029.5293   -4036.9373   -3923.8699   -1345.0733    15171.698    42.716812 
    5230    2045.6638   -4037.8271   -3923.8608   -1268.6466    15157.035    42.751805 
    5240    2023.8737   -4036.6367   -3923.8844   -804.84968     15142.47    42.775285 
    5250    2026.4758   -4036.8277   -3923.9305   -652.59074    15128.134    42.780824 
    5260    2087.6474    -4040.325   -3924.0198   -985.31864    15114.083    42.772815 
    5270    2103.8301   -4041.4102   -3924.2035   -1410.5456    15100.302    42.759783 
    5280    2047.0359   -4038.5351   -3924.4925   -1198.0424    15086.734    42.755345 
    5290    1970.6693    -4034.602   -3924.8138   -600.34285    15073.403    42.759466 
    5300    1963.4952   -4034.4922   -3925.1037    -443.2788    15060.421    42.768775 
    5310     1990.574   -4036.2635   -3925.3664    -408.8697    15047.819    42.801407 
    5320    1987.7656   -4036.3615   -3925.6209   -245.39295    15035.488    42.891297 
    5330      1984.05   -4036.4018   -3925.8682   -401.57913    15023.271     43.01746 
    5340    1948.5643   -4034.6576   -3926.1009   -557.32073    15011.201    43.132685 
    5350    1932.7041   -4033.9413   -3926.2682   -969.70029    14999.535    43.223895 
    5360    1942.9241   -4034.6147   -3926.3722    -964.4138    14988.407    43.283786 
    5370     1949.359   -4035.0159   -3926.4149   -554.67922    14977.843    43.306462 
    5380    1993.2119    -4037.466   -3926.4219   -459.31814    14967.911    43.327351 
    5390    1989.5133   -4037.2376   -3926.3995     124.1041    14958.542    43.370678 
    5400    2060.6206   -4041.1952   -3926.3958   -347.74551    14949.741    43.427377 
    5410    2067.6013   -4041.6304    -3926.442   -390.24407    14941.592    43.475306 
    5420    2024.9413   -4039.3895   -3926.5777    332.65961    14934.229    43.506048 
    5430    1979.5961   -4037.0423   -3926.7568    1105.2053    14927.676    43.542263 
    5440    1982.2749   -4037.3952   -3926.9604    821.66939    14921.752    43.617338 
    5450      1977.84   -4037.3677     -3927.18    13.198944    14916.166    43.748586 
    5460    1965.6831    -4036.917   -3927.4066   -267.64159    14910.707    43.936445 
    5470     2005.596    -4039.383    -3927.649   -171.13152    14905.354    44.143296 
    5480    1997.8863   -4039.2353   -3927.9308       347.65    14900.121    44.351518 
    5490    1965.8627    -4037.773   -3928.2525    287.29393    14895.055    44.584325 
    5500    1951.7169    -4037.319   -3928.5867   -9.6056395    14890.272    44.831182 
    5510    1951.6845   -4037.6531   -3928.9226     230.8557    14885.942    45.060269 
    5520    1952.0249   -4037.9967   -3929.2472    738.64169    14882.284     45.26998 
    5530    1976.4613   -4039.6898   -3929.5789    792.15972    14879.466    45.473377 
    5540    1977.0923   -4040.0702   -3929.9242    470.32898    14877.412    45.672257 
    5550    1961.0329   -4039.5414   -3930.2901    359.97661    14876.058    45.868083 
    5560    1941.4776   -4038.8074   -3930.6455    424.52497    14875.431    46.076982 
    5570    1963.5942   -4040.3793   -3930.9853    494.96622    14875.682    46.308469 
    5580    1985.3252   -4041.9342   -3931.3295    234.62717    14876.918    46.558352 
    5590    1934.1867   -4039.4248   -3931.6691    489.69153    14879.006    46.800836 
    5600    1884.7828   -4036.9631   -3931.9597    349.59677    14881.602    47.027768 
    5610    1884.1073   -4037.1118    -3932.146   -559.26338     14884.34    47.247152 
    5620    1917.8298    -4039.073   -3932.2285   -1661.9892    14886.944    47.463141 
    5630    1914.9601   -4038.8992   -3932.2146   -1809.4761     14889.28    47.674806 
    5640    1910.9495   -4038.5782   -3932.1171     -1381.55    14891.414    47.868026 
    5650    1914.6738   -4038.5753   -3931.9067   -1284.3067    14893.499    48.016814 
    5660    1962.9185   -4040.9426   -3931.5862   -1494.7306    14895.616     48.13721 
    5670     1992.219   -4042.1777   -3931.1889   -1630.9729    14897.774    48.284179 
    5680    1972.5133   -4040.6353   -3930.7444   -1511.3823    14899.994    48.445341 
    5690     1962.174   -4039.5555   -3930.2405   -1689.6027    14902.331    48.562676 
    5700    1926.2283   -4036.9726   -3929.6602    -1502.009    14904.765    48.659878 
    5710    1884.0878   -4033.9289   -3928.9642   -1450.6347    14907.331    48.783184 
    5720    1918.6778   -4035.0081   -3928.1164   -2085.4221    14909.828    48.938371 
    5730    1967.1237   -4036.7141   -3927.1234   -2601.8233    14911.927    49.085676 
    5740    1965.6048   -4035.5554   -3926.0494   -2881.9129    14913.391    49.212807 
    5750    1930.3069   -4032.4861   -3924.9465   -2693.9016    14914.127    49.306093 
    5760    1940.9464   -4031.9452   -3923.8129   -2374.9721    14914.158     49.37004 
    5770    1979.3381   -4032.9272    -3922.656    -1780.073    14913.583    49.423883 
    5780    1987.4911   -4032.2609   -3921.5355   -576.16184    14912.655    49.456822 
    5790    2005.2707   -4032.2109    -3920.495    534.96508    14911.855    49.474013 
    5800    2052.8576   -4033.9233   -3919.5563    638.71434     14911.69     49.50843 
    5810    2092.3165    -4035.324   -3918.7587    184.85729    14912.314    49.583317 
    5820    2092.6483   -4034.7228   -3918.1391   -134.45686    14913.499    49.688635 
    5830    2080.7382   -4033.6093    -3917.689    121.50075    14915.034    49.812017 
    5840    2083.7658   -4033.4677   -3917.3787    1122.7637    14916.874    49.955125 
    5850    2092.9397   -4033.7969   -3917.1969    1642.6596     14919.12    50.122522 
    5860    2072.4992   -4032.5882    -3917.127    2374.9468    14921.888    50.313863 
    5870    2064.0592   -4032.1263   -3917.1352    2314.6887    14925.135    50.499717 
    5880    2104.5439   -4034.4771   -3917.2306    1131.3458     14928.54     50.63629 
    5890    2064.4028   -4032.4295   -3917.4193    991.72095    14931.753    50.741171 
    5900    2014.8576   -4029.9156   -3917.6656    1261.2547    14934.649    50.838778 
    5910    1987.3106   -4028.6422   -3917.9269    1055.2178    14937.203    50.958842 
    5920    1972.4921   -4028.0563   -3918.1665    1040.2302    14939.494    51.128462 
    5930    1988.9894   -4029.1847   -3918.3758    990.74158    14941.652    51.336165 
    5940    2048.7696   -4032.7264   -3918.5871    965.50662    14943.764    51.547449 
    5950    2085.1253    -4035.021   -3918.8563    1421.1831    14945.929    51.748236 
    5960    2084.3437   -4035.3543   -3919.2332    1726.1864    14948.302     51.91462 
    5970    2042.4027   -4033.4887   -3919.7042    2629.2502    14951.029    52.028686 
    5980    2020.9055   -4032.8263   -3920.2394    3031.4834    14954.259    52.108692 
    5990    2024.0774   -4033.5792   -3920.8156    2362.2303    14958.115    52.202116 
    6000    2051.6616   -4035.7545   -3921.4541    1944.8619    14962.507    52.332217 
    6010    2052.8547   -4036.5469   -3922.1801     2371.735    14967.219    52.504611 
    6020    2013.0377   -4035.1331   -3922.9845    2901.5808     14972.18     52.72971 
    6030     2000.121   -4035.2594   -3923.8304    2409.9605    14977.381    53.001027 
    6040    1991.8451   -4035.6822   -3924.7143    1533.0171    14982.772    53.303897 
    6050    1972.8659   -4035.5122   -3925.6016    639.92406    14988.304    53.598346 
    6060    1961.0086   -4035.7277   -3926.4777    -168.5932    14993.836    53.851629 
    6070    1936.6371    -4035.206   -3927.3138   -518.07253    14999.155    54.057478 
    6080    1931.4878   -4035.6886   -3928.0832   -798.04087    15004.077    54.213832 
    6090    1971.1997   -4038.6258   -3928.8081   -991.43635    15008.503    54.334582 
    6100    1944.6187   -4037.8305   -3929.4936   -874.19977    15012.572     54.43369 
    6110    1903.6471    -4036.167   -3930.1127   -1288.9765    15016.559    54.533599 
    6120    1881.2623   -4035.4331   -3930.6259   -1658.0784    15020.671    54.677734 
    6130    1882.0565   -4035.8705    -3931.019   -1841.3802    15025.009    54.923524 
    6140    1861.0154   -4034.9622   -3931.2829   -1507.5176      15029.5    55.243539 
    6150    1831.6491   -4033.4461   -3931.4029   -1099.1402    15034.076    55.577814 
    6160    1828.1489   -4033.2068   -3931.3586   -669.66461    15038.734    55.899108 
    6170    1817.2418   -4032.3689   -3931.1283   -163.28256    15043.541    56.227166 
    6180    1808.9032   -4031.4636   -3930.6876    652.09916    15048.621    56.561739 
    6190    1825.0172   -4031.6629   -3929.9892    1009.6326    15054.053    56.858487 
    6200    1843.8995   -4031.7024   -3928.9767    736.97258    15059.687    57.102381 
    6210    1867.1944   -4031.6403   -3927.6168    585.04477    15065.303    57.329656 
    6220    1879.5997   -4030.5966    -3925.882    118.45821    15070.781    57.535422 
    6230    1915.6912   -4030.5827   -3923.8574   -117.33209    15076.085    57.700912 
    6240    1944.0494     -4030.05   -3921.7449    17.541584    15081.287    57.850424 
    6250    1990.4149   -4030.7215   -3919.8332    208.10792    15086.441    58.018989 
    6260    2064.1041   -4033.3313   -3918.3378   -170.20856    15091.553    58.201426 
    6270    2158.6395   -4037.5838   -3917.3236   -814.45237    15096.536    58.383113 
    6280    2184.1244   -4038.4456   -3916.7656   -448.76674    15101.381    58.555715 
    6290    2132.0789    -4035.329   -3916.5485    327.39897    15106.179    58.716182 
    6300    2082.9935    -4032.573   -3916.5271      1132.01    15110.924    58.856876 
    6310     2058.017   -4031.2582   -3916.6037     1657.271    15115.692    58.961358 
    6320    2053.6473   -4031.1569   -3916.7459    2332.6387    15120.777     59.04048 
    6330    2000.5692   -4028.3767   -3916.9227    2913.5287    15126.533    59.113745 
    6340    2019.1508   -4029.6142    -3917.125    2567.9691    15133.243    59.198529 
    6350    2036.3434   -4030.7884   -3917.3414     2334.426    15141.032     59.29342 
    6360    2069.6841   -4032.9079   -3917.6035    2071.1297    15149.959    59.421048 
    6370    2091.3078   -4034.4474   -3917.9383    2334.6354    15159.884    59.586611 
    6380    2091.8005   -4034.9161   -3918.3796    3000.7046    15170.543    59.782931 
    6390    2084.3196   -4035.0403   -3918.9205    2792.0508    15181.735    59.993222 
    6400    2066.0255   -4034.6493   -3919.5487    2673.3992    15193.232    60.211316 
    6410    2050.4973   -4034.4993   -3920.2638     2565.733     15204.98    60.444442 
    6420    2012.9927   -4033.1729   -3921.0268    2541.9953     15217.06    60.673362 
    6430    1989.8416   -4032.6526   -3921.7963    2087.1041    15229.552    60.893166 
    6440      1989.37   -4033.3762   -3922.5461    1535.4259    15242.423    61.109133 
    6450    2003.0117   -4034.8689   -3923.2789    1270.6284    15255.563    61.335201 
    6460    2024.1347   -4036.7888    -3924.022    1111.5306    15268.957     61.58291 
    6470    2007.6442   -4036.6288   -3924.7807    1368.2361    15282.689     61.86049 
    6480    2039.8986   -4039.2024   -3925.5574    1319.8717     15296.89    62.156763 
    6490    2056.0241   -4040.9122   -3926.3688    691.09468    15311.512    62.447037 
    6500    2014.2659   -4039.4216   -3927.2045   -25.118425    15326.327    62.726337 
    6510    1933.0594   -4035.6951   -3928.0022   -165.46913    15341.117    62.990714 
    6520    1838.0854   -4031.0762   -3928.6744    582.11977    15355.811    63.240578 
    6530    1798.6386   -4029.3559   -3929.1517    398.39726     15370.48    63.496253 
    6540    1814.4658   -4030.4969    -3929.411   -561.11486    15385.062    63.766231 
    6550    1903.1383   -4035.5158   -3929.4898    -1566.134    15399.314      64.0361 
    6560    1942.5366   -4037.6712   -3929.4503   -1615.3133    15412.987    64.292317 
    6570    1877.6967   -4033.9422   -3929.3336   -1237.0482     15426.02    64.539889 
    6580    1852.0568   -4032.2861    -3929.106   -1311.0209     15438.47     64.78824 
    6590    1852.1886   -4031.9069   -3928.7194   -1027.9689    15450.334    65.049491 
    6600    1848.1888    -4031.132   -3928.1673    40.973457    15461.665    65.341532 
    6610    1904.1492     -4033.54   -3927.4577    631.63367    15472.649    65.668371 
    6620    1938.7676   -4034.6145   -3926.6036    1216.7921    15483.441    65.984519 
    6630    1978.8699   -4035.9035   -3925.6584    1425.7193    15494.089    66.265432 
    6640    2006.6682   -4036.4771   -3924.6834    863.02656    15504.635     66.51573 
    6650    1992.8477    -4034.744   -3923.7202    105.13074    15515.146    66.757611 
    6660    1995.9519   -4033.9907    -3922.794   -248.53482    15525.779    67.017777 
    6670     1986.338   -4032.5701    -3921.909   -206.92258    15536.716    67.300538 
    6680    1994.6523    -4032.187   -3921.0627   -136.55675    15547.989    67.609413 
    6690    1986.0369   -4030.9044   -3920.2601   -361.73783    15559.529    67.960127 
    6700    1915.8115   -4026.2264   -3919.4944   -592.16798    15571.181    68.331107 
    6710    1909.8097   -4025.1256   -3918.7279   -1034.1485    15582.702    68.681701 
    6720    1972.4012   -4027.8006   -3917.9159   -1394.7727    15593.794    68.962622 
    6730    2055.8078   -4031.6606   -3917.1293   -1698.9169    15604.352    69.170204 
    6740    2067.7331   -4031.6555   -3916.4598   -1480.7604    15614.478    69.351455 
    6750      2030.25   -4029.0459   -3915.9384    -937.8654    15624.458    69.551656 
    6760    2064.7716   -4030.5516   -3915.5209   -1335.6342    15634.464    69.756576 
    6770    2082.7114   -4031.2235   -3915.1933   -1155.2788     15644.25    69.941161 
    6780    2104.0016   -4032.1939   -3914.9777   -1025.2947    15653.605    70.114931 
    6790    2102.9373   -4032.0533   -3914.8963   -987.81453    15662.335    70.287256 
    6800    2084.6336   -4031.0713    -3914.934   -908.32213    15670.417    70.487046 
    6810    2084.2464   -4031.1896   -3915.0739   -1193.6789     15677.89    70.705616 
    6820    2062.8198   -4030.2119   -3915.2899   -1728.7837    15684.789     70.91579 
    6830    2036.3638   -4029.0051    -3915.557   -2547.0015    15691.016    71.102016 
    6840    2013.6812   -4028.0315   -3915.8471   -3184.0929     15696.47    71.284407 
    6850    1998.4983   -4027.4824   -3916.1439   -3530.1322    15701.183    71.484466 
    6860    1944.8356   -4024.7564   -3916.4074   -3015.3428    15705.274    71.709155 
    6870    1967.2379   -4026.2213   -3916.6242   -2544.9882     15708.96    71.958545 
    6880    1958.1181   -4025.8785   -3916.7895   -1900.9159    15712.347    72.205153 
    6890    1909.2184   -4023.2582   -3916.8935   -1263.7714    15715.386    72.452388 
    6900    1934.3038   -4024.6761   -3916.9139   -1142.1752    15717.966     72.71338 
    6910    1984.3436   -4027.4137   -3916.8637   -1283.6773        15720    72.981946 
    6920    2003.6816    -4028.417   -3916.7896   -1146.6848    15721.402    73.236124 
    6930    2010.2023   -4028.7101   -3916.7194   -1041.7019    15722.132    73.466455 
    6940    2048.6677   -4030.8052   -3916.6716   -1856.6653    15722.277    73.676075 
    6950    2011.6246   -4028.7275   -3916.6576   -2646.0083    15721.925    73.899631 
    6960    1945.9965   -4025.0745   -3916.6609   -3009.4729    15721.112    74.158882 
    6970    1914.2538   -4023.2496   -3916.6044   -3078.5059    15719.747     74.43643 
    6980    1988.0585   -4027.2202   -3916.4632     -3437.08    15717.852    74.716563 
    6990    2062.4888   -4031.1825   -3916.2789   -3071.0238     15715.59    74.988008 
    7000    2043.2725    -4029.953     -3916.12   -1725.4759    15713.206    75.215466 
Loop time of 774.06 on 16 procs for 2000 steps with 432 atoms

Performance: 0.223 ns/day, 107.508 hours/ns, 2.584 timesteps/s
97.2% CPU use with 16 MPI tasks x 1 OpenMP threads

MPI task timing breakdown:
Section |  min time  |  avg time  |  max time  |%varavg| %total
---------------------------------------------------------------
Pair    | 584.73     | 680        | 743.89     | 175.9 | 87.85
Bond    | 0.00019217 | 0.00066744 | 0.0016255  |   0.0 |  0.00
Neigh   | 0.010619   | 0.012811   | 0.016895   |   1.7 |  0.00
Comm    | 29.863     | 85.787     | 185.97     | 447.1 | 11.08
Output  | 0.1408     | 0.14348    | 0.18297    |   2.7 |  0.02
Modify  | 0.14094    | 8.109      | 28.921     | 424.2 |  1.05
Other   |            | 0.009277   |            |       |  0.00

Nlocal:        27.0000 ave          37 max          21 min
Histogram: 2 2 3 3 1 1 3 0 0 1
Nghost:        285.250 ave         319 max         247 min
Histogram: 2 0 4 0 2 0 2 2 0 4
Neighs:         0.00000 ave           0 max           0 min
Histogram: 16 0 0 0 0 0 0 0 0 0
FullNghs:      754.375 ave        1241 max         515 min
Histogram: 1 7 2 1 1 1 2 0 0 1

Total # of neighbors = 12070
Ave neighs/atom = 27.939815
Ave special neighs/atom = 0.0000000
Neighbor list builds = 200
Dangerous builds = 200
unfix   2

fix     3 all npt temp 2000 300 $(100.0*dt) z 1.01325 1.01325 $(1000.0*dt) couple none
fix     3 all npt temp 2000 300 0.10000000000000000555 z 1.01325 1.01325 $(1000.0*dt) couple none
fix     3 all npt temp 2000 300 0.10000000000000000555 z 1.01325 1.01325 1 couple none
run     10000
Per MPI rank memory allocation (min/avg/max) = 8.884 | 8.891 | 8.898 Mbytes
Step Temp PotEng TotEng Press Volume c_msd[4] 
    7000    2043.2725    -4029.953     -3916.12   -1725.4759    15713.206    75.215466 
    7010    2020.7058   -4028.7083   -3916.1326   -926.44142    15713.363    75.409557 
    7020    2090.1651   -4032.6347   -3916.1893   -1601.8984     15713.81    75.600828 
    7030    2119.3942    -4034.427   -3916.3531   -2330.5509    15714.267    75.839448 
    7040    2056.0223   -4031.1903    -3916.647   -2104.2951    15714.487    76.120003 
    7050    2033.1288   -4030.3092   -3917.0413   -1673.0749    15714.445    76.391451 
    7060    1968.9809   -4027.1784   -3917.4843   -759.97134    15714.177    76.626075 
    7070    1941.4641   -4026.0809   -3917.9197   -544.10539     15713.77    76.829049 
    7080    1928.6658    -4025.774   -3918.3259   -1181.1846    15713.161    77.003626 
    7090    1929.2833   -4026.1859   -3918.7034   -2006.9947     15712.05    77.121639 
    7100     1917.755   -4025.8912   -3919.0509   -2018.4229    15710.291    77.172994 
    7110     1883.457   -4024.2727   -3919.3432   -1947.9104    15708.039    77.215166 
    7120    1920.0977   -4026.5537   -3919.5829   -2474.5671    15705.445    77.311955 
    7130    1924.0413   -4026.9648   -3919.7743   -2869.7873    15702.531    77.466541 
    7140    1914.4043   -4026.5847   -3919.9311   -2493.2184    15699.377    77.655186 
    7150    1924.7039   -4027.2739   -3920.0465   -1890.0639     15696.19    77.844626 
    7160    1933.5185   -4027.8404    -3920.122   -1497.5825    15693.147    78.016588 
    7170    1914.5587   -4026.8221   -3920.1599   -998.52343    15690.357    78.188121 
    7180    1926.2062     -4027.46   -3920.1488   -1095.1321    15687.876    78.394965 
    7190    1939.6581   -4028.1389   -3920.0783   -1610.3697    15685.766    78.635243 
    7200    1949.0328   -4028.5462   -3919.9634   -1751.3591     15684.11    78.875059 
    7210    1930.7134    -4027.359   -3919.7968   -1233.6679    15682.998    79.096527 
    7220    1942.1208   -4027.7686   -3919.5709    -656.7317    15682.492     79.32122 
    7230    1943.6968   -4027.5631   -3919.2776   -80.590929    15682.556    79.564757 
    7240    1908.5702   -4025.2463   -3918.9177    908.74847    15683.164    79.817779 
    7250    1889.3377   -4023.7204   -3918.4633    1305.6951    15684.365    80.076613 
    7260    1906.5121   -4024.0999    -3917.886    873.14447    15685.998    80.329325 
    7270    1939.1993   -4025.2233   -3917.1883    307.13926    15687.757    80.550883 
    7280    1920.3794   -4023.3884   -3916.4019    357.90167    15689.504    80.765953 
    7290    1915.0253   -4022.2418   -3915.5536    237.31295    15691.294    81.005774 
    7300    1943.9106   -4022.9243   -3914.6268   -11.435075    15693.101    81.251429 
    7310    1976.1112    -4023.753   -3913.6617    121.59123    15694.893    81.484371 
    7320    1970.4068     -4022.49   -3912.7164    1550.3227    15696.773    81.708911 
    7330    1999.7955    -4023.227   -3911.8162    2867.6151    15699.154    81.951286 
    7340    2064.2553   -4025.9919   -3910.9899    3369.5134    15702.488    82.218875 
    7350    2059.9622   -4025.0612   -3910.2984    4026.4839    15707.013    82.521476 
    7360    2091.7596   -4026.3222    -3909.788    3588.8595    15712.802    82.871559 
    7370    2088.1174    -4025.773   -3909.4416    2767.6802    15719.485    83.231711 
    7380    2056.9478   -4023.8659    -3909.271      1881.19    15726.443    83.603271 
    7390    2007.6522   -4021.0819   -3909.2334    1182.5308    15733.229    83.976841 
    7400    1996.4315   -4020.5168   -3909.2934    617.46218    15739.696    84.318202 
    7410    1981.2244   -4019.8061   -3909.4298    334.13714     15745.95    84.632321 
    7420    1951.2516   -4018.3359   -3909.6295    365.46998    15752.191    84.950192 
    7430    1915.5968   -4016.5754   -3909.8554     356.3706    15758.557    85.263664 
    7440    1914.9398   -4016.7638   -3910.0803   -29.214928    15765.029    85.559984 
    7450    1941.1636   -4018.4533   -3910.3089   -642.68825    15771.492    85.858205 
    7460    1947.7852   -4019.0804   -3910.5671   -956.53689    15777.854    86.161892 
    7470     1941.901   -4019.0577   -3910.8722   -843.31385    15784.046     86.45308 
    7480     1940.861   -4019.3543   -3911.2268   -766.78357    15790.089    86.734922 
    7490    1947.1813    -4020.125   -3911.6453   -926.76923    15796.073    87.020591 
    7500    1901.3033   -4018.0366   -3912.1129   -560.31964    15802.065    87.305045 
    7510    1877.2628   -4017.1968   -3912.6124   -438.42782    15808.111    87.564666 
    7520    1871.7083   -4017.3873   -3913.1123   -910.28335    15814.206    87.808486 
    7530    1886.3776   -4018.7122     -3913.62   -1750.8402    15820.211    88.045744 
    7540    1871.0127   -4018.3866   -3914.1504   -1884.0265    15825.861    88.280207 
    7550     1801.771   -4015.0442   -3914.6655   -1080.1352    15830.986    88.507384 
    7560    1793.0157   -4015.0228   -3915.1319   -881.36524    15835.661    88.727332 
    7570    1793.8451   -4015.4638   -3915.5266    -999.3908    15839.965    88.942309 
    7580    1784.3184   -4015.2557   -3915.8494   -1089.2929    15843.939    89.162096 
    7590     1777.396   -4015.1025   -3916.0818   -798.53958    15847.665    89.407549 
    7600    1830.1946   -4018.1896   -3916.2274   -219.03464    15851.354     89.66221 
    7610     1875.441   -4020.8014   -3916.3184    461.37925    15855.255    89.937045 
    7620    1897.8303   -4022.1303      -3916.4    1117.0808    15859.477    90.269294 
    7630    1896.4345   -4022.1376   -3916.4851    1645.8549    15864.046      90.6548 
    7640    1933.1612   -4024.3113   -3916.6128    1515.7814    15868.938    91.034141 
    7650    1893.3938   -4022.2714   -3916.7883    1821.9613    15874.021    91.401738 
    7660    1840.0907   -4019.5095    -3916.996     2017.745     15879.28    91.780742 
    7670    1848.8541   -4020.1946   -3917.1928    1725.2852    15884.916    92.180184 
    7680    1903.5136   -4023.4349    -3917.388    1684.4291    15891.079     92.55884 
    7690    1949.6557   -4026.2488   -3917.6313    1650.5717    15897.757    92.868364 
    7700    1998.2033     -4029.32   -3917.9979    1260.1797    15904.804    93.107185 
    7710    2017.9033   -4030.9804   -3918.5607    833.86061    15912.091    93.317164 
    7720    1996.9711   -4030.6047   -3919.3512    1125.9508    15919.444    93.524534 
    7730    1955.2385   -4029.2702   -3920.3416    1864.6808    15926.823      93.7575 
    7740    1926.8606   -4028.8293   -3921.4817    2331.5072    15934.197    94.037486 
    7750    1859.8188   -4026.2782   -3922.6656    2276.0116    15941.318    94.333542 
    7760    1809.9234   -4024.6372   -3923.8044    2193.2427    15947.939    94.590473 
    7770    1779.5256   -4023.9578   -3924.8185    2056.3485    15954.042    94.813653 
    7780    1778.1058   -4024.7489   -3925.6886    1278.0894    15959.753    95.027031 
    7790    1771.7997   -4025.1222   -3926.4133    676.14303    15965.097    95.254421 
    7800     1770.573   -4025.6398   -3926.9992    325.39073    15970.189    95.504272 
    7810     1783.976   -4026.8469   -3927.4596   -7.4528079    15975.161    95.745318 
    7820    1793.8606    -4027.755    -3927.817   -307.37911     15980.02    95.962315 
    7830    1782.0456   -4027.3628   -3928.0831   -81.330664    15984.683     96.16181 
    7840    1805.4696   -4028.8497    -3928.265    130.50487    15989.082    96.334183 
    7850    1845.3746   -4031.1993   -3928.3914   -172.33053    15993.204    96.480732 
    7860     1846.097   -4031.3512    -3928.503   -96.278455    15997.079    96.614745 
    7870     1813.661   -4029.6417   -3928.6006    327.04996     16000.84    96.783231 
    7880    1821.4734   -4030.1475   -3928.6712    400.06414    16004.661    97.028466 
    7890    1787.7504   -4028.2912   -3928.6936    449.54233    16008.562    97.319746 
    7900     1756.465    -4026.512   -3928.6574    349.47118      16012.5    97.608506 
    7910    1752.9601   -4026.1789   -3928.5195    306.01854    16016.487    97.896757 
    7920    1817.2777   -4029.5328   -3928.2902    201.44872    16020.407    98.168908 
    7930    1781.7776   -4027.2528    -3927.988    1187.1892    16024.045    98.402698 
    7940    1723.0327   -4023.6069   -3927.6148    1854.2245     16027.33    98.597271 
    7950    1730.0859   -4023.4852   -3927.1001    1634.7154    16030.239     98.75815 
    7960    1784.3929   -4025.8241   -3926.4136     1098.775    16032.856    98.888827 
    7970    1818.3021   -4026.8978   -3925.5981    690.61235    16035.273    99.000665 
    7980    1862.3232   -4028.4454   -3924.6932    424.12848      16037.6    99.120181 
    7990    1872.5339   -4028.0696   -3923.7486    551.35439    16039.857    99.257338 
    8000    1807.7416   -4023.5248   -3922.8134    1079.4509    16042.098    99.419427 
    8010    1771.5848   -4020.5638   -3921.8669    1231.5451    16044.543    99.620238 
    8020    1802.4987   -4021.2795   -3920.8603    789.28006    16047.301    99.888384 
    8030    1882.2531   -4024.6732   -3919.8108   -133.00461    16050.309    100.20226 
    8040    1918.4656   -4025.7056   -3918.8257   -448.66204    16053.477    100.51177 
    8050    1942.8289   -4026.2347   -3917.9975   -586.19564    16056.723    100.77491 
    8060    1974.2344   -4027.3476   -3917.3608   -679.58633    16059.966    100.98942 
    8070    2017.2889   -4029.3392   -3916.9538   -784.73247    16063.203    101.16189 
    8080    2034.7463   -4030.1674   -3916.8094    -498.2217    16066.474    101.28681 
    8090    1999.4738   -4028.3276   -3916.9347    5.2006663    16069.874    101.39539 
    8100    1927.4713   -4024.6341   -3917.2525    697.70592     16073.67    101.53091 
    8110     1891.676   -4023.0522   -3917.6648    1111.4371    16078.091    101.69747 
    8120    1887.8819   -4023.2995   -3918.1234    1280.2025    16083.128    101.86161 
    8130    1851.2277    -4021.736   -3918.6021    1661.1651    16088.686    102.00464 
    8140    1812.2865   -4020.0099   -3919.0454    2169.8362    16094.736     102.1529 
    8150    1817.6404   -4020.7058    -3919.443    2411.1392    16101.294    102.34499 
    8160    1845.4874    -4022.613   -3919.7988    2667.0841    16108.387    102.59538 
    8170    1920.7228   -4027.1717   -3920.1661    2464.9348    16115.979    102.92457 
    8180    1940.2774   -4028.7082   -3920.6132    2348.0508    16124.007    103.31139 
    8190    1930.6463   -4028.6945    -3921.136    1737.2683     16132.39    103.67857 
    8200    1937.6463   -4029.6747   -3921.7263    1009.5885     16141.01    104.01097 
    8210    1949.1584   -4030.9793   -3922.3895    882.98068    16149.749    104.32085 
    8220    1924.6817    -4030.349   -3923.1228    781.58552    16158.589    104.59683 
    8230    1839.3844   -4026.3255   -3923.8514    654.73576    16167.551    104.82787 
    8240    1825.8324   -4026.2529   -3924.5337   -87.699323    16176.775    105.00269 
    8250    1771.3215   -4023.8137   -3925.1313     -263.666    16186.331    105.16197 
    8260    1758.2288   -4023.5862   -3925.6333   -234.49627    16196.278    105.36824 
    8270    1765.5913   -4024.4173   -3926.0542    -152.6742    16206.665    105.60779 
    8280    1746.8009   -4023.7124   -3926.3962    256.58341     16217.49    105.84219 
    8290    1751.9335   -4024.2808   -3926.6786    335.49933    16228.706    106.08635 
    8300    1768.5164   -4025.4344   -3926.9083    592.60627    16240.159    106.36991 
    8310     1770.048   -4025.7237   -3927.1123    702.61233    16251.779    106.69296 
    8320    1779.0103   -4026.4037    -3927.293    199.09409    16263.526    107.01339 
    8330    1787.7994   -4027.0656   -3927.4653    338.26955     16275.26    107.33938 
    8340    1806.6697   -4028.3048   -3927.6532     552.8012    16287.028     107.6853 
    8350     1856.993   -4031.3472    -3927.892     837.7734    16298.936    108.01653 
    8360     1860.158    -4031.865   -3928.2335    1180.5214    16311.081     108.3314 
    8370    1802.4863   -4029.0888   -3928.6702    1381.0008    16323.586    108.68084 
    8380    1749.2134   -4026.5896    -3929.139    1269.7509    16336.576    109.11821 
    8390    1736.2624   -4026.3278   -3929.5987    981.63309    16350.149    109.64049 
    8400    1708.3556   -4025.2062   -3930.0318    1268.1758    16364.445    110.19826 
    8410    1733.0449   -4026.9703   -3930.4204    1256.4027    16379.617    110.72008 
    8420    1777.6799   -4029.8301   -3930.7935    601.97769    16395.592    111.14758 
    8430    1756.0468   -4029.0064    -3931.175   -170.96519    16412.174     111.5368 
    8440    1730.0334   -4027.9377   -3931.5555   -1201.1387    16429.146    111.94906 
[...]
   24900    285.71321   -4269.7726   -4253.8552   -19591.745     10058.49    119.10782 
   24910    290.35731     -4270.14   -4253.9639   -19891.461    10063.871    119.09265 
   24920    283.09363    -4269.824   -4254.0525   -20104.484    10069.573    119.09322 
   24930    282.93988   -4269.8834   -4254.1205   -20151.565    10074.808    119.09971 
   24940    286.73736   -4270.1431   -4254.1687   -20098.892    10079.117    119.10857 
   24950     302.8101   -4271.0794   -4254.2095   -20253.374    10082.403    119.12216 
   24960    296.85921    -4270.791   -4254.2526   -20146.084    10084.841    119.14121 
   24970    274.87307   -4269.6021   -4254.2886   -20059.209    10086.879    119.15557 
   24980    278.05997   -4269.7949   -4254.3039   -20717.216    10088.789    119.14958 
   24990    285.68871   -4270.2116   -4254.2956   -21642.353    10090.297    119.11673 
   25000    285.17552   -4270.1568   -4254.2693   -22167.074    10091.118    119.06714 
   25010    291.78315   -4270.4818   -4254.2263   -22087.307    10091.197    119.02557 
   25020    302.49225   -4271.0213   -4254.1692   -21662.083    10090.714    118.99987 
   25030    294.69374   -4270.5196   -4254.1019   -20870.378      10090.1    118.97824 
   25040    289.84136   -4270.1692   -4254.0218   -20263.722    10089.809    118.94691 
   25050    293.77286   -4270.2824   -4253.9159   -20062.969    10089.919    118.89778 
   25060    298.76453    -4270.423   -4253.7785   -20046.731    10090.219    118.83422 
   25070     300.7866   -4270.3654   -4253.6082   -19964.233    10090.617    118.77729 
   25080    303.43634   -4270.3102   -4253.4054   -19699.596    10091.263    118.74678 
   25090    302.07555   -4270.0024   -4253.1735   -19352.392    10092.389     118.7379 
   25100    307.68956   -4270.0628   -4252.9211   -19139.304    10094.043    118.73513 
   25110    317.38246   -4270.3432   -4252.6614   -19227.096    10096.228    118.73417 
   25120    315.54183   -4270.0026   -4252.4234   -19214.115    10099.116    118.74074 
   25130    310.13976   -4269.5022    -4252.224   -19432.548    10102.983    118.76526 
   25140      327.164   -4270.2856   -4252.0589    -20263.31    10107.737    118.81192 
   25150    341.28196   -4270.9478   -4251.9346   -21078.207     10112.82    118.87097 
   25160     331.9585   -4270.3622   -4251.8684   -21283.403    10117.645    118.92527 
   25170    316.27449   -4269.4685   -4251.8485   -21039.048    10121.916    118.96692 
   25180    300.58805   -4268.5934   -4251.8473   -21082.197    10125.393    119.00164 
   25190    294.28675   -4268.2426   -4251.8475   -21538.862    10127.509    119.03759 
   25200    297.60651   -4268.4261   -4251.8461   -22204.237    10127.438    119.07272 
   25210    310.86993   -4269.1723   -4251.8534   -22912.987    10124.519    119.09213 
   25220    319.49117   -4269.6796   -4251.8803   -23173.017    10118.671     119.0769 
   25230    312.63971   -4269.3413   -4251.9238   -22534.667    10110.578    119.02013 
   25240     303.8036   -4268.8919   -4251.9667   -21194.456    10101.477    118.93953 
   25250    302.20398    -4268.833   -4251.9969   -19702.518    10092.845    118.86981 
   25260    310.76505   -4269.3337   -4252.0206   -18287.498    10086.194     118.8338 
   25270     321.9448   -4269.9996   -4252.0637    -17125.21    10082.693    118.83073 
   25280    310.76104   -4269.4507   -4252.1379   -16508.762    10082.761    118.85151 
   25290     303.8853    -4269.159   -4252.2292   -16724.698    10086.076    118.88614 
   25300    318.74909   -4270.0874   -4252.3295   -17296.946    10091.821    118.92279 
   25310    326.87443   -4270.6553   -4252.4447   -17653.555    10098.982    118.95074 
   25320    331.19941   -4271.0347   -4252.5832   -17844.266    10106.697    118.96312 
   25330    332.48386   -4271.2724   -4252.7494   -17821.812    10114.337    118.96822 
   25340    331.05236   -4271.3846   -4252.9413   -17700.785    10121.759     118.9892 
   25350     333.0701   -4271.7123   -4253.1566   -17835.917     10129.38    119.04035 
   25360    320.24864   -4271.2186   -4253.3772   -18027.708    10137.566    119.10822 
   25370    308.51398   -4270.7608   -4253.5731   -18439.362    10146.423    119.17078 
   25380    322.56764   -4271.7111   -4253.7405   -19350.878    10155.656    119.21279 
   25390    330.35121   -4272.2965   -4253.8923   -20078.755    10164.449    119.22728 
   25400    323.90633   -4272.0831   -4254.0379   -20033.892    10172.042    119.21974 
   25410    311.53901   -4271.5312    -4254.175   -19568.546    10178.205    119.20466 
   25420    302.11291   -4271.1256   -4254.2945   -19482.051    10183.163    119.19487 
   25430    308.52649   -4271.5876   -4254.3992   -20008.304    10187.081    119.19064 
   25440    313.44694   -4271.9624      -4254.5    -20344.29    10189.742    119.18521 
   25450    309.76024   -4271.8612   -4254.6042   -20227.196    10190.868    119.17492 
   25460    307.43079    -4271.838   -4254.7107   -20196.401    10190.396    119.15991 
   25470    310.89698    -4272.141   -4254.8206   -20312.831    10188.396    119.14927 
   25480    314.25534   -4272.4463   -4254.9388   -20600.197    10185.042    119.15951 
   25490    310.22752   -4272.3498   -4255.0666   -20705.773    10180.445    119.19588 
   25500    303.83479   -4272.1244   -4255.1975   -20623.979    10174.722    119.24463 
   25510    301.68306     -4272.13   -4255.3229   -20442.232      10168.2    119.28509 
   25520     311.7005   -4272.8094   -4255.4442   -20267.792    10161.351    119.30237 
   25530     328.5975   -4273.8868   -4255.5803   -19990.701    10154.538    119.29862 
   25540    323.94615   -4273.7904    -4255.743   -18937.893    10147.876    119.29226 
   25550    305.38534   -4272.9268   -4255.9135   -17641.708    10141.488    119.30666 
   25560    305.99161   -4273.1226   -4256.0754   -16821.954    10135.654    119.35298 
   25570    314.06909   -4273.7319   -4256.2348   -16481.222    10130.784    119.41193 
   25580    310.52703    -4273.694   -4256.3942   -16327.641    10127.481    119.44461 
   25590    309.59302   -4273.8029   -4256.5552   -16526.553    10126.299    119.42854 
   25600    304.30338   -4273.6677   -4256.7146   -16534.603    10127.301    119.37597 
   25610    298.89767   -4273.5156   -4256.8637   -16612.848    10130.194    119.32096 
   25620    302.02761   -4273.8264   -4257.0001   -17069.981    10134.551    119.28921 
   25630    305.10965    -4274.126    -4257.128   -17671.265    10139.984    119.28827 
   25640    300.36582    -4273.982   -4257.2483   -18311.145    10146.126      119.315 
   25650    289.50641   -4273.4794   -4257.3507   -18753.944    10152.449    119.35275 
   25660    292.79014   -4273.7424   -4257.4308   -19556.226    10158.241    119.38999 
   25670    303.69046   -4274.4165   -4257.4976   -20325.727     10162.48    119.42716 
   25680    309.41735   -4274.8083   -4257.5703   -20155.909    10164.352    119.46406 
   25690    308.04622   -4274.8166    -4257.655   -19494.282    10164.051    119.50629 
   25700    309.24099   -4274.9748   -4257.7466   -18770.792     10162.56    119.56406 
   25710    308.36521   -4275.0241   -4257.8447   -18129.181    10161.095    119.63431 
   25720    301.47364   -4274.7411   -4257.9457   -17704.604    10160.784    119.69906 
   25730    307.17262   -4275.1646   -4258.0517   -18232.178    10162.248    119.73313 
   25740    308.50316   -4275.3529   -4258.1658   -18883.615    10165.311    119.71655 
   25750    296.12796    -4274.778   -4258.2804   -19317.507    10169.568    119.65466 
   25760    298.69725   -4275.0277    -4258.387   -20226.031    10174.651    119.58133 
   25770    306.49926   -4275.5634    -4258.488   -21437.955    10179.954    119.53184 
   25780    300.99102   -4275.3544   -4258.5859   -22280.691    10184.592    119.51948 
   25790    296.03081   -4275.1711   -4258.6789   -22969.966      10187.7    119.53188 
   25800    295.41379   -4275.2262   -4258.7683   -23690.718    10188.473    119.54112 
   25810    298.89163   -4275.5118   -4258.8602   -24100.901    10186.254    119.53059 
   25820    300.83935   -4275.7239   -4258.9638    -24137.41    10180.597    119.50652 
   25830    294.59221   -4275.4897   -4259.0776   -23914.399     10171.31    119.48686 
   25840    293.92377   -4275.5712   -4259.1964   -23594.507    10158.464    119.48136 
   25850    294.70632   -4275.7299   -4259.3115   -22924.476    10142.354    119.48271 
   25860    292.36039   -4275.6939   -4259.4062   -21705.018    10123.765    119.48224 
   25870    287.88754   -4275.4954   -4259.4569   -20280.625    10104.125    119.47844 
   25880    298.88881   -4276.1199   -4259.4684   -19274.876    10085.071    119.47028 
   25890    299.52366   -4276.1445   -4259.4577   -18158.228     10067.86    119.45636 
   25900     292.4535   -4275.7265   -4259.4336   -17117.291    10053.644    119.44109 
   25910    295.04493   -4275.8467   -4259.4094   -16786.268    10043.415    119.42575 
   25920    304.12453   -4276.3445   -4259.4013   -17040.019    10037.541    119.40863 
   25930    306.11081    -4276.472   -4259.4183   -17602.956    10035.831    119.39505 
   25940    301.33276   -4276.2441   -4259.4565   -18553.161    10037.744    119.39525 
   25950    303.06759   -4276.3892    -4259.505   -19581.623    10042.348    119.41424 
   25960     302.1388    -4276.388   -4259.5555   -20658.877    10048.454    119.45115 
   25970    297.17973   -4276.1593    -4259.603    -21563.52     10054.71    119.50191 
   25980    301.10653   -4276.4273   -4259.6523   -22037.905    10059.927    119.55455 
   25990    298.73669   -4276.3553   -4259.7123    -21657.11    10063.366    119.59324 
   26000    295.03688   -4276.2235   -4259.7867   -21145.381     10064.81     119.6112 
   26010    300.61548   -4276.6274   -4259.8798   -21149.118    10064.032    119.61379 
   26020    302.90183   -4276.8781   -4260.0031   -21164.441    10060.676    119.61631 
   26030    293.54337   -4276.5081   -4260.1545   -20955.098    10054.839    119.63389 
   26040    291.60894    -4276.565   -4260.3191   -20831.843    10047.343    119.66435 
   26050    298.24879   -4277.1108    -4260.495   -20689.722     10039.34    119.68696 
   26060    291.01045   -4276.8929   -4260.6804   -20208.214    10031.952    119.68567 
   26070    276.76932   -4276.2781    -4260.859   -19914.003    10026.098    119.66471 
   26080    272.68661   -4276.2139   -4261.0223   -20045.332    10021.973    119.63956 
   26090    268.69741   -4276.1297   -4261.1603    -20483.43    10019.021    119.62663 
   26100    272.94432   -4276.4747   -4261.2686   -20808.851    10016.626    119.63457 
   26110    281.16081   -4277.0145   -4261.3507   -20805.435    10014.701     119.6597 
   26120    285.29844   -4277.3064   -4261.4121   -20467.409    10013.699    119.69165 
   26130    294.27707   -4277.8574   -4261.4629   -20417.678    10014.286     119.7241 
   26140    297.20482   -4278.0693   -4261.5116    -20493.54    10016.767    119.74953 
   26150    285.94269   -4277.4881   -4261.5579   -20421.219    10021.125    119.75858 
   26160    287.01443   -4277.5875   -4261.5976   -20513.044    10027.538    119.74857 
   26170    302.96794     -4278.51   -4261.6313   -20898.373    10036.169    119.72331 
   26180    315.28712   -4279.2299   -4261.6649   -21488.163     10046.64    119.68628 
   26190    313.28524   -4279.1556   -4261.7021    -21887.27    10057.929    119.64176 
   26200    302.63468    -4278.602   -4261.7419   -21755.671    10068.864    119.60379 
   26210    299.29872   -4278.4579   -4261.7836   -21673.242    10078.627    119.59683 
   26220    292.68807   -4278.1324   -4261.8264   -21805.534    10086.729    119.63489 
   26230     290.6692    -4278.062   -4261.8685   -21853.861    10093.036    119.70222 
   26240    305.78876   -4278.9511   -4261.9153   -22165.793     10097.61     119.7684 
   26250    298.09995    -4278.582   -4261.9745   -21741.421    10100.335    119.81241 
   26260    281.28565     -4277.71   -4262.0393   -21148.653    10101.476    119.83304 
   26270    284.52242   -4277.9481    -4262.097   -20992.268    10101.731    119.84841 
   26280    291.91704   -4278.4117   -4262.1486   -21279.627    10101.559    119.87963 
   26290    287.85107   -4278.2339   -4262.1974   -21732.395    10100.927    119.93047 
   26300    290.60401   -4278.4347   -4262.2449   -22338.944    10099.568     119.9909 
   26310    288.79536   -4278.3799   -4262.2907   -22832.518    10097.133    120.04924 
   26320    289.00282   -4278.4354   -4262.3348   -23003.269    10093.351    120.09124 
   26330    296.03931   -4278.8726   -4262.3799   -23018.084    10088.021    120.10936 
   26340    292.93785   -4278.7473   -4262.4274   -22803.134    10081.012    120.10719 
   26350    294.74498    -4278.895   -4262.4745   -22576.385    10072.496     120.0918 
   26360    295.35955   -4278.9701   -4262.5153   -21715.168    10062.998    120.07261 
   26370    285.15387   -4278.4264   -4262.5401   -20244.534    10053.542    120.06045 
   26380    288.38068   -4278.6129   -4262.5469    -19122.62    10045.254    120.06505 
   26390    294.20385   -4278.9335   -4262.5431   -18568.052    10038.976    120.08988 
   26400    287.87181   -4278.5724   -4262.5348   -18569.937    10035.252    120.12899 
   26410      301.042   -4279.2964    -4262.525   -19507.985    10034.066    120.17099 
   26420    321.63192   -4280.4394   -4262.5209   -20714.984    10034.514    120.20675 
   26430    315.27692   -4280.1012   -4262.5367   -21136.502    10035.489    120.23346 
   26440    300.84261   -4279.3311   -4262.5708   -21208.656     10036.38     120.2561 
   26450    298.39053   -4279.2335   -4262.6099   -21213.747    10036.884     120.2854 
   26460    309.16383   -4279.8766   -4262.6528   -21295.514    10036.807    120.32761 
   26470    323.63681   -4280.7451    -4262.715   -21465.866    10035.948    120.38199 
   26480    314.65688   -4280.3382   -4262.8083   -21345.116    10033.945    120.44493 
   26490    299.87137   -4279.6284   -4262.9223   -21104.191    10030.539    120.51199 
   26500    300.01027    -4279.759   -4263.0451   -20842.026     10025.65    120.57117 
   26510     296.1547   -4279.6681    -4263.169   -20125.354    10019.553    120.60265 
   26520    300.40396   -4280.0247   -4263.2889   -19413.963    10012.772    120.59816 
   26530    316.32495   -4281.0397   -4263.4169   -19378.851    10005.806    120.57262 
   26540    316.78731   -4281.2115   -4263.5629   -19470.127     9998.948    120.55215 
   26550    314.64779   -4281.2556   -4263.7262   -19510.668    9992.5022    120.55621 
   26560    303.55657   -4280.8069   -4263.8954    -19135.18    9986.9155    120.59283 
   26570    291.96301   -4280.3181   -4264.0525   -18801.792    9982.7168    120.65611 
   26580    300.82861   -4280.9558   -4264.1963   -19084.462    9980.2422    120.73008 
   26590     319.1859    -4282.126   -4264.3438   -19674.654    9979.2169    120.80409 
   26600    318.10313   -4282.2247   -4264.5028   -20126.925    9978.8202    120.86958 
   26610    309.81434   -4281.9255   -4264.6654   -20396.061    9978.2354    120.92134 
   26620    297.59523   -4281.3972   -4264.8178   -20517.023    9977.0676    120.96056 
   26630    285.04206   -4280.8246   -4264.9446   -20552.537    9975.2621    120.98807 
   26640    287.10005   -4281.0378   -4265.0432   -21073.066    9972.8877    121.00377 
   26650    290.43433   -4281.3004   -4265.1199   -21897.713    9969.9548    121.01583 
   26660    285.60696   -4281.0917   -4265.1802   -22663.097    9966.2349    121.03777 
   26670    281.32126   -4280.8978   -4265.2251   -22977.734    9961.2286    121.07255 
   26680    280.51191   -4280.8815   -4265.2538   -23072.593    9954.4877    121.10896 
   26690    281.61806   -4280.9547   -4265.2654   -22991.486     9945.905    121.13557 
   26700    283.51935   -4281.0542    -4265.259   -22650.469    9935.6528    121.15284 
   26710    292.31937    -4281.522   -4265.2365    -22274.36    9923.9687     121.1672 
   26720    304.55875    -4282.173   -4265.2057   -22075.193    9911.0772    121.18624 
   26730    296.26412   -4281.6766   -4265.1714   -21359.469    9897.2725    121.21487 
   26740    284.19074    -4280.955   -4265.1224   -20204.978    9883.1828    121.25156 
   26750    293.37114   -4281.3928   -4265.0488   -19342.258    9869.6611    121.29307 
   26760    306.87015   -4282.0543   -4264.9582    -19025.69    9857.3907    121.33982 
   26770     315.9943   -4282.4757   -4264.8713   -19258.535    9846.7887    121.39146 
   26780    317.05066    -4282.468   -4264.8048   -19792.356     9837.959    121.44361 
   26790    310.41128   -4282.0555   -4264.7621   -20499.422    9830.7039    121.49048 
   26800    311.72826    -4282.104   -4264.7373    -21014.88    9824.6306    121.53352 
   26810    319.74879   -4282.5428   -4264.7292   -21094.347    9819.4397    121.58166 
   26820    313.03492   -4282.1809   -4264.7413   -20546.147    9815.1238    121.64755 
   26830    306.26209   -4281.8317   -4264.7695   -19615.375    9811.9891    121.73346 
   26840    311.08372   -4282.1435   -4264.8126   -19164.374    9810.4102    121.82569 
   26850    311.49059   -4282.2286   -4264.8751   -19337.167     9810.454    121.90533 
   26860    310.69179   -4282.2699   -4264.9609   -19895.438    9811.9305    121.96145 
   26870    311.86762   -4282.4452   -4265.0707    -20893.07    9814.5933    122.00007 
   26880    316.00289   -4282.8144   -4265.2095   -22155.195    9818.0037    122.04166 
   26890    314.74302   -4282.9159   -4265.3813   -23234.171     9821.352    122.10491 
   26900    312.57079   -4283.0008   -4265.5871   -23878.165    9823.6955    122.18582 
   26910    308.96264    -4283.037   -4265.8244   -23962.767    9824.2541     122.2654 
   26920    303.23811   -4282.9722   -4266.0785   -23799.985    9822.8135      122.334 
   26930    294.93887   -4282.7567   -4266.3254   -23619.016    9819.6118    122.39843 
   26940    283.29852   -4282.3208   -4266.5379   -23177.267    9814.9499    122.46949 
   26950    280.09263   -4282.3057   -4266.7014   -22741.223    9809.1286    122.54282 
   26960    288.38059   -4282.8864   -4266.8204   -22370.837    9802.5555    122.59723 
   26970    293.71092   -4283.2677   -4266.9048   -21821.329    9795.7111    122.61606 
   26980    297.08356    -4283.513   -4266.9622   -21467.306    9789.2539    122.60161 
   26990    305.76107   -4284.0394   -4267.0051    -21469.76    9783.8748    122.56949 
   27000    308.24579   -4284.2195   -4267.0468   -21325.614      9779.97    122.53646 
Loop time of 3937.88 on 16 procs for 10000 steps with 432 atoms

Performance: 0.219 ns/day, 109.386 hours/ns, 2.539 timesteps/s
94.6% CPU use with 16 MPI tasks x 1 OpenMP threads

MPI task timing breakdown:
Section |  min time  |  avg time  |  max time  |%varavg| %total
---------------------------------------------------------------
Pair    | 2113.2     | 3020.4     | 3872.6     | 928.9 | 76.70
Bond    | 0.00096703 | 0.0032465  | 0.0090618  |   3.8 |  0.00
Neigh   | 0.051695   | 0.077501   | 0.11494    |   7.8 |  0.00
Comm    | 63.257     | 772.5      | 1400.3     |1473.4 | 19.62
Output  | 1.041      | 1.0535     | 1.2374     |   4.6 |  0.03
Modify  | 0.59081    | 143.79     | 571.94     |2061.5 |  3.65
Other   |            | 0.04505    |            |       |  0.00

Nlocal:        27.0000 ave          38 max          17 min
Histogram: 1 3 4 1 1 0 2 0 0 4
Nghost:        376.375 ave         433 max         292 min
Histogram: 3 1 0 0 2 2 0 0 4 4
Neighs:         0.00000 ave           0 max           0 min
Histogram: 16 0 0 0 0 0 0 0 0 0
FullNghs:      1251.00 ave        2218 max         530 min
Histogram: 3 3 2 1 1 2 0 0 0 4

Total # of neighbors = 20016
Ave neighs/atom = 46.333333
Ave special neighs/atom = 0.0000000
Neighbor list builds = 997
Dangerous builds = 978
unfix   4

write_data  structureB.data
System init for write_data ...
            
Total wall time: 2:54:50
