LAMMPS (29 Sep 2021 - Update 3)
OMP_NUM_THREADS environment is not set. Defaulting to 1 thread. (src/comm.cpp:98)
  using 1 OpenMP thread(s) per MPI task
Reading data file ...
  orthogonal box = (0.0000000 0.0000000 0.0000000) to (18.131529 18.131529 36.263058)
  1 by 2 by 4 MPI processor grid
  reading atoms ...
  432 atoms
Finding 1-2 1-3 1-4 neighbors ...
  special bond factors lj:    0        0        0       
  special bond factors coul:  0        0        0       
     0 = max # of 1-2 neighbors
     0 = max # of 1-3 neighbors
     0 = max # of 1-4 neighbors
     1 = max # of special neighbors
  special bonds CPU = 0.001 seconds
  read_data CPU = 0.151 seconds
Neighbor list info ...
  update every 1 steps, delay 10 steps, check yes
  max neighbors/atom: 2000, page size: 100000
  master list distance cutoff = 6.22
  ghost atom cutoff = 6.22
  binsize = 3.11, bins = 6 6 12
  1 neighbor lists, perpetual/occasional/extra = 1 0 0
  (1) pair quip, perpetual
      attributes: full, newton on
      pair build: full/bin
      stencil: full/bin/3d
      bin: standard
Setting up Verlet run ...
  Unit style    : metal
  Current step  : 0
  Time step     : 0.001
Per MPI rank memory allocation (min/avg/max) = 8.920 | 8.920 | 8.920 Mbytes
Step Temp PotEng TotEng Press Volume c_msd[4] 
       0          300   -4141.6675   -4124.9542   -19592.105    11921.565            0 
      10    309.19534    -4142.459   -4125.2334   -18852.135    11898.437 0.0028287057 
      20    324.33881   -4144.0563    -4125.987   -16429.769     11831.27  0.012190544 
      30     346.5794    -4146.285   -4126.9766   -12632.509    11727.087  0.030222698 
      40    375.71681    -4148.879   -4127.9474   -8624.2054    11597.095  0.058995677 
      50    408.44719   -4151.5655   -4128.8104   -5457.8153    11453.874  0.098975242 
      60    430.99369   -4153.6224   -4129.6113   -2822.6376    11308.496   0.14861236 
      70    414.40642   -4153.3974   -4130.3104     -124.492    11170.051   0.20438156 
      80    376.98633   -4151.7741   -4130.7718    2109.3374    11045.803   0.25986155 
      90    344.19142   -4150.1562   -4130.9809    3565.9789    10940.082   0.30924795 
     100    335.59385   -4149.7481   -4131.0517    4047.0904    10854.002   0.34965575 
     110    368.15463   -4151.6432   -4131.1329    3840.7706    10786.021   0.38073593 
     120    399.32116   -4153.5542   -4131.3075    4038.4784    10733.393   0.40544533 
     130     410.8696     -4154.49      -4131.6    4657.8713    10694.242   0.42493662 
     140    422.99816   -4155.5937    -4132.028    4848.2257    10667.626   0.43856516 
     150    412.79629   -4155.5677   -4132.5703    4893.6135    10652.349     0.448997 
     160    383.36867   -4154.4951   -4133.1372    4823.5462    10647.265   0.45830742 
     170    365.20956   -4154.0139   -4133.6677    4467.7246    10651.349   0.46598872 
     180    370.52043     -4154.82   -4134.1779    3786.9125    10663.303   0.47217262 
     190    376.49875   -4155.6706   -4134.6954    3029.7109    10681.515   0.47852273 
     200    377.88356   -4156.2782   -4135.2259    2422.0445    10704.407   0.48518339 
     210     383.4631    -4157.138   -4135.7749    1938.5655    10730.733   0.49067901 
     220    378.32895   -4157.4166   -4136.3395    1557.9199    10759.536   0.49459718 
     230     355.5458   -4156.6856   -4136.8777    1272.5626    10790.123   0.49609312 
     240    356.78573   -4157.2478   -4137.3709    544.44948    10821.869   0.49288093 
     250    370.86311   -4158.5153   -4137.8541   -464.25876    10853.421    0.4864402 
     260    362.51455   -4158.5306   -4138.3345   -1037.3023    10883.024   0.48011321 
     270    353.00307   -4158.4638   -4138.7976   -1387.8876    10909.617   0.47434224 
     280    350.77495   -4158.7885   -4139.2464   -1805.7112    10932.572   0.46882465 
     290    341.05176   -4158.6811   -4139.6807   -1938.9424    10951.258     0.464793 
     300    328.47302   -4158.3888   -4140.0892   -1813.3754     10965.56   0.46329387 
     310    323.55109   -4158.4954     -4140.47   -1625.1259    10975.833   0.46494636 
     320    327.78474   -4159.0997   -4140.8384   -1518.6998    10982.552   0.46976771 
     330     332.6817   -4159.7437   -4141.2096   -1514.5582    10986.038   0.47698871 
     340    335.84591   -4160.2968   -4141.5864   -1529.0734    10986.418   0.48532051 
     350    342.96166   -4161.0822   -4141.9754   -1773.3606    10983.702   0.49370934 
     360      339.511   -4161.2922   -4142.3776   -1781.9349    10977.581   0.50292336 
     370      332.478   -4161.2969   -4142.7742   -1339.9679    10968.189   0.51399317 
     380    334.28989    -4161.791   -4143.1674   -878.45194    10956.421   0.52740167 
     390    328.74557   -4161.8687   -4143.5539   -571.43305    10943.241   0.54275328 
     400    327.96742   -4162.2037   -4143.9322   -467.46657    10929.283   0.55772945 
     410    331.38228   -4162.7707    -4144.309   -468.69665     10914.79   0.57118126 
     420    324.18188   -4162.7394   -4144.6788   -258.48062    10899.838   0.58332693 
     430     312.3045   -4162.4231   -4145.0242    112.00673    10884.837   0.59384731 
     440    304.94805   -4162.3234   -4145.3344    487.80882    10870.501   0.60335941 
     450    307.34351   -4162.7421   -4145.6196     551.0059    10857.454   0.61393054 
     460    309.01648   -4163.1077   -4145.8921    292.97283    10845.776   0.62681502 
     470    313.98815   -4163.6581   -4146.1655   -48.656699    10834.967   0.64091422 
     480    311.37487   -4163.7867   -4146.4396   -184.60227    10824.394   0.65475059 
     490    315.15457    -4164.271   -4146.7134    -269.6092    10813.754   0.66674627 
     500     316.7007   -4164.6355   -4146.9917   -172.90057    10802.906   0.67673987 
     510    309.69935   -4164.5202   -4147.2665    236.20885    10792.086   0.68389364 
     520    302.95298   -4164.4054   -4147.5276    648.48795    10782.015   0.68911668 
     530     300.2858   -4164.4991   -4147.7699    802.08467    10773.402   0.69573102 
     540    308.83461   -4165.2118   -4148.0062    454.00451    10766.455   0.70598295 
     550    306.43622   -4165.3141   -4148.2422    223.42641    10760.583   0.72060706 
     560    300.60818   -4165.2163   -4148.4691    249.67495     10755.33   0.73737509 
     570    301.30413   -4165.4718   -4148.6858    329.17628    10750.687    0.7516772 
     580    308.56671   -4166.0872   -4148.8966    388.64915    10746.787    0.7588656 
     590    323.85973   -4167.1639   -4149.1213    -4.305023     10743.63   0.75933464 
     600    324.58167   -4167.4523   -4149.3695   -461.76175    10740.535   0.75816261 
     610    314.38802   -4167.1478   -4149.6328   -740.47281    10736.659   0.75837926 
     620    295.74511   -4166.3616   -4149.8853   -669.54491    10731.538   0.76125725 
     630    287.24205   -4166.1146    -4150.112   -601.51253    10725.243   0.76711013 
     640    278.02623   -4165.7966   -4150.3075   -399.32515    10717.962    0.7756199 
     650    276.22285   -4165.8593   -4150.4706     -134.121    10710.085   0.78451103 
     660    289.95782   -4166.7628    -4150.609   -56.588439    10702.081   0.79147394 
     670    312.79451   -4168.1726   -4150.7464   -93.473887    10694.119   0.79722274 
     680    310.04786   -4168.1686   -4150.8955    164.02777    10686.206   0.80433412 
     690     298.6982   -4167.6879   -4151.0471    497.14404    10678.784   0.81102841 
     700    305.63178    -4168.227   -4151.1999    556.75578    10672.394   0.81343254 
     710    310.91165    -4168.685   -4151.3638     798.8526    10667.228   0.81304452 
     720    298.13884   -4168.1474   -4151.5377    1260.4312    10663.719   0.81339417 
     730    287.08591   -4167.6992   -4151.7054     1519.677    10662.622   0.81294628 
     740    300.11625   -4168.5861   -4151.8663    1031.2373    10664.287    0.8084517 
     750    306.86648   -4169.1228   -4152.0269    143.38729    10667.811   0.80262829 
     760    297.58778   -4168.7635   -4152.1845   -404.01229    10671.601   0.79987125 
     770    283.86781   -4168.1329   -4152.3183   -574.96094    10674.626   0.80144617 
     780    284.21563   -4168.2518   -4152.4179   -714.75544    10676.514   0.80691247 
     790    287.76036    -4168.522   -4152.4906    -897.6271    10676.998   0.81513263 
     800     291.0947   -4168.7695   -4152.5523     -1000.05    10675.794   0.82411664 
     810    291.56471   -4168.8549   -4152.6115   -955.14406    10672.758   0.83135512 
     820    294.96767   -4169.1033   -4152.6703    -808.5574     10668.01   0.83515242 
     830    295.52392   -4169.1928   -4152.7288   -549.53875    10661.869   0.83686252 
     840    288.99926   -4168.8804     -4152.78   -230.29108     10654.85   0.83933409 
     850    292.99985    -4169.145   -4152.8216   -119.25364     10647.52   0.84430491 
     860    288.25028   -4168.9098    -4152.851    20.241365    10640.149   0.85196767 
     870    289.54832   -4168.9995   -4152.8685    87.051466    10632.978   0.86009057 
     880    294.83943   -4169.3032   -4152.8774    168.90013    10626.137    0.8675596 
     890     291.0858   -4169.0966   -4152.8799    434.66255    10619.805   0.87405825 
     900    294.50059    -4169.283    -4152.876     431.1556    10614.376   0.87791388 
     910    295.71108   -4169.3402   -4152.8658     298.6068     10609.84   0.87995464 
     920     294.8305   -4169.2753     -4152.85    351.16623     10605.99   0.88291356 
     930    298.85521   -4169.4787   -4152.8291    577.03959    10602.901   0.88821022 
     940    300.93723   -4169.5709   -4152.8053    1008.1932    10600.997   0.89519487 
     950    303.48687   -4169.6933   -4152.7857    1369.6693        10601   0.90244375 
     960    294.07094   -4169.1541   -4152.7711    1602.7069    10603.544   0.90918417 
     970    285.87457   -4168.6822   -4152.7558    1617.6304        10609   0.91382518 
     980    285.97251   -4168.6591   -4152.7272    1512.8276     10617.38   0.91532937 
     990    297.26781   -4169.2455   -4152.6844    1163.7932    10628.397   0.91384707 
    1000    299.09695   -4169.2946   -4152.6316    832.80544    10641.418   0.91151081 
    1010    299.60809    -4169.266   -4152.5745    501.38894    10655.787   0.90958968 
    1020    292.74037   -4168.8206   -4152.5117    243.01219    10670.864   0.90807043 
    1030      284.422   -4168.2863   -4152.4409    27.998902    10686.166   0.90498522 
    1040    294.48693   -4168.7613   -4152.3551   -562.17104    10701.195   0.89959627 
    1050    305.98318   -4169.3005   -4152.2538   -1164.4032    10714.906   0.89417583 
    1060    309.75451   -4169.4093   -4152.1525   -1339.8093    10726.244   0.89060001 
    1070    305.30185   -4169.0717    -4152.063   -1311.5294    10734.866   0.88877683 
    1080    303.18896   -4168.8762   -4151.9852   -1171.6533     10740.86   0.88723061 
    1090    302.71368   -4168.7806   -4151.9161   -970.25763    10744.517   0.88517549 
    1100    301.27618    -4168.636   -4151.8516   -632.63536    10746.302   0.88305068 
    1110    301.81911   -4168.6016   -4151.7869   -481.31612    10746.802   0.88112488 
    1120    302.83773   -4168.5907   -4151.7192   -354.09541    10746.371   0.87870355 
    1130    310.98029   -4168.9761   -4151.6511   -351.53946    10745.253   0.87517977 
    1140    322.98876   -4169.5871    -4151.593   -500.25025     10743.45   0.87186494 
    1150    321.00753   -4169.4425   -4151.5588   -269.13523    10740.796   0.86949102 
    1160    308.48075   -4168.7357   -4151.5499    179.15017     10737.71   0.86631199 
    1170    305.68243   -4168.5852   -4151.5553    553.50395    10735.025   0.86148206 
    1180    309.83363    -4168.832   -4151.5709     784.0765    10733.413   0.85691367 
    1190    302.51742   -4168.4481   -4151.5945    1062.0325    10733.348   0.85463317 
    1200    305.42581   -4168.6403   -4151.6247    966.91914    10735.259   0.85426318 
    1210    315.43831   -4169.2384   -4151.6649    601.35936    10738.959   0.85541513 
    1220    314.43437   -4169.2405    -4151.723    407.30299    10743.802   0.85677217 
    1230    306.59292   -4168.8754   -4151.7948     354.6261    10749.384   0.85551923 
    1240    308.33525    -4169.054   -4151.8763    115.98605    10755.533   0.85127344 
    1250    298.58223   -4168.5964   -4151.9621    141.45049    10761.902   0.84686502 
    1260    298.99064   -4168.7047   -4152.0476   -82.260207    10768.409   0.84401901 
    1270    310.00387    -4169.407   -4152.1364   -403.18382    10774.665   0.84351905 
    1280    312.37642   -4169.6416   -4152.2387   -518.98604    10780.102   0.84407276 
    1290    301.07755   -4169.1268   -4152.3535    -316.4264    10784.523   0.84268123 
    1300    296.48858    -4168.987   -4152.4693   -164.11284    10788.269   0.83761201 
    1310    299.49671   -4169.2675   -4152.5822   -203.82422    10791.624   0.83040811 
    1320     299.7689   -4169.3936   -4152.6931   -321.72326    10794.549   0.82455168 
    1330    296.65745   -4169.3295   -4152.8024   -566.63497    10796.796   0.82300873 
    1340    285.19706   -4168.7893   -4152.9007   -442.36474    10798.003   0.82576983 
    1350    279.72501   -4168.5614   -4152.9776   -147.68269    10798.376   0.83000016 
    1360    285.34774   -4168.9317   -4153.0346    43.184339    10798.434     0.832439 
    1370    284.71325   -4168.9368   -4153.0751     164.9168    10798.565   0.83172562 
    1380    282.41561   -4168.8349   -4153.1012     155.1881        10799    0.8279675 
    1390    286.59066   -4169.0798   -4153.1135   -86.981687    10799.697   0.82260096 
    1400    290.26988   -4169.2839   -4153.1127   -486.86219    10800.188   0.81831519 
    1410    288.19673   -4169.1555   -4153.0997   -641.78268    10799.775   0.81784526 
    1420    282.06702   -4168.7844   -4153.0701   -557.94563    10798.174   0.82127682 
    1430    283.26791   -4168.8015   -4153.0203   -532.47057    10795.499   0.82588544 
    1440    290.99538   -4169.1627    -4152.951   -475.58227    10791.823     0.829904 
    1450     293.8162   -4169.2358    -4152.867   -196.72439    10787.312   0.83490604 
    1460    292.62541   -4169.0757   -4152.7732    91.889809    10782.481   0.84156074 
    1470    299.76483   -4169.3714   -4152.6711    70.182002    10777.829   0.84836824 
    1480    305.73317   -4169.5981   -4152.5653   -32.085984    10773.353   0.85498896 
    1490    299.86257   -4169.1693   -4152.4637    28.847675    10768.895   0.86092104 
    1500    296.00847   -4168.8562   -4152.3652   -38.225335    10764.501   0.86509723 
    1510    290.31146   -4168.4366    -4152.263   -158.68887    10760.065   0.86824054 
    1520    293.02426   -4168.4788   -4152.1541   -227.71343    10755.376   0.87210113 
    1530    296.45188   -4168.5523   -4152.0366   -234.20102    10750.299   0.87806433 
    1540    300.47088   -4168.6569   -4151.9173   -195.19655    10744.825   0.88558206 
    1550    301.51856   -4168.5975   -4151.7995   -95.493218    10739.049   0.89252548 
    1560     293.7485    -4168.048   -4151.6829    -5.216825    10733.148   0.89687899 
    1570    298.31003   -4168.1819   -4151.5627   -42.750063    10727.269   0.89863927 
    1580    303.47257    -4168.346   -4151.4392   -97.336195     10721.36    0.9006851 
    1590    306.13601   -4168.3787   -4151.3235   -325.07511    10715.277    0.9043722 
    1600    308.59264   -4168.4116   -4151.2195   -585.46326    10708.617   0.90808929 
    1610    319.88007   -4168.9505   -4151.1296   -756.89826     10700.91   0.91061477 
    1620    330.80932   -4169.4941   -4151.0644   -620.17529    10691.867   0.91347747 
    1630    325.87791   -4169.1888   -4151.0338   -100.48027    10681.785   0.91813244 
    1640     313.1888   -4168.4791    -4151.031      481.945    10671.609   0.92354214 
    1650     312.3106   -4168.4444   -4151.0453    837.35758    10662.384   0.92795571 
    1660    307.02278   -4168.1759   -4151.0713    1071.1858    10654.791   0.93222882 
    1670    307.80926   -4168.2552   -4151.1068     1125.725    10649.242   0.93670279 
    1680    315.84582   -4168.7515   -4151.1554    1064.3493    10645.836   0.94004742 
    1690    317.86663   -4168.9333   -4151.2246     1126.502    10644.495   0.94120135 
    1700    315.36204   -4168.8878   -4151.3186    1167.5682    10645.286   0.94055768 
    1710    312.97082   -4168.8711   -4151.4352    1185.6978     10648.28   0.93855551 
    1720    305.54024    -4168.591    -4151.569    1105.1235     10653.49   0.93580528 
    1730    290.97239   -4167.9139   -4151.7035    929.76726    10660.768   0.93370128 
    1740    292.48304   -4168.1239   -4151.8293    520.87373    10669.741   0.93178544 
    1750    297.96614   -4168.5495   -4151.9494    72.609794    10679.663   0.92824669 
    1760    295.20631   -4168.5112   -4152.0649   -192.56256    10689.734   0.92133208 
    1770    298.63905   -4168.8163   -4152.1788   -628.52835    10699.378   0.91120999 
    1780     300.8248   -4169.0544   -4152.2951    -1129.152    10707.793    0.9011116 
    1790    291.76402   -4168.6663   -4152.4118   -1349.4514    10714.085   0.89428407 
    1800    283.02371   -4168.2864   -4152.5188   -1543.2333    10717.769   0.89119178 
    1810     282.3975   -4168.3386   -4152.6059   -1577.0187    10718.516   0.89007016 
    1820     296.1261   -4169.1711   -4152.6736   -1569.5337    10716.242   0.88859801 
    1830    306.54706   -4169.8119   -4152.7338    -1379.863    10710.994   0.88693702 
    1840    299.85565   -4169.4978   -4152.7925   -1035.7877     10703.15   0.88689892 
    1850    292.94854   -4169.1658   -4152.8453   -677.95304    10693.383    0.8890555 
    1860    289.92448   -4169.0404   -4152.8884    -424.2308    10682.372    0.8933869 
    1870    293.45179   -4169.2728   -4152.9243   -332.86226    10670.596   0.89940978 
    1880    301.12871   -4169.7337   -4152.9575   -95.358883    10658.299   0.90599271 
    1890    308.50737   -4170.1811   -4152.9938    259.30805    10645.931   0.91208173 
    1900    309.55446   -4170.2831   -4153.0375    586.19645    10634.139   0.91735214 
    1910    307.35626   -4170.2116   -4153.0884    774.30677    10623.518   0.92103754 
    1920    298.26923   -4169.7611   -4153.1442    1006.5499    10614.452    0.9239689 
    1930    291.38787   -4169.4317   -4153.1981    1311.2491    10607.369    0.9277289 
    1940    292.26818   -4169.5352   -4153.2526    1406.2789    10602.765   0.93254435 
    1950    287.65884    -4169.335   -4153.3092     1562.914    10600.856   0.93755529 
    1960    285.97121   -4169.2968    -4153.365    1547.6874    10601.858   0.94077527 
    1970    298.18131   -4170.0366   -4153.4246    1279.7579    10605.712   0.94113713 
    1980    301.41102   -4170.2928   -4153.5008    1277.1521    10611.989   0.93999318 
    1990    289.58965    -4169.734   -4153.6006    1499.5944    10620.668   0.93745013 
    2000    286.73499   -4169.6971   -4153.7227    1334.1198    10632.047   0.93204228 
    2010    288.19166   -4169.9215    -4153.866    982.73735    10645.855   0.92489918 
    2020    288.79817   -4170.1204   -4154.0311    473.49932    10661.415   0.91823306 
    2030    283.18968   -4169.9839   -4154.2071   -140.69143    10677.767   0.91328553 
    2040    283.03771   -4170.1497   -4154.3813   -831.23015    10693.745   0.91003654 
    2050    286.94758   -4170.5345   -4154.5483   -1545.5542    10708.037   0.90886482 
    2060    283.44131   -4170.4969   -4154.7061    -1828.589    10719.364    0.9097744 
    2070    270.41862   -4169.9095   -4154.8442   -1572.0888    10727.213   0.91139339 
    2080    268.61756   -4169.9182   -4154.9532   -1331.4422    10731.988   0.91202841 
    2090     275.8803   -4170.4037   -4155.0341   -1221.3655     10734.15   0.91233246 
    2100    280.51535   -4170.7185   -4155.0906   -1056.9717    10733.969    0.9136076 
    2110    284.65924    -4170.985   -4155.1263   -978.93763    10731.753   0.91570583 
    2120    285.99358   -4171.0787   -4155.1457    -1037.002    10727.653   0.91835073 
    2130    284.08047   -4170.9769   -4155.1505   -1051.8502    10721.612   0.92135937 
    2140    285.20088   -4171.0305   -4155.1417    -1057.948    10713.593   0.92409073 
    2150    281.19584   -4170.7839   -4155.1182   -987.68137    10703.616   0.92715416 
    2160      271.302   -4170.1888   -4155.0742   -689.96985     10691.86   0.93252968 
    2170    270.73281   -4170.0832   -4155.0004   -438.68194    10678.852   0.94015111 
    2180    281.84658   -4170.5943   -4154.8923   -113.72371    10665.124   0.94938103 
    2190    280.43926   -4170.3764   -4154.7528    607.38045    10651.363   0.96025427 
    2200    276.65293   -4170.0035   -4154.5909    1221.9292    10638.822   0.97070983 
    2210    279.95893   -4170.0064   -4154.4096    1471.0637    10628.611   0.97874548 
    2220    289.01728   -4170.3181   -4154.2166    1399.8663    10621.185   0.98281101 
    2230    299.34546   -4170.7004   -4154.0235    1168.0314    10616.423    0.9826415 
    2240     304.9619   -4170.8343   -4153.8446    977.72448    10613.902   0.98006704 
    2250    302.11346   -4170.5216   -4153.6905    955.07398     10613.27   0.97612319 
    2260    292.81709   -4169.8742   -4153.5611    1097.9251    10614.475   0.97076819 
    2270    294.57658   -4169.8594   -4153.4482     1117.004    10617.724   0.96481251 
    2280    305.63739    -4170.374   -4153.3466    871.00391     10623.01   0.96093435 
    2290    298.62922   -4169.8979   -4153.2609    957.87127     10629.99   0.96008829 
    2300    288.89669   -4169.2836   -4153.1888    902.04315    10638.723   0.95849198 
    2310    294.90806   -4169.5459   -4153.1163    384.51348    10649.049   0.95340198 
    2320    297.39075   -4169.6063   -4153.0383   -151.86418    10660.076   0.94551686 
    2330    297.25762   -4169.5199   -4152.9593     -608.667    10670.793    0.9356254 
    2340    297.54653   -4169.4586   -4152.8819    -942.2321    10680.338   0.92567176 
    2350    296.99951   -4169.3544   -4152.8083   -1145.8914    10688.072   0.91875251 
    2360    295.28531   -4169.1893   -4152.7386   -1066.8121    10693.645   0.91597089 
    2370    289.46754   -4168.7968   -4152.6703   -812.85289    10697.178   0.91601551 
    2380    287.28942   -4168.6009   -4152.5957   -423.80069    10699.178   0.91595069 
    2390    297.22667   -4169.0702   -4152.5113   -131.15833    10700.349   0.91335048 
    2400    309.80247   -4169.6833   -4152.4239    25.212426     10701.25   0.90886768 
    2410    311.63186   -4169.7077   -4152.3463    269.27769    10702.225   0.90504811 
    2420    304.75608   -4169.2622   -4152.2839    472.66303    10703.714   0.90287416 
    2430    303.36606    -4169.132   -4152.2311    544.04047    10706.094   0.90133008 
    2440    309.44792   -4169.4238   -4152.1841    471.34357    10709.494   0.89964751 
    2450    316.66093   -4169.7888   -4152.1472     202.3686    10713.761   0.89771491 
    2460    317.50687   -4169.8157    -4152.127    53.420764    10718.437   0.89528281 
    2470    313.00758   -4169.5628   -4152.1248    24.157094    10723.232   0.89144968 
    2480    312.86274   -4169.5677   -4152.1378   -132.88255     10728.05   0.88549015 
    2490    315.81347   -4169.7618   -4152.1675   -372.86759    10732.603   0.87859554 
    2500    308.89033   -4169.4243   -4152.2157    -572.5358     10736.45    0.8724576 
    2510    297.45993   -4168.8469    -4152.275   -795.88198      10739.2   0.86773026 
    2520    295.32154   -4168.7912   -4152.3385   -1094.1541    10740.403   0.86484045 
    2530    290.24378   -4168.5737   -4152.4039   -1124.3414    10739.556   0.86438068 
    2540     284.8369    -4168.337   -4152.4684   -925.57854    10736.585   0.86595749 
    2550    283.89909   -4168.3414   -4152.5251   -740.60116    10731.836    0.8692563 
    2560    289.92932   -4168.7243    -4152.572   -724.72874    10725.647   0.87418851 
    2570    291.62954   -4168.8534   -4152.6064   -674.90351    10718.075   0.88060709 
    2580    299.34542   -4169.3068     -4152.63   -723.65287    10709.183    0.8874048 
    2590    310.89471   -4169.9758   -4152.6555   -719.10941    10698.929   0.89403283 
    2600    309.98404   -4169.9639   -4152.6943   -391.35326    10687.383    0.9006842 
    2610    311.93555   -4170.1248   -4152.7465   -40.768808    10675.115   0.90655155 
    2620    321.73192   -4170.7439   -4152.8198    119.77229    10662.774    0.9121398 
    2630    322.62802   -4170.9069   -4152.9329    243.92675    10650.694   0.91927764 
    2640    308.76576   -4170.2914   -4153.0898       583.79    10639.155   0.92783526 
    2650    293.45649   -4169.6239   -4153.2751     921.3007     10628.75   0.93678167 
    2660     285.0758   -4169.3531   -4153.4712    1177.7278    10620.106   0.94577196 
    2670    283.16142   -4169.4401   -4153.6649    1339.7111    10613.689   0.95358538 
    2680    274.75694   -4169.1469   -4153.8399    1491.6371    10609.805   0.95841529 
    2690    271.94877   -4169.1342   -4153.9836     1461.515    10608.707   0.95877608 
    2700    279.76978   -4169.6859   -4154.0997    1222.0992    10610.321   0.95428829 
    2710    283.41211    -4169.982   -4154.1928    1066.3055    10614.253   0.94600458 
    2720    284.29282   -4170.1035   -4154.2653    863.49796    10620.195   0.93522128 
    2730    287.32609   -4170.3233    -4154.316    575.06277    10627.756   0.92369517 
    2740    288.01811   -4170.3918    -4154.346    348.43492    10636.417   0.91404494 
    2750    288.20619   -4170.4147   -4154.3584    207.40155    10645.755    0.9074046 
    2760    289.09255   -4170.4631   -4154.3575    168.67619    10655.502   0.90257215 
    2770    280.82523   -4169.9906   -4154.3455    311.23038    10665.605   0.89780275 
    2780    276.88465   -4169.7458   -4154.3202     361.7343    10676.287   0.89192531 
    2790    282.33327   -4170.0026   -4154.2735    165.17022    10687.631   0.88587244 
    2800    293.98802   -4170.5819   -4154.2035   -191.42026     10699.27   0.88056947 
    2810    300.06199   -4170.8331   -4154.1163   -511.01938    10710.565   0.87619065 
    2820    301.13049   -4170.7981   -4154.0218   -812.96367    10720.889   0.87280258 
    2830    298.95756   -4170.5782    -4153.923    -992.8367    10729.681   0.87026941 
    2840    293.60126   -4170.1785   -4153.8217   -972.77144    10736.593   0.86824409 
    2850    286.94863   -4169.7004   -4153.7142   -755.49296    10741.668   0.86636674 
    2860    285.11171   -4169.4771   -4153.5932   -592.61691    10745.275   0.86380463 
    2870    286.62429   -4169.4218   -4153.4536   -389.99131     10747.76   0.86058642 
    2880    289.01339   -4169.3973   -4153.2961    -238.6571    10749.488   0.85767038 
    2890    294.30294     -4169.52   -4153.1241   -156.83453    10750.753   0.85608491 
    2900    303.08302   -4169.8302   -4152.9452   -219.89854    10751.701    0.8564215 
    2910    312.20629   -4170.1683   -4152.7749   -357.90402    10752.218   0.85829023 
    2920    314.03011   -4170.1246   -4152.6296   -266.00613    10752.097   0.86095483 
    2930    310.30714   -4169.8043   -4152.5167   -191.59798    10751.449   0.86366083 
    2940    308.41197   -4169.6146   -4152.4327   -136.66002    10750.436   0.86554374 
    2950    305.66033   -4169.3996   -4152.3709   -202.14285    10749.135    0.8660717 
    2960    312.17315   -4169.7199   -4152.3284   -301.96127    10747.442   0.86585307 
    2970    318.42565   -4170.0465   -4152.3066   -390.59009     10745.17   0.86671001 
    2980     316.3288   -4169.9314   -4152.3083   -527.01715    10742.133   0.86948236 
    2990    303.80319   -4169.2489   -4152.3237   -569.07102    10738.109   0.87355601 
    3000     294.5013   -4168.7428   -4152.3358   -610.91292    10733.003   0.87789535 
    3010    300.74512   -4169.0951   -4152.3403   -818.02382    10726.694   0.88308286 
    3020    310.55491   -4169.6466   -4152.3452   -1057.9461    10718.805   0.89114098 
    3030    306.54668   -4169.4379   -4152.3599   -1113.6539    10708.904   0.90156912 
    3040     300.0441   -4169.0993   -4152.3835   -1027.0046    10696.871   0.91110429 
    3050    299.03839   -4169.0707   -4152.4109    -897.0046    10682.865   0.91814449 
    3060    295.60559   -4168.9061   -4152.4376   -589.41443    10667.155   0.92320509 
    3070    288.13462   -4168.5064   -4152.4541   -108.87809    10650.341   0.92695232 
    3080    287.00079    -4168.443   -4152.4539    41.423274    10633.247   0.93004201 
    3090    300.89717   -4169.2082   -4152.4449    -158.8336    10616.158    0.9340696 
    3100      299.936   -4169.1438    -4152.434   -6.9555671    10598.831   0.94070196 
    3110    298.42957   -4169.0459   -4152.4201    383.69233    10581.515   0.94844325 
    3120    310.69876   -4169.7101   -4152.4007    754.53514    10564.915   0.95570575 
    3130    320.58644   -4170.2471   -4152.3869    1148.1024    10549.732   0.96330885 
    3140    323.62351    -4170.422   -4152.3926    1533.5551    10536.685   0.97184321 
    3150    324.50699   -4170.5043   -4152.4256    1895.7896    10526.485   0.98026034 
    3160    327.23615   -4170.7232   -4152.4926    2227.0237      10519.8   0.98672204 
    3170    320.62148   -4170.4593   -4152.5971    2527.1955    10517.235   0.99026685 
    3180     304.9829   -4169.7185   -4152.7276    2799.7664    10519.349   0.98965696 
    3190    309.26676   -4170.1051   -4152.8755    2587.8818    10526.569   0.98379573 
    3200    317.76943   -4170.7489   -4153.0456    2098.0798    10538.574   0.97539891 
    3210    309.70498   -4170.4892   -4153.2351    1665.8304    10554.545   0.96801552 
    3220    294.99815   -4169.8562   -4153.4215    1153.9979    10573.679   0.96201917 
    3230    294.33107   -4169.9824   -4153.5849    392.71706    10595.005   0.95635338 
    3240    297.82029   -4170.3132   -4153.7213   -287.50168    10617.151   0.95053047 
    3250    288.59692   -4169.9055   -4153.8275   -543.53911    10638.893   0.94362367 
    3260    279.03543   -4169.4434    -4153.898   -776.63586    10659.653   0.93489696 
    3270    280.02083   -4169.5315   -4153.9312   -1237.9313    10678.925   0.92528691 
    3280    288.12632   -4169.9837   -4153.9319   -1872.8479    10695.819   0.91683676 
    3290    301.15575   -4170.6937   -4153.9159   -2564.9303    10709.107   0.91143282 
    3300    307.89676   -4171.0573   -4153.9041   -2882.7956     10717.53    0.9103569 
    3310    302.16249   -4170.7409   -4153.9071   -2586.2858    10720.514   0.91291947 
    3320    300.01699   -4170.6343     -4153.92   -2113.2935    10718.548   0.91656227 
    3330    295.39705   -4170.3924   -4153.9355   -1520.8936    10712.556   0.92029029 
    3340    283.38336   -4169.7314   -4153.9438   -736.86231    10703.704   0.92429358 
    3350    280.78911   -4169.5774   -4153.9343   -66.109123    10693.453   0.92847661 
    3360    291.45132   -4170.1421    -4153.905    268.05352    10683.061   0.93333682 
    3370    303.83245   -4170.7946   -4153.8678    420.37774    10673.193   0.93971808 
    3380    303.68699   -4170.7534   -4153.8346    641.67507    10664.168   0.94812463 
    3390    302.46405   -4170.6606     -4153.81    838.58752    10656.379   0.95863596 
    3400     295.3188   -4170.2407   -4153.7882    1078.8118    10650.219   0.97113721 
    3410    288.46915   -4169.8308   -4153.7599    1109.6482    10646.085   0.98345734 
    3420    294.97141   -4170.1547   -4153.7215     742.3919    10643.998   0.99328538 
    3430    302.20061   -4170.5135   -4153.6775    312.72136    10643.314    1.0007429 
    3440    305.30401   -4170.6477   -4153.6389    62.124401    10643.264    1.0067602 
    3450    313.67871   -4171.0904    -4153.615   -197.14128    10643.338    1.0104446 
    3460    325.69375   -4171.7631   -4153.6183   -436.87562    10643.042    1.0117811 
    3470    313.91324   -4171.1398   -4153.6513   -148.38922    10642.029    1.0124435 
    3480    298.84606   -4170.3475   -4153.6985    227.11469    10640.755    1.0116452 
    3490    296.56438   -4170.2642   -4153.7423    429.38058    10639.893    1.0092796 
    3500    297.96834   -4170.3757   -4153.7756    760.51233    10639.871    1.0081118 
    3510    302.55495   -4170.6542   -4153.7985    1208.8101    10641.318    1.0110612 
    3520    311.94185   -4171.2001   -4153.8215    1414.1683    10645.017    1.0177894 
    3530    316.07603   -4171.4674   -4153.8584    1513.4777    10651.392    1.0257163 
    3540    310.13038   -4171.1939   -4153.9162    1476.7689    10660.615    1.0322901 
    3550    300.72945   -4170.7485   -4153.9945    1164.0769    10672.605    1.0353311 
    3560    288.99495   -4170.1826   -4154.0824    576.29297    10686.774    1.0341297 
    3570    284.77632   -4170.0332   -4154.1679    28.808569    10702.066    1.0293927 
    3580    287.70611   -4170.2772   -4154.2488   -446.71275    10717.422    1.0234179 
    3590    288.99127   -4170.4249   -4154.3249   -832.90806    10731.945    1.0189887 
    3600    290.65126   -4170.5846   -4154.3921   -1246.0006    10744.858    1.0171581 
    3610    287.45477   -4170.4603   -4154.4459   -1362.0429     10755.41    1.0165056 
    3620    283.63792   -4170.2907   -4154.4889   -1251.9625    10763.366    1.0145854 
    3630    290.18383   -4170.6974   -4154.5309   -1237.6158    10768.873    1.0112621 
    3640     290.8018   -4170.7815   -4154.5806   -1075.9548    10771.999    1.0087926 
    3650    280.43972   -4170.2561   -4154.6325   -825.42911    10773.052    1.0085722 
    3660    279.16285   -4170.2264    -4154.674   -832.71819    10772.455    1.0107789 
    3670     284.7945   -4170.5655   -4154.6992   -863.32374    10770.249    1.0152928 
    3680    288.14138   -4170.7652   -4154.7125   -633.59398    10766.428    1.0208093 
    3690       293.93   -4171.0942   -4154.7191    -260.0993    10761.424    1.0250121 
    3700     301.0571    -4171.497   -4154.7248    100.66937    10755.933    1.0279722 
    3710    300.38874   -4171.4697   -4154.7347    437.12215    10750.653    1.0321019 
    3720    298.66138   -4171.3881   -4154.7493    594.56541    10746.208    1.0385193 
    3730     298.0717   -4171.3735   -4154.7676    815.13554    10742.948     1.046419 
    3740    289.92013   -4170.9374   -4154.7856     1225.685    10741.305    1.0533464 
    3750    282.60614   -4170.5419   -4154.7976    1656.1045    10742.028    1.0566169 
    3760    281.32904   -4170.4676   -4154.7945    1863.5397    10745.917    1.0553643 
    3770    294.48602   -4171.1799   -4154.7738    1542.1997    10753.319    1.0505745 
    3780    302.77705   -4171.6059   -4154.7379    937.60878     10763.66    1.0452973 
    3790    305.57253   -4171.7185   -4154.6948    260.60046    10775.805    1.0423238 
    3800    307.24592   -4171.7685   -4154.6515   -305.22203    10788.464    1.0430232 
    3810    292.72821   -4170.9194   -4154.6112   -357.01478    10800.643    1.0460773 
    3820    294.43929   -4170.9707   -4154.5671   -606.39767    10812.088    1.0462172 
    3830    296.88301   -4171.0504   -4154.5107   -835.54108    10822.357    1.0424459 
    3840    288.37315   -4170.5114   -4154.4458   -891.47187    10831.045    1.0376117 
    3850    295.99635   -4170.8598   -4154.3695   -1247.9683    10837.937    1.0333753 
    3860    304.38808   -4171.2428    -4154.285   -1506.8701    10842.396    1.0327068 
    3870    305.05676   -4171.1996   -4154.2045   -1456.1801    10843.934    1.0378228 
    3880    295.69582   -4170.6016   -4154.1281   -1170.8578    10842.649     1.047213 
    3890     288.2154   -4170.1031   -4154.0463   -774.45197    10839.101    1.0569303 
    3900    290.51703   -4170.1351   -4153.9501   -649.52652    10833.988    1.0644101 
    3910    296.14653   -4170.3369   -4153.8382   -801.37816    10827.561    1.0693612 
    3920    303.18102   -4170.6099   -4153.7193   -1134.1493    10819.526    1.0730526 
    3930    304.35674   -4170.5596   -4153.6035   -1058.4312    10809.361    1.0773175 
    3940    302.67138   -4170.3557   -4153.4936   -624.90063    10797.194    1.0827336 
    3950    301.79288   -4170.1985   -4153.3853   -124.42053     10783.82    1.0877018 
    3960    310.88119   -4170.5972   -4153.2777    289.32397    10770.205    1.0897814 
    3970    312.25523   -4170.5738   -4153.1777     621.1004    10757.143    1.0900695 
    3980    297.52792   -4169.6642   -4153.0886    917.02101    10745.284    1.0905403 
    3990    301.07072   -4169.7757   -4153.0027    764.96616     10735.12    1.0898048 
    4000    315.90705    -4170.518   -4152.9185    373.10604    10726.393    1.0874301 
    4010    319.82319   -4170.6668    -4152.849    415.46619    10718.465    1.0852748 
    4020    310.60169   -4170.1024   -4152.7984     777.5727    10711.387    1.0838275 
    4030    312.03874   -4170.1461    -4152.762    859.11902    10705.746    1.0832049 
    4040    322.41306   -4170.7035   -4152.7415    720.93128    10701.728    1.0846263 
    4050    327.02437   -4170.9672   -4152.7483    608.79546    10699.095    1.0878717 
    4060    314.91065   -4170.3299   -4152.7859    761.30018     10697.67    1.0907761 
    4070    302.09366   -4169.6712   -4152.8412    939.60034    10697.695    1.0898364 
    4080    300.26965   -4169.6324    -4152.904    1092.5311    10699.533    1.0829829 
    4090    287.52804   -4168.9874   -4152.9689    1179.2783    10703.476    1.0736944 
    4100    283.31099   -4168.8084   -4153.0248    931.36097    10709.654    1.0661046 
    4110    311.21668    -4170.413   -4153.0748    6.7245102    10717.529    1.0606366 
    4120    321.08603   -4171.0282   -4153.1401   -705.20313    10725.494    1.0574512 
    4130    305.26724   -4170.2428    -4153.236   -818.85778    10732.239    1.0544083 
    4140    301.29836   -4170.1416   -4153.3559   -801.72513    10737.453    1.0487829 
    4150    303.08541   -4170.3854   -4153.5001   -708.87661    10741.153    1.0422706 
    4160    293.74628   -4170.0284   -4153.6635    -413.4867    10743.541    1.0380262 
    4170    288.74558   -4169.9187   -4153.8324    -381.9648    10745.099    1.0360143 
    4180     296.4645    -4170.521   -4154.0046   -726.17001    10745.868    1.0349044 
    4190    301.67799   -4170.9943   -4154.1875   -965.71309     10745.25    1.0349741 
    4200    300.76329   -4171.1331   -4154.3772    -978.6605    10742.797    1.0356276 
    4210    308.26807   -4171.7487   -4154.5747   -894.81973    10738.458     1.035537 
    4220    308.07391   -4171.9418   -4154.7787   -458.94742    10732.443    1.0355971 
    4230    302.49684   -4171.8244   -4154.9719    169.19864    10725.564    1.0365443 
    4240    296.94823   -4171.6863   -4155.1429    700.70338    10718.977    1.0382763 
    4250    289.83546   -4171.4326   -4155.2856    1011.1714    10713.695    1.0400886 
    4260    289.96144    -4171.552    -4155.398    977.67662    10710.302    1.0410581 
    4270    297.98543   -4172.0864   -4155.4853    708.86394    10708.741    1.0412671 
    4280    306.72609   -4172.6485   -4155.5604    511.04244    10708.551    1.0406624 
    4290    303.63812   -4172.5478   -4155.6318    523.80016    10709.381    1.0391846 
    4300    292.56647   -4171.9937   -4155.6945    624.12405    10711.235     1.036919 
    4310    286.04336   -4171.6761   -4155.7403    888.09601    10714.347     1.033623 
    4320    287.36337   -4171.7772   -4155.7679    929.96019    10719.153    1.0296324 
    4330    289.34138   -4171.8985    -4155.779      651.202    10725.732    1.0268163 
    4340    296.87593   -4172.3187   -4155.7794    45.843142    10733.557    1.0271836 
    4350    291.38286   -4172.0055   -4155.7722   -406.41971     10741.55    1.0307855 
    4360    276.12369   -4171.1376   -4155.7545   -562.27672    10748.853    1.0355156 
    4370    275.97395   -4171.0908    -4155.716   -788.82376    10755.096    1.0392659 
    4380    286.77217   -4171.6312   -4155.6548    -1213.079    10759.811    1.0413492 
    4390    288.46737   -4171.6527   -4155.5818   -1453.9474    10762.242     1.041979 
    4400     284.8688    -4171.376   -4155.5057   -1474.1435    10761.908    1.0410955 
    4410    289.58086    -4171.557   -4155.4241   -1507.9965    10758.704     1.039177 
    4420    297.30527    -4171.899   -4155.3358   -1536.4646    10752.559    1.0382824 
    4430    303.07399   -4172.1303   -4155.2457   -1498.8737    10743.423    1.0403065 
    4440    302.16406   -4171.9912   -4155.1573   -1399.6119    10731.363    1.0454735 
    4450    307.45055   -4172.2046   -4155.0762   -1298.4567    10716.554    1.0530971 
    4460    308.24303   -4172.1763   -4155.0037   -1029.6224    10699.227    1.0633724 
    4470    310.47908   -4172.2377   -4154.9406      -667.58    10679.871    1.0747228 
    4480    305.18819   -4171.8837   -4154.8813    67.349308    10659.251    1.0853479 
    4490    304.38956   -4171.7797   -4154.8218    849.40313    10638.716    1.0940857 
    4500    307.09689   -4171.8704   -4154.7617    1506.4415     10619.73     1.101402 
    4510    304.51466   -4171.6715   -4154.7066    2136.9095    10603.552    1.1089612 
    4520    304.76732    -4171.641   -4154.6621    2682.2411    10591.356    1.1163451 
    4530    299.76924   -4171.3311   -4154.6306    3049.2611    10584.144    1.1215179 
    4540    307.07646   -4171.7222   -4154.6147    3012.3633    10582.564    1.1228044 
    4550    313.93617   -4172.1058   -4154.6161    2741.3159     10586.61    1.1225061 
    4560    311.19775   -4171.9752    -4154.638    2295.2846    10595.808    1.1233157 
    4570     307.3649   -4171.7942   -4154.6705    1640.3955     10609.35    1.1251273 
    4580    314.08365    -4172.204    -4154.706    895.54082    10626.056    1.1271793 
    4590    319.33361   -4172.5426   -4154.7521    194.57523    10644.571    1.1292521 
    4600    309.65117   -4172.0689   -4154.8179    -77.13672    10663.658    1.1308126 
    4610    303.54789   -4171.8156   -4154.9046   -249.82136    10682.721    1.1306352 
    4620    303.27338    -4171.903   -4155.0073   -576.64735    10701.383    1.1286803 
    4630    304.81051     -4172.11   -4155.1286   -976.27033    10719.015    1.1254948 
    4640    301.17358   -4172.0538   -4155.2751   -1255.4463    10734.879    1.1223277 
    4650    297.43484   -4172.0174    -4155.447   -1621.7433    10748.369    1.1213491 
    4660    291.17954   -4171.8603   -4155.6384   -1912.5949    10758.802    1.1238227 
    4670    287.12778   -4171.8354   -4155.8392   -2134.2355    10765.584    1.1293522 
    4680    291.49313   -4172.2838   -4156.0444   -2292.9919    10768.263    1.1375898 
    4690    301.22652   -4173.0379   -4156.2563   -2414.2341    10766.512    1.1484697 
    4700    299.95631   -4173.1816   -4156.4707    -2265.401    10760.139    1.1613998 
    4710     291.1167   -4172.8916   -4156.6732   -1879.0625    10749.413    1.1756182 
    4720    282.13022   -4172.5681   -4156.8503   -1346.9863    10735.067    1.1919884 
    4730    275.25502   -4172.3257    -4156.991   -649.40706    10718.152    1.2113555 
    4740    276.06581   -4172.4717   -4157.0917   -138.27804     10699.95    1.2320437 
    4750    278.72574   -4172.6842   -4157.1561    205.55885    10681.473    1.2514988 
    4760    281.97798   -4172.8957   -4157.1864    526.96684     10663.43    1.2680238 
    4770    294.84218   -4173.6147   -4157.1887    654.60847    10646.393    1.2808093 
    4780    296.65194   -4173.6965   -4157.1696    926.25095    10630.673    1.2911984 
    4790    289.99765   -4173.2907   -4157.1346     1359.474    10616.796    1.3007861 
    4800    291.69867   -4173.3364   -4157.0855    1571.5628      10605.5    1.3088965 
    4810    294.79406   -4173.4509   -4157.0276    1594.1871    10597.173    1.3135878 
    4820    295.71162   -4173.4465    -4156.972    1570.1696    10591.879    1.3137342 
    4830    296.35165   -4173.4378   -4156.9278     1356.449    10589.522    1.3101068 
    4840    297.64049   -4173.4765   -4156.8946    988.34243    10589.693    1.3038849 
    4850    293.41985   -4173.2152   -4156.8684    858.75274    10591.771      1.29564 
    4860    288.58073   -4172.9229   -4156.8457    787.84755    10595.454    1.2857905 
    4870    290.13915   -4172.9866   -4156.8226    694.21846    10600.604    1.2756302 
    4880    292.86174   -4173.1117   -4156.7961    589.25127    10607.048    1.2666132 
    4890    291.39627   -4172.9949   -4156.7609    466.14977    10614.567    1.2597672 
    4900    298.81307   -4173.3605   -4156.7133    309.67201    10622.923    1.2545431 
    4910    311.39623   -4174.0031   -4156.6549    209.45363    10631.825    1.2499119 
    4920     314.5462   -4174.1222   -4156.5985    299.86314    10641.078    1.2463577 
    4930    306.67827   -4173.6399   -4156.5545    508.86674    10650.861    1.2445289 
    4940    301.91471   -4173.3387   -4156.5187     410.6645    10661.486    1.2429611 
    4950    305.21031    -4173.486   -4156.4824    42.305347    10672.763     1.240008 
    4960    303.36406   -4173.3479   -4156.4471   -147.91288    10684.055    1.2352138 
    4970    301.12065   -4173.1945   -4156.4187   -99.116888    10695.013    1.2289023 
    4980    301.13484   -4173.1736    -4156.397   -203.83943     10705.66    1.2234615 
    4990    294.94157   -4172.8091   -4156.3776   -367.45311    10715.813    1.2207509 
    5000    288.94399   -4172.4518   -4156.3544   -512.36848    10725.174    1.2196732 
Loop time of 3283.56 on 8 procs for 5000 steps with 432 atoms

Performance: 0.132 ns/day, 182.420 hours/ns, 1.523 timesteps/s
95.2% CPU use with 8 MPI tasks x 1 OpenMP threads

MPI task timing breakdown:
Section |  min time  |  avg time  |  max time  |%varavg| %total
---------------------------------------------------------------
Pair    | 2394.7     | 2906.3     | 3270.5     | 452.0 | 88.51
Bond    | 0.00038218 | 0.0010384  | 0.0023978  |   1.9 |  0.00
Neigh   | 0.061841   | 0.074291   | 0.099998   |   4.2 |  0.00
Comm    | 11.569     | 321.64     | 669.47     |1022.1 |  9.80
Output  | 0.28273    | 0.29711    | 0.39724    |   6.9 |  0.01
Modify  | 0.28865    | 55.252     | 219.04     |1272.2 |  1.68
Other   |            | 0.02536    |            |       |  0.00

Nlocal:        54.0000 ave          78 max          43 min
Histogram: 1 3 1 1 1 0 0 0 0 1
Nghost:        530.625 ave         598 max         454 min
Histogram: 2 0 0 0 1 1 1 2 0 1
Neighs:         0.00000 ave           0 max           0 min
Histogram: 8 0 0 0 0 0 0 0 0 0
FullNghs:      2080.50 ave        3384 max        1530 min
Histogram: 2 2 2 0 1 0 0 0 0 1

Total # of neighbors = 16644
Ave neighs/atom = 38.527778
Ave special neighs/atom = 0.0000000
Neighbor list builds = 500
Dangerous builds = 500
System init for write_data ...
Total wall time: 0:54:48
