LAMMPS (29 Sep 2021 - Update 3)
OMP_NUM_THREADS environment is not set. Defaulting to 1 thread. (src/comm.cpp:98)
  using 1 OpenMP thread(s) per MPI task
Reading data file ...
  orthogonal box = (0.0000000 0.0000000 0.0000000) to (19.147970 18.143486 83.460053)
  2 by 1 by 8 MPI processor grid
  reading atoms ...
  864 atoms
Finding 1-2 1-3 1-4 neighbors ...
  special bond factors lj:    0        0        0       
  special bond factors coul:  0        0        0       
     0 = max # of 1-2 neighbors
     0 = max # of 1-3 neighbors
     0 = max # of 1-4 neighbors
     1 = max # of special neighbors
  special bonds CPU = 0.001 seconds
  read_data CPU = 0.029 seconds
Neighbor list info ...
  update every 1 steps, delay 10 steps, check yes
  max neighbors/atom: 2000, page size: 100000
  master list distance cutoff = 6.22
  ghost atom cutoff = 6.22
  binsize = 3.11, bins = 7 6 27
  1 neighbor lists, perpetual/occasional/extra = 1 0 0
  (1) pair quip, perpetual
      attributes: full, newton on
      pair build: full/bin
      stencil: full/bin/3d
      bin: standard
Setting up Verlet run ...
  Unit style    : metal
  Current step  : 0
  Time step     : 0.001
Per MPI rank memory allocation (min/avg/max) = 8.888 | 8.895 | 8.900 Mbytes
Step Temp PotEng TotEng Press Volume c_msd[4] 
       0            0   -7700.8381   -7700.8381    -4537.927    28994.935            0 
      10    45.183944    -7705.883   -7700.8427   -4512.0438    28994.935 0.00030079645 
      20    126.64468   -7714.9757   -7700.8483   -4255.0047    28994.935 0.0038182906 
      30    177.09989   -7720.6021   -7700.8463   -3781.1412    28994.935  0.013459324 
      40    209.87694   -7724.2579   -7700.8458    -3431.074    28994.935  0.027221013 
      50    241.22837   -7727.7551   -7700.8457   -3411.1653    28994.935  0.041726522 
      60    268.67173    -7730.818   -7700.8473   -3593.0662    28994.935  0.056043827 
      70     275.0391   -7731.5278   -7700.8468   -3607.6817    28994.935  0.071357203 
      80    265.25817   -7730.4352   -7700.8452   -3405.9066    28994.935  0.088279141 
      90    259.20615   -7729.7596   -7700.8448   -3201.4486    28994.935   0.10567802 
     100    263.43248   -7730.2328   -7700.8465   -3100.4009    28994.935    0.1224315 
     110    261.11727   -7729.9736   -7700.8456   -3033.5725    28994.935   0.13961289 
     120    259.78415   -7729.8251   -7700.8458   -3194.7166    28994.935   0.15773106 
     130    260.98349   -7729.9594   -7700.8463   -3347.3712    28994.935   0.17623602 
     140     255.9553   -7729.3982    -7700.846   -3347.8197    28994.935    0.1944487 
     150    249.49756   -7728.6766   -7700.8447   -3322.3017    28994.935   0.21137034 
     160     254.2947   -7729.2133   -7700.8464   -3341.2107    28994.935   0.22648355 
     170    255.39364   -7729.3354   -7700.8459   -3341.1695    28994.935   0.24056013 
     180    255.33687   -7729.3285   -7700.8453   -3331.4823    28994.935   0.25386781 
     190    260.76117   -7729.9344   -7700.8461   -3386.2272    28994.935   0.26621627 
     200    264.43741   -7730.3443   -7700.8459   -3501.0887    28994.935    0.2779645 
     210    266.13355   -7730.5336    -7700.846   -3595.0956    28994.935   0.28977516 
     220     266.1185   -7730.5314   -7700.8455   -3526.2817    28994.935   0.30213735 
     230    270.18321   -7730.9847   -7700.8454   -3347.9295    28994.935   0.31516558 
     240    278.15139   -7731.8749   -7700.8467   -3118.2308    28994.935   0.32946162 
     250    277.04449   -7731.7511   -7700.8464   -2922.7818    28994.935   0.34515362 
     260    270.54869   -7731.0256   -7700.8455   -2860.0876    28994.935   0.36076902 
     270    270.26056   -7730.9936   -7700.8456   -2886.6638    28994.935    0.3744656 
     280    273.36059   -7731.3402   -7700.8465   -2958.6022    28994.935   0.38584739 
     290    272.08277    -7731.197   -7700.8457   -3010.2651    28994.935   0.39576783 
     300    272.47723   -7731.2413   -7700.8461   -3100.0508    28994.935    0.4054068 
     310    271.93405   -7731.1808   -7700.8461   -3197.7717    28994.935   0.41587444 
     320     269.8009   -7730.9425   -7700.8458   -3135.1867    28994.935   0.42741727 
     330    269.08948   -7730.8635   -7700.8462   -2993.1826    28994.935   0.43980783 
     340    268.16652   -7730.7603   -7700.8459   -2893.4834    28994.935   0.45291747 
     350    270.00833   -7730.9658   -7700.8459    -2886.157    28994.935   0.46637788 
     360    272.40416   -7731.2339   -7700.8468   -2898.1671    28994.935   0.47993924 
     370    268.70619   -7730.8204   -7700.8458   -2820.4785    28994.935   0.49341184 
     380    268.96819   -7730.8497   -7700.8459   -2726.7365    28994.935    0.5062241 
     390    274.33864   -7731.4496   -7700.8467   -2645.6399    28994.935   0.51814514 
     400    276.36872   -7731.6757   -7700.8464   -2560.3847    28994.935   0.52930511 
     410    276.65126   -7731.7069    -7700.846   -2480.5382    28994.935   0.53982283 
     420    279.28097   -7732.0012   -7700.8469   -2431.2553    28994.935   0.55016179 
     430    276.82132   -7731.7259   -7700.8461    -2350.253    28994.935    0.5605612 
     440    277.03673   -7731.7497   -7700.8458   -2209.9282    28994.935   0.57093397 
     450    283.29469   -7732.4489    -7700.847   -2142.7855    28994.935   0.58158636 
     460    283.18302   -7732.4358   -7700.8463   -2100.6621    28994.935   0.59293578 
     470    283.23944   -7732.4417   -7700.8459   -2099.1213    28994.935   0.60470775 
     480    287.80996   -7732.9521   -7700.8464   -2253.1287    28994.935    0.6158485 
     490    288.81392   -7733.0639   -7700.8462   -2363.7422    28994.935   0.62479236 
     500    286.12762   -7732.7647   -7700.8468   -2407.5126    28994.935   0.63109946 
     510    276.45664   -7731.6849   -7700.8457   -2333.6198    28994.935   0.63597531 
     520    272.85667   -7731.2829   -7700.8454   -2206.2639    28994.935   0.64031219 
     530    279.50156   -7732.0253   -7700.8465   -2083.3564    28994.935   0.64463616 
     540    284.37697   -7732.5687    -7700.846   -1943.8509    28994.935   0.65001402 
     550    291.30626   -7733.3418   -7700.8462   -1829.3471    28994.935   0.65693039 
     560    297.78102   -7734.0651   -7700.8471   -1833.9621    28994.935   0.66549221 
     570    293.16658   -7733.5496   -7700.8465   -1837.0313    28994.935    0.6760564 
     580    285.58978   -7732.7039   -7700.8459   -1826.5131    28994.935   0.68850487 
     590    282.56573   -7732.3668   -7700.8462   -1911.9655    28994.935    0.7021441 
     600     283.4768   -7732.4683   -7700.8461   -2073.7839    28994.935    0.7157642 
     610    287.24651   -7732.8898    -7700.847   -2293.6112    28994.935   0.72816073 
     620    284.76091   -7732.6116   -7700.8461   -2326.3579    28994.935   0.73882186 
     630    285.14211   -7732.6539   -7700.8459   -2334.4346    28994.935   0.74737438 
     640    290.36779   -7733.2378   -7700.8468   -2353.3887    28994.935    0.7538232 
     650    290.71623   -7733.2766   -7700.8467   -2278.0119    28994.935   0.75912133 
     660    288.33491   -7733.0103   -7700.8461   -2194.3759    28994.935   0.76456941 
     670    289.38519   -7733.1286   -7700.8472   -2280.7715    28994.935   0.77063577 
     680    284.08824   -7732.5372   -7700.8467   -2463.5275    28994.935   0.77689412 
     690    275.77756   -7731.6093   -7700.8459   -2595.8822    28994.935   0.78265361 
     700    273.49144   -7731.3545   -7700.8461   -2613.0856    28994.935   0.78795972 
     710       273.31   -7731.3347   -7700.8466   -2521.5258    28994.935   0.79394117 
     720    269.49383   -7730.9092   -7700.8467    -2471.479    28994.935   0.80161731 
     730    262.18364   -7730.0925   -7700.8455   -2432.3962    28994.935   0.81035929 
     740    268.03582   -7730.7459   -7700.8461   -2455.7574    28994.935   0.81713067 
     750      280.622   -7732.1512   -7700.8473   -2533.4825    28994.935   0.82146207 
     760    283.23536   -7732.4419   -7700.8466   -2512.7271    28994.935   0.82470762 
     770    282.03319   -7732.3076   -7700.8464   -2550.3227    28994.935   0.82669995 
     780    279.77355   -7732.0557   -7700.8465   -2597.5325    28994.935   0.82699219 
     790    278.93712    -7731.962   -7700.8461   -2631.8344    28994.935   0.82552909 
     800    281.08894   -7732.2026   -7700.8467   -2684.1916    28994.935   0.82315699 
     810    280.13687   -7732.0959   -7700.8463   -2681.9226    28994.935   0.82177255 
     820     281.3104   -7732.2267   -7700.8461   -2639.4626    28994.935   0.82239938 
     830    285.21728   -7732.6634    -7700.847   -2628.9625    28994.935   0.82520652 
     840    283.73704   -7732.4982   -7700.8469   -2551.7329    28994.935   0.82976691 
     850    277.96973   -7731.8542   -7700.8462   -2441.8061    28994.935   0.83512428 
     860    278.46628   -7731.9092   -7700.8458    -2451.403    28994.935   0.84001546 
     870     286.3188   -7732.7868   -7700.8475   -2562.6227    28994.935   0.84379749 
     880    284.94265   -7732.6322   -7700.8465   -2543.1687    28994.935   0.84689222 
     890    282.26548   -7732.3331    -7700.846   -2457.3709    28994.935   0.84934875 
     900    285.50422   -7732.6948   -7700.8464   -2420.2274    28994.935   0.85157652 
     910    289.66708   -7733.1596   -7700.8468   -2414.4195    28994.935   0.85497176 
     920    289.15743   -7733.1025   -7700.8466   -2444.5638    28994.935   0.85995223 
     930    286.27915    -7732.781   -7700.8462   -2572.7025    28994.935   0.86509978 
     940    285.95089   -7732.7444   -7700.8462   -2776.6718    28994.935   0.86904324 
     950    288.49376   -7733.0284   -7700.8465   -2889.1908    28994.935   0.87143422 
     960    289.92569   -7733.1882   -7700.8466   -2832.2639    28994.935   0.87230061 
     970     289.5038   -7733.1411   -7700.8465   -2634.1457    28994.935   0.87176043 
     980    287.47267   -7732.9147   -7700.8467   -2412.0947    28994.935   0.87065618 
     990    285.00128   -7732.6385   -7700.8462   -2204.4549    28994.935   0.87041092 
    1000     286.6964   -7732.8282   -7700.8468   -2219.8679    28994.935   0.87192888 
    1010    285.76351   -7732.7245   -7700.8471   -2431.4357    28994.935   0.87520227 
    1020    279.23305   -7731.9951   -7700.8462   -2663.3857    28994.935   0.87962384 
    1030    276.12451   -7731.6483   -7700.8462   -2859.1863    28994.935   0.88430034 
    1040    278.85999   -7731.9537   -7700.8465    -2881.783    28994.935   0.88821373 
    1050    283.63264   -7732.4862   -7700.8465   -2806.0208    28994.935   0.89127233 
    1060    287.45819   -7732.9134    -7700.847   -2784.5081    28994.935   0.89438156 
    1070    287.50721   -7732.9183   -7700.8464    -2666.725    28994.935   0.89833559 
    1080     288.3388   -7733.0115   -7700.8468   -2554.5321    28994.935   0.90295372 
    1090    287.72687   -7732.9434   -7700.8471    -2449.256    28994.935   0.90791379 
    1100    282.26879   -7732.3342   -7700.8467   -2349.9216    28994.935   0.91319332 
    1110    278.17476   -7731.8766   -7700.8457   -2362.6978    28994.935   0.91830915 
    1120    285.00574   -7732.6397   -7700.8469   -2476.5807    28994.935   0.92287415 
    1130    291.73084   -7733.3901   -7700.8471   -2509.8798    28994.935   0.92706174 
    1140    292.56331   -7733.4827   -7700.8468   -2461.8775    28994.935   0.93059884 
    1150    291.16272   -7733.3259   -7700.8462   -2379.8012    28994.935   0.93290929 
    1160    294.20611   -7733.6658   -7700.8466   -2430.1845    28994.935   0.93429138 
    1170    296.65171   -7733.9391   -7700.8472     -2519.69    28994.935   0.93626719 
    1180    293.48989   -7733.5857   -7700.8465   -2544.9247    28994.935     0.939758 
    1190    292.32791   -7733.4561   -7700.8465   -2544.6809    28994.935   0.94403649 
    1200    292.54359   -7733.4805   -7700.8469    -2530.558    28994.935   0.94834108 
    1210    290.86487   -7733.2928   -7700.8464   -2465.9334    28994.935   0.95245077 
    1220    291.85186   -7733.4031   -7700.8466   -2358.3836    28994.935   0.95556404 
    1230    293.44413    -7733.581   -7700.8469   -2284.1551    28994.935    0.9573295 
    1240    292.76049   -7733.5044   -7700.8465   -2170.6219    28994.935   0.95845355 
    1250    293.13798   -7733.5467   -7700.8467   -2103.9544    28994.935   0.95986863 
    1260    292.96803    -7733.528    -7700.847   -2167.4504    28994.935   0.96196013 
    1270    289.24985   -7733.1127   -7700.8464   -2276.5202    28994.935   0.96415629 
    1280    285.75102   -7732.7224   -7700.8464   -2286.5297    28994.935   0.96566897 
    1290      284.651   -7732.5992    -7700.846   -2272.9878    28994.935   0.96658717 
    1300    288.60829   -7733.0414   -7700.8467   -2265.8955    28994.935   0.96788144 
    1310    290.24478    -7733.224   -7700.8467   -2190.3822    28994.935    0.9706072 
    1320    288.58259   -7733.0384   -7700.8466   -2131.8835    28994.935   0.97434843 
    1330    285.79594   -7732.7273   -7700.8463   -2097.4449    28994.935   0.97833796 
    1340    284.94721   -7732.6325   -7700.8462   -2025.5076    28994.935   0.98199327 
    1350    288.56733   -7733.0366   -7700.8465   -1879.3769    28994.935    0.9842258 
    1360    294.42631   -7733.6904   -7700.8467   -1741.8221    28994.935   0.98424419 
    1370    297.49937   -7734.0339   -7700.8474   -1667.3381    28994.935   0.98285555 
    1380    292.74623   -7733.5025   -7700.8462   -1608.0865    28994.935   0.98190459 
    1390    292.14101   -7733.4347   -7700.8459   -1576.6018    28994.935   0.98232817 
    1400    301.24748   -7734.4513   -7700.8467   -1571.9358    28994.935   0.98457679 
    1410    308.74525   -7735.2887   -7700.8477   -1627.6249    28994.935   0.98929211 
    1420    303.47704   -7734.6996   -7700.8463   -1559.3261    28994.935   0.99584973 
    1430    299.27771   -7734.2314   -7700.8465   -1560.2881    28994.935    1.0022596 
    1440    296.07219   -7733.8739   -7700.8466   -1645.0073    28994.935    1.0075133 
    1450    291.73802   -7733.3904   -7700.8466   -1761.2712    28994.935    1.0117171 
    1460    287.07709   -7732.8704   -7700.8466   -1858.1077    28994.935    1.0153184 
    1470    283.25203   -7732.4433   -7700.8461   -1859.1758    28994.935    1.0193785 
    1480    285.43138   -7732.6869   -7700.8466   -1822.6605    28994.935     1.024986 
    1490    289.90651   -7733.1866   -7700.8471   -1845.5531    28994.935    1.0319924 
    1500    290.00682   -7733.1976   -7700.8469   -1829.6868    28994.935    1.0392423 
    1510    288.95403   -7733.0793    -7700.846    -1792.572    28994.935    1.0455821 
    1520    295.71659   -7733.8347    -7700.847   -1855.4847    28994.935    1.0502501 
    1530    300.00567   -7734.3136   -7700.8475   -1884.0491    28994.935    1.0536411 
    1540    296.05902   -7733.8724   -7700.8466    -1822.818    28994.935    1.0568576 
    1550    294.34188   -7733.6807   -7700.8464   -1777.7282    28994.935    1.0604411 
    1560    298.19535   -7734.1112    -7700.847   -1665.6338    28994.935    1.0645653 
    1570    299.64452   -7734.2738    -7700.848   -1440.2495    28994.935    1.0694105 
    1580    292.64469   -7733.4917   -7700.8467   -1277.6152    28994.935     1.074918 
    1590    291.80684   -7733.3982   -7700.8467   -1332.1552    28994.935    1.0805049 
    1600    295.06101   -7733.7628   -7700.8483   -1440.1438    28994.935    1.0859126 
    1610    287.09163   -7732.8718   -7700.8463   -1485.4826    28994.935     1.091018 
    1620    286.48969   -7732.8047   -7700.8463   -1689.2872    28994.935    1.0951954 
    1630    293.71975   -7733.6125   -7700.8476   -1988.5087    28994.935    1.0988049 
    1640    292.89599   -7733.5202   -7700.8473   -2234.1959    28994.935    1.1028795 
    1650    285.80089    -7732.728   -7700.8465   -2370.0192    28994.935     1.107297 
    1660    283.13292   -7732.4301   -7700.8462   -2397.8467    28994.935    1.1109226 
    1670    289.15974   -7733.1032    -7700.847   -2351.0065    28994.935    1.1128534 
    1680    293.97663   -7733.6412   -7700.8477   -2320.8136    28994.935    1.1135229 
    1690    290.81385   -7733.2871   -7700.8464    -2229.079    28994.935    1.1138195 
    1700    291.76806    -7733.394   -7700.8469     -2159.57    28994.935    1.1136614 
    1710    294.02161   -7733.6456   -7700.8471   -2087.1354    28994.935    1.1134744 
    1720    294.14467   -7733.6593    -7700.847   -2007.8553    28994.935    1.1142792 
    1730    292.64536   -7733.4921   -7700.8471   -1906.6844    28994.935    1.1170331 
    1740    289.08712   -7733.0952   -7700.8471   -1708.4731    28994.935    1.1223514 
    1750    285.80556   -7732.7285   -7700.8464   -1570.4904    28994.935    1.1294849 
    1760     287.9638   -7732.9699   -7700.8471   -1527.7152    28994.935    1.1368575 
    1770    288.43964   -7733.0232   -7700.8473   -1474.3978    28994.935    1.1431943 
    1780    286.35452   -7732.7895   -7700.8462   -1374.2159    28994.935     1.147556 
    1790    290.77345   -7733.2831   -7700.8469   -1389.1814    28994.935    1.1497522 
    1800    296.05814   -7733.8725   -7700.8468   -1449.0765    28994.935    1.1507558 
    1810     301.3688   -7734.4651   -7700.8469   -1533.3472    28994.935    1.1516988 
    1820    304.48648   -7734.8131   -7700.8472   -1596.5101    28994.935    1.1539225 
    1830    302.85742    -7734.631   -7700.8468   -1598.9173    28994.935    1.1587776 
    1840    300.11343   -7734.3251    -7700.847   -1609.6044    28994.935    1.1667637 
    1850    297.67909   -7734.0531   -7700.8466   -1550.7625    28994.935    1.1770761 
    1860    299.64542    -7734.273   -7700.8471   -1446.6551    28994.935     1.187862 
    1870     300.4479   -7734.3628   -7700.8474   -1280.9239    28994.935    1.1969883 
    1880    297.75438   -7734.0614   -7700.8465   -1097.3535    28994.935    1.2026277 
    1890    300.44075   -7734.3616   -7700.8469   -1049.3061    28994.935    1.2042642 
    1900    303.94471   -7734.7532   -7700.8477   -1145.0928    28994.935    1.2033292 
    1910    299.67427   -7734.2762   -7700.8471   -1345.6827    28994.935    1.2022867 
    1920    294.22814   -7733.6682   -7700.8466   -1538.3262    28994.935    1.2030558 
    1930    294.31479   -7733.6782   -7700.8469   -1657.6619    28994.935    1.2063703 
    1940    296.08002   -7733.8751   -7700.8469   -1611.8933    28994.935    1.2121107 
    1950    298.47477   -7734.1425   -7700.8472   -1385.7061    28994.935    1.2194675 
    1960    298.47034   -7734.1418    -7700.847   -1084.0269    28994.935    1.2273777 
    1970    298.87552   -7734.1869   -7700.8469   -898.13371    28994.935    1.2348923 
    1980    299.98792   -7734.3117   -7700.8476   -807.05202    28994.935     1.241364 
    1990    297.18456   -7733.9979   -7700.8465   -843.22149    28994.935     1.246939 
    2000    299.90649   -7734.3021   -7700.8471   -1051.7337    28994.935    1.2522542 
Loop time of 1543.46 on 16 procs for 2000 steps with 864 atoms

Performance: 0.112 ns/day, 214.370 hours/ns, 1.296 timesteps/s
97.4% CPU use with 16 MPI tasks x 1 OpenMP threads

MPI task timing breakdown:
Section |  min time  |  avg time  |  max time  |%varavg| %total
---------------------------------------------------------------
Pair    | 1119.9     | 1350.7     | 1512.2     | 290.7 | 87.51
Bond    | 0.00014424 | 0.00069143 | 0.0019193  |   0.0 |  0.00
Neigh   | 0.018359   | 0.023148   | 0.027312   |   1.5 |  0.00
Comm    | 24.325     | 178.92     | 418.13     | 791.2 | 11.59
Output  | 2.324      | 7.9443     | 15.306     | 197.0 |  0.51
Modify  | 0.0098488  | 0.011999   | 0.015173   |   1.3 |  0.00
Other   |            | 5.914      |            |       |  0.38

Nlocal:        54.0000 ave          63 max          44 min
Histogram: 2 0 2 1 2 3 2 1 0 3
Nghost:        408.438 ave         459 max         374 min
Histogram: 2 2 1 1 5 3 0 0 1 1
Neighs:         0.00000 ave           0 max           0 min
Histogram: 16 0 0 0 0 0 0 0 0 0
FullNghs:      1578.38 ave        2029 max        1152 min
Histogram: 2 1 2 1 2 3 2 0 1 2

Total # of neighbors = 25254
Ave neighs/atom = 29.229167
Ave special neighs/atom = 0.0000000
Neighbor list builds = 199
Dangerous builds = 198
Setting up Verlet run ...
  Unit style    : metal
  Current step  : 2000
  Time step     : 0.001
Per MPI rank memory allocation (min/avg/max) = 8.892 | 8.897 | 8.900 Mbytes
Step Temp PotEng TotEng Press Volume c_msd[4] 
    2000        712.5   -7734.3021   -7654.8216    643.75451    28994.935    1.2522542 
    2010    657.31754   -7728.1288   -7654.8041    936.46778    28996.006    1.2631424 
    2020     578.1861   -7719.1811   -7654.6836    1078.7215    28999.809    1.2779777 
    2030    536.86162   -7714.2401   -7654.3524    984.85458    29006.768    1.2896493 
    2040    514.60272   -7711.1572   -7653.7524    775.69455    29016.645    1.2980384 
    2050    498.99403   -7708.5714   -7652.9078     456.6863    29028.824    1.3066548 
    2060    497.92343   -7707.4803   -7651.9362    17.168938    29042.359    1.3178407 
    2070    503.63775   -7707.1689   -7650.9874   -372.82811    29055.998    1.3323741 
    2080    498.90413   -7705.7912   -7650.1377   -571.14749     29068.61    1.3497125 
    2090    504.59456   -7705.6183     -7649.33   -583.42701     29079.61    1.3680751 
    2100    514.47885    -7705.866   -7648.4751    -519.6409    29088.926    1.3865301 
    2110    519.19808   -7705.4565   -7647.5392   -420.31556    29096.733      1.40436 
    2120    528.46039   -7705.4714   -7646.5209   -463.72974     29103.27    1.4197955 
    2130    539.07466   -7705.5656    -7645.431   -596.30478    29108.431     1.432152 
    2140    540.83873   -7704.6329   -7644.3015   -643.64423    29111.867    1.4423085 
    2150    540.90945   -7703.4975   -7643.1582    -658.6838    29113.406    1.4505204 
    2160    550.38601   -7703.3899   -7641.9935   -641.58372    29112.991    1.4570313 
    2170    557.26607   -7702.9691   -7640.8053   -575.62641    29110.663    1.4629739 
    2180    557.73993   -7701.8257   -7639.6089   -448.74286    29106.615    1.4695192 
    2190     562.2946   -7701.1264   -7638.4016    -385.1429    29101.199    1.4778358 
    2200    573.60775   -7701.1601   -7637.1733   -507.62321    29094.574    1.4893525 
    2210    570.54142   -7699.5811   -7635.9364   -667.36748    29086.405     1.504094 
    2220     566.5855   -7697.9128   -7634.7093   -808.70627    29076.214    1.5197467 
    2230    573.64369   -7697.4603   -7633.4695       -787.3    29063.618    1.5346226 
    2240    586.39994   -7697.6176   -7632.2038   -722.39933    29048.653    1.5489859 
    2250     605.4044   -7698.4536   -7630.9198   -910.27137    29031.404    1.5628822 
    2260    606.18074   -7697.2624    -7629.642   -890.91112    29011.437     1.575595 
    2270    611.21141   -7696.5672   -7628.3857   -628.46476    28988.802    1.5862155 
    2280    622.23814   -7696.5317   -7627.1201   -448.32505    28964.193    1.5966092 
    2290    618.73739   -7694.8851    -7625.864   -422.65746    28938.123    1.6090297 
    2300    611.34844    -7692.829   -7624.6322   -462.24942    28910.699    1.6232108 
    2310    618.23685   -7692.3605   -7623.3952    -525.8492    28881.804    1.6375045 
    2320     618.2214   -7691.1073   -7622.1438   -430.31533    28851.313     1.651768 
    2330    617.79478   -7689.8028   -7620.8869   -175.31548    28819.517    1.6663237 
    2340    630.05566   -7689.8973   -7619.6136    84.256584    28787.127    1.6811582 
    2350    648.44432   -7690.6583   -7618.3233    317.36378    28754.901    1.6963401 
    2360    660.11079   -7690.6804   -7617.0441    504.33362     28723.52    1.7119691 
    2370    666.84393    -7690.186   -7615.7985    756.60489    28693.587    1.7269706 
    2380    680.08697   -7690.4459   -7614.5811    989.00649    28665.798    1.7399368 
    2390    687.89076   -7690.1323    -7613.397    1329.4621     28640.86     1.750718 
    2400    696.25125    -7689.926   -7612.2581    1627.4277    28619.711    1.7622081 
    2410    699.64901     -7689.22   -7611.1731    1648.1076    28603.151    1.7780976 
    2420     687.4742   -7686.8372   -7610.1484    1737.1505     28591.34      1.79752 
    2430    680.80263   -7685.1098   -7609.1652    1936.9513    28584.547    1.8160807 
    2440    694.44533   -7685.6564     -7608.19    1873.5143     28583.26    1.8310289 
    2450    712.52138    -7686.709   -7607.2262     1656.032    28587.355    1.8428993 
    2460    716.83033   -7686.2712   -7606.3077    1400.9467    28596.244    1.8532647 
    2470    715.81181   -7685.3003   -7605.4504    1201.0197    28609.263     1.864044 
    2480    713.98935   -7684.2897   -7604.6431    902.03243    28625.785    1.8786734 
    2490     714.8711   -7683.6162   -7603.8712      715.877    28645.039    1.8981612 
    2500    720.39197   -7683.4916   -7603.1308    614.30524    28666.475    1.9205546 
    2510    719.99226   -7682.7431   -7602.4269    649.00021    28689.859    1.9438543 
    2520    719.49389    -7682.023   -7601.7624     522.1247    28715.207    1.9656064 
    2530    724.59117   -7681.9603   -7601.1311    559.10366    28742.252    1.9838978 
    2540    726.20976   -7681.5492   -7600.5394     829.5524    28771.108    1.9995333 
    2550    719.64711   -7680.2734   -7599.9956    1022.9532    28802.511    2.0147122 
    2560    721.01075   -7679.9186   -7599.4888    795.74927    28836.924    2.0308679 
    2570    715.61969   -7678.8315    -7599.003    583.89633    28873.841    2.0496458 
    2580    722.31691   -7679.1122   -7598.5366    347.38291    28912.599    2.0715831 
    2590    726.08917   -7679.0808   -7598.0845     326.9992    28952.571    2.0955375 
    2600    722.73239   -7678.2856   -7597.6637    433.79147    28993.648    2.1200837 
    2610     720.7087   -7677.6673   -7597.2711    388.70492    29036.032    2.1449243 
    2620    726.88139    -7677.987   -7596.9023    366.73733    29079.648    2.1699272 
    2630    730.48534   -7678.0456   -7596.5589    111.59817    29124.302    2.1952105 
    2640    720.34934   -7676.5941    -7596.238   -347.27927    29169.232    2.2209605 
    2650    716.43767   -7675.8428   -7595.9231   -902.26495    29213.033    2.2462495 
    2660    723.11776   -7676.2692   -7595.6043   -1202.9734    29254.098    2.2701976 
    2670    739.61877   -7677.8136    -7595.308   -1337.7999    29291.478    2.2933512 
    2680    732.68643   -7676.7958   -7595.0635   -1310.5043    29324.737    2.3183589 
    2690    727.76454   -7676.0606   -7594.8773   -1409.4444    29353.867    2.3440177 
    2700    729.21131   -7676.0746     -7594.73   -1735.2419     29378.54    2.3689365 
    2710     719.6348   -7674.8942   -7594.6179   -1813.2879    29397.906    2.3932622 
    2720    703.95542    -7673.055   -7594.5277   -1759.1963    29411.694     2.415936 
    2730    687.50151   -7671.1171   -7594.4253   -1795.3087    29420.029    2.4347332 
    2740     683.0047   -7670.4696   -7594.2794   -1818.6987    29422.872    2.4476567 
    2750    695.24336    -7671.638   -7594.0825   -1838.4293    29420.161    2.4553972 
    2760    710.19461   -7673.0726   -7593.8493   -1629.6485    29411.952    2.4603687 
    2770    724.54824   -7674.4309   -7593.6065   -1328.9833     29398.88     2.464354 
    2780    731.18213   -7674.9462   -7593.3817   -1036.3703     29381.86    2.4693999 
    2790    730.66301   -7674.7015    -7593.195   -705.54687    29361.841     2.476335 
    2800    727.91267   -7674.2469   -7593.0471   -502.44612    29339.794    2.4843498 
    2810    727.86179   -7674.1272   -7592.9331   -486.24386    29316.323    2.4910001 
    2820    734.47529   -7674.7902   -7592.8584   -434.09959    29291.557    2.4942948 
    2830    729.58944   -7674.2132   -7592.8264   -278.55858    29265.685    2.4964484 
    2840    727.06617    -7673.939   -7592.8337   -111.19854    29239.145     2.499588 
    2850    729.56073    -7674.256   -7592.8724    62.498636     29212.45    2.5045444 
    2860    727.06162   -7674.0508    -7592.946    326.01955    29186.167    2.5118708 
    2870    718.78958   -7673.2273   -7593.0453    626.06308     29161.06    2.5203535 
    2880    712.04228   -7672.5844   -7593.1551    830.12208        29138    2.5273882 
    2890    716.29053   -7673.1723    -7593.269    548.92088    29117.461    2.5308886 
    2900    730.80358   -7674.9268   -7593.4046   0.59708123    29098.644    2.5311976 
    2910    733.31582   -7675.3922   -7593.5897   -284.11847     29080.03    2.5304298 
    2920    715.99458   -7673.6849   -7593.8146   -294.98641    29060.785    2.5306423 
    2930    707.46309   -7672.9706    -7594.052   -247.29763    29040.802    2.5318754 
    2940    703.41543    -7672.745   -7594.2779    80.357842    29020.312    2.5332924 
    2950    702.48797   -7672.8457   -7594.4821    179.28151    29000.141    2.5337557 
    2960    714.09605   -7674.3301   -7594.6716   -47.285488    28980.566    2.5332162 
    2970    727.71481   -7676.0534   -7594.8757   -191.15666    28960.997    2.5313435 
    2980    728.28818   -7676.3586    -7595.117    83.514116    28941.123    2.5272431 
    2990    718.68835   -7675.5606   -7595.3899    419.69189    28921.639    2.5226538 
    3000    717.05544   -7675.6674   -7595.6788    590.67763    28903.478    2.5210664 
    3010    722.18647   -7676.5416   -7595.9806    691.95176    28887.181    2.5243976 
    3020     723.1251   -7676.9694   -7596.3037    848.18387    28873.061    2.5324735 
    3030    731.74602   -7678.2865   -7596.6591    893.64935     28861.52    2.5429491 
    3040    739.21044   -7679.5292   -7597.0691    650.76894    28852.603    2.5539372 
    3050    729.03013   -7678.8588   -7597.5344    490.35964    28845.701    2.5635455 
    3060    715.75912   -7677.8655   -7598.0215    320.80502    28840.283     2.569204 
    3070    708.08955   -7677.4916   -7598.5032     194.8395    28835.886    2.5719205 
    3080    694.92627   -7676.4839   -7598.9638    16.359559    28832.097    2.5764185 
    3090    680.26404   -7675.2587   -7599.3743    -204.9246    28828.386    2.5861597 
    3100    678.28159   -7675.3785   -7599.7152   -459.39026    28824.107    2.6023623 
    3110    671.14269   -7674.8422   -7599.9752    -405.2538    28818.628    2.6231141 
    3120    665.27601   -7674.3469   -7600.1343    -122.0131    28812.107     2.643883 
    3130    674.78299   -7675.4589   -7600.1858   -63.598753    28805.268    2.6608752 
    3140     687.4047   -7676.8319   -7600.1509   -127.58318    28798.324     2.672524 
    3150    693.84981     -7677.46     -7600.06   -221.25456    28791.118    2.6802528 
    3160    686.69886   -7676.5278   -7599.9255   -357.89646    28783.366    2.6875324 
    3170    690.67473    -7676.792   -7599.7462   -610.52865    28774.675    2.6952916 
    3180    705.45361   -7678.2115   -7599.5171   -840.65706    28764.383    2.7031908 
    3190    712.88492     -7678.79   -7599.2666   -925.04777    28751.876    2.7135451 
    3200    699.65097   -7677.0525   -7599.0054   -800.81088    28736.978     2.727989 
    3210    701.55949   -7676.9859   -7598.7259   -599.67393    28720.036      2.74508 
    3220    708.83411   -7677.4901   -7598.4186    -265.0945    28701.719    2.7626584 
    3230    711.14908   -7677.4288   -7598.0991    149.47956     28683.02    2.7780738 
    3240    711.67153   -7677.1628   -7597.7748    541.48301    28665.116    2.7905699 
    3250    712.22724   -7676.8932   -7597.4432    673.02766    28649.063    2.8020122 
    3260    712.75074   -7676.6167   -7597.1083    562.27294    28635.213    2.8145998 
    3270    716.92604   -7676.7474   -7596.7732    360.91352    28623.245    2.8282244 
    3280    726.50916   -7677.4964   -7596.4532    226.79456     28612.58    2.8413326 
    3290    717.70613   -7676.2183   -7596.1571    481.00759    28602.895    2.8533386 
    3300    716.32774   -7675.7873   -7595.8799    821.22219    28594.806    2.8624143 
    3310    727.14197   -7676.7249   -7595.6112    995.96768    28589.194     2.868915 
    3320    740.12531   -7677.9339   -7595.3718    982.05699    28586.496    2.8757621 
    3330    727.55951   -7676.3418   -7595.1814    1075.8565     28586.69    2.8841311 
    3340    716.48984   -7674.9516   -7595.0261     1249.395    28589.973    2.8922526 
    3350    730.48033   -7676.3774   -7594.8913    1310.2944    28596.738    2.8990262 
    3360    734.66718   -7676.7472    -7594.794    1294.5748    28607.077    2.9052967 
    3370      724.118   -7675.5244    -7594.748    1366.1136    28620.939    2.9113415 
    3380    725.81314   -7675.7043   -7594.7387    1081.1046    28638.335    2.9163031 
    3390    733.21304   -7676.5494   -7594.7583    573.26071    28658.415    2.9215355 
    3400    728.30884   -7676.0645   -7594.8206    275.24469     28679.79    2.9309562 
    3410    714.64112   -7674.6321   -7594.9128    225.10833    28701.573    2.9452002 
    3420    712.49422   -7674.4984   -7595.0186    287.03888    28723.575    2.9622302 
    3430    711.90377   -7674.5395   -7595.1256    304.53006    28745.966    2.9791583 
    3440    711.17377   -7674.5634   -7595.2309    227.08134    28768.771    2.9921941 
    3450    721.29739   -7675.8034   -7595.3416    21.181006     28791.74    2.9989768 
    3460    713.40411   -7675.0447   -7595.4634   -98.844645    28814.332    3.0012652 
    3470    696.57321   -7673.2877    -7595.584   -80.388245    28836.218     3.003189 
    3480    693.75775   -7673.0673   -7595.6776   -162.91383      28857.4     3.008575 
    3490     688.7388   -7672.5553   -7595.7255   -115.19704     28877.74    3.0189357 
    3500    705.96745    -7674.484   -7595.7322   -139.46987    28897.331    3.0327642 
    3510    736.01898   -7677.8323   -7595.7283   -353.37519    28916.076    3.0491889 
    3520    736.21727   -7677.8943   -7595.7681   -432.09122    28933.459    3.0678723 
    3530    711.48246   -7675.2213   -7595.8543   -275.56777    28949.301    3.0850999 
    3540     700.4603   -7674.0834    -7595.946    -206.9605    28963.998    3.0957832 
    3550    698.76309   -7673.9642   -7596.0161   -174.34177    28977.821    3.0995284 
    3560    698.64325   -7673.9898   -7596.0551   -203.75207    28990.854    3.0969175 
    3570    709.76217   -7675.2489   -7596.0739   -390.55555    29002.983    3.0901025 
    3580    701.20652   -7674.2939   -7596.0733    -198.5404    29013.858    3.0844842 
    3590    707.79241   -7675.0174   -7596.0621   -65.484908     29023.91     3.083089 
    3600    707.95971   -7675.0113   -7596.0374    25.560149    29033.571    3.0869352 
    3610    701.30501   -7674.2295   -7595.9978     69.13304    29043.112    3.0931061 
    3620    710.52649   -7675.1941   -7595.9338   -51.682916    29052.638    3.0982877 
    3630    723.31936   -7676.5471   -7595.8597   -187.50417    29061.833      3.10202 
    3640    720.25682   -7676.1452   -7595.7994   -159.49854    29070.348     3.103836 
    3650    720.03508   -7676.0766   -7595.7556   -136.65621    29078.238    3.1036673 
    3660    743.66622   -7678.6946   -7595.7375   -395.80554    29085.505    3.1023102 
    3670    757.48154   -7680.2803   -7595.7821   -439.16957    29091.541    3.1039973 
    3680    749.44667   -7679.5289    -7595.927   -131.57542    29096.286    3.1132289 
    3690     740.9463   -7678.8252   -7596.1715   -185.58965    29100.444    3.1299953 
    3700    725.12267   -7677.3707   -7596.4822   -363.85952    29103.962    3.1476791 
    3710    715.60596   -7676.6564   -7596.8295   -521.30363    29106.349    3.1617044 
    3720    706.71335   -7676.0236   -7597.1887    -738.6194    29107.132     3.174681 
    3730    686.40114   -7674.0956   -7597.5265   -848.37096    29105.749       3.1898 
    3740    681.68387   -7673.8548    -7597.812   -874.96724    29101.899    3.2084085 
    3750    689.01085   -7674.9006   -7598.0404   -958.64117      29095.5    3.2312219 
    3760    680.52012   -7674.1286   -7598.2156   -846.27077    29086.434    3.2574235 
    3770    665.77252   -7672.5897   -7598.3217   -579.28032    29075.042    3.2855681 
    3780    666.77783   -7672.7151    -7598.335   -335.71671    29062.123    3.3135019 
    3790    677.80041   -7673.8623   -7598.2527   -333.10465    29048.351    3.3373622 
    3800    684.87692   -7674.4861    -7598.087   -277.30362    29033.814    3.3543787 
    3810    687.94336   -7674.5915   -7597.8504    53.795607    29018.754     3.364233 
    3820    680.63055   -7673.4695   -7597.5442    377.81858    29004.076    3.3677636 
    3830    679.04589   -7672.9101   -7597.1615     468.7377     28990.66    3.3666169 
    3840    694.56408   -7674.1802   -7596.7006    365.04189    28978.761    3.3649187 
    3850    711.50218   -7675.5552   -7596.1861    345.11161    28968.121    3.3678258 
    3860    719.08623   -7675.8774   -7595.6623    385.56575    28958.667    3.3781559 
    3870    724.57532   -7675.9927   -7595.1652    346.29302    28950.459    3.3947066 
    3880    725.53064   -7675.6439   -7594.7099    389.19377    28943.416    3.4132327 
    3890    733.45969   -7676.1234   -7594.3048    290.80163    28937.556    3.4290097 
    3900    745.20049   -7677.0922    -7593.964    252.50633    28932.652    3.4395099 
    3910    747.48739   -7677.0907   -7593.7074    247.19167    28928.564    3.4471423 
    3920    742.09548   -7676.3251   -7593.5432    131.07582    28925.222    3.4572747 
    3930    730.95033   -7674.9914   -7593.4528   -54.371875    28922.288    3.4717784 
    3940    724.52117   -7674.2377   -7593.4163   -213.26359    28919.227    3.4880657 
    3950    706.04013   -7672.1622   -7593.4023   -213.57182    28915.626    3.5033502 
    3960    696.13167   -7671.0332   -7593.3786   -210.64271    28911.438    3.5139498 
    3970    704.83253   -7671.9523   -7593.3272   -254.41698    28906.657    3.5188973 
    3980    707.99183    -7672.228   -7593.2504   -83.198839    28901.254    3.5216984 
    3990    720.76654   -7673.5678   -7593.1652    164.64126     28895.69    3.5254562 
    4000    734.36222   -7675.0127   -7593.0935    234.37595    28890.618    3.5296969 
    4010    739.34674   -7675.5419   -7593.0667    119.01639    28886.229    3.5330651 
    4020    744.31462   -7676.1282   -7593.0988    56.536807     28882.26    3.5355402 
    4030    747.14595   -7676.5499   -7593.2046    66.902715    28878.519    3.5408088 
    4040    745.17816   -7676.5254   -7593.3996     130.7052    28875.028    3.5526856 
    4050     746.5872   -7676.9783   -7593.6954    124.25138    28871.923    3.5685319 
    4060    747.01977   -7677.4391   -7594.1079    108.27288    28869.217    3.5828563 
    4070    733.60264   -7676.4794   -7594.6449    115.20767    28866.864    3.5940966 
    4080    709.04348   -7674.3586   -7595.2638    197.45287    28864.896    3.6013999 
    4090    705.97265   -7674.6721   -7595.9198    300.84987    28863.535    3.6042238 
    4100    705.57217   -7675.2964   -7596.5887    398.82365    28863.067    3.6082017 
    4110    699.89082   -7675.3204   -7597.2465    338.46895    28863.724    3.6188785 
    4120    691.08957   -7674.9444   -7597.8524    11.902401    28865.322    3.6346001 
    4130    678.96051   -7674.1065   -7598.3674   -462.00573    28866.913     3.649731 
    4140    669.68666   -7673.4652   -7598.7607   -787.96827    28867.178    3.6605507 
    4150    672.15816   -7674.0115   -7599.0312   -944.33435    28865.187    3.6680763 
    4160    684.91251   -7675.6004   -7599.1974   -955.82074    28860.484    3.6753389 
    4170    697.73606   -7677.1247   -7599.2912    -822.0406    28853.059    3.6832729 
    4180    701.64348   -7677.6094     -7599.34   -640.05909    28843.304    3.6895912 
    4190    710.72927   -7678.6463   -7599.3633   -549.68014    28831.712    3.6917693 
    4200    725.53394   -7680.3201   -7599.3857   -491.74562    28818.585    3.6897157 
    4210    716.66499   -7679.3742   -7599.4292   -318.13818    28804.163    3.6851166 
    4220    686.38273   -7676.0321   -7599.4651   -10.999827    28788.965    3.6797806 
    4230    678.06517   -7675.0878   -7599.4486    163.44174    28773.776    3.6750463 
    4240    682.61967   -7675.5108   -7599.3635     306.1278     28759.15    3.6734884 
    4250    687.92107   -7675.9651   -7599.2264    398.45054    28745.477    3.6775282 
    4260    693.59728   -7676.4212   -7599.0494    556.67067    28733.053     3.685632 
    4270    711.18052   -7678.1893    -7598.856    588.15997    28722.272     3.692681 
    4280    725.59368   -7679.6178   -7598.6767    552.64784    28713.233    3.6948821 
    4290    729.32947   -7679.8978     -7598.54    532.70731    28705.845    3.6925802 
    4300    728.50588   -7679.7193   -7598.4534    522.12939    28700.048    3.6898585 
    4310    722.41044   -7678.9958   -7598.4099    445.33092    28695.774      3.69232 
    4320    709.76044   -7677.5627   -7598.3878     291.9224    28692.789    3.7030661 
    4330    706.87948   -7677.2198   -7598.3663    54.730156    28690.646    3.7205321 
    4340    706.04785   -7677.0943   -7598.3336   -100.83409    28688.707    3.7398587 
    4350    703.18958   -7676.7318     -7598.29   -130.67329    28686.502    3.7556427 
    4360    694.00375   -7675.6415   -7598.2244    43.261317    28683.974    3.7648906 
    4370    695.28283   -7675.6858   -7598.1259    333.16587     28681.62    3.7665976 
    4380    710.56722   -7677.2659    -7598.001    510.44322    28680.214    3.7606766 
    4390    717.64458   -7677.9279   -7597.8736    553.37676    28680.266    3.7493701 
    4400    713.42438   -7677.3445   -7597.7609    633.27491    28681.928     3.737024 
    4410    715.19786   -7677.4417   -7597.6603    769.50212    28685.449    3.7259795 
    4420    713.49859   -7677.1589   -7597.5671    715.66509    28691.162    3.7179478 
    4430    710.03758   -7676.6876   -7597.4819    710.54273     28698.99    3.7156239 
    4440    706.82492   -7676.2442   -7597.3968    715.88435    28708.896    3.7210342 
    4450    701.40147   -7675.5378   -7597.2954    622.98634    28720.883    3.7322475 
    4460    723.14018   -7677.8521   -7597.1847    157.68936    28734.597    3.7423175 
    4470    723.53385   -7677.7902   -7597.0789   -175.92049    28748.864    3.7482016 
    4480    717.78836   -7677.0672   -7596.9969   -408.70453    28762.666     3.749892 
    4490    721.81009   -7677.4468   -7596.9278   -574.93281     28775.31    3.7487227 
    4500    715.90605   -7676.7358   -7596.8754   -509.54747    28786.372    3.7474224 
    4510    698.72957   -7674.7706   -7596.8262   -321.09987    28796.014    3.7491524 
    4520    705.54605   -7675.4642   -7596.7595   -243.29493    28804.709    3.7551077 
    4530    714.89652   -7676.4185   -7596.6707   -218.38029    28812.716    3.7651569 
    4540    707.16807   -7675.4487    -7596.563   -363.52609    28820.059    3.7766655 
    4550    706.14272   -7675.1871   -7596.4158   -556.84432    28826.355    3.7857077 
    4560    709.03841   -7675.2967   -7596.2024   -746.15186    28831.016    3.7918598 
    4570    716.07825   -7675.7923   -7595.9127   -763.50813    28833.541    3.7970291 
    4580    721.47045   -7676.0172   -7595.5361   -580.76171      28833.9    3.8021529 
    4590    722.89934   -7675.7079   -7595.0674   -415.54055    28832.558    3.8078369 
    4600    722.35081   -7675.0839   -7594.5046   -350.76945    28829.992    3.8133646 
    4610     724.3074   -7674.6471   -7593.8495   -374.15924    28826.394    3.8184626 
    4620    731.74074   -7674.7522   -7593.1254   -333.35868    28821.735    3.8240394 
    4630    727.18258   -7673.4955   -7592.3772   -8.3962473    28816.197    3.8310213 
    4640    721.72469   -7672.1523   -7591.6428    326.15756    28810.654    3.8380078 
    4650    744.42398   -7673.9785   -7590.9368    331.29688        28806    3.8427271 
    4660    761.06549   -7675.2054   -7590.3074    183.90086    28802.294    3.8449074 
    4670    765.23139   -7675.1813   -7589.8186    136.88612    28799.189    3.8458432 
    4680    769.40917   -7675.3157   -7589.4869    1.0946091     28796.46    3.8472709 
    4690    773.94829   -7675.6485   -7589.3134   -0.9984862    28793.782    3.8502099 
    4700    763.23656   -7674.4217   -7589.2815    287.43771    28791.203    3.8540829 
    4710    758.58254   -7673.9867   -7589.3657    473.82505    28789.443    3.8576941 
    4720    758.99931   -7674.2242   -7589.5567    422.34077    28789.013    3.8615476 
    4730    745.32547   -7672.9904   -7589.8482    266.83473    28789.791    3.8673514 
    4740    738.90919   -7672.6395   -7590.2131     47.66763    28791.326    3.8759492 
    4750    746.58189    -7673.923   -7590.6407   -260.66018    28792.965    3.8879059 
    4760    747.24703   -7674.4902   -7591.1337   -439.89464    28793.881    3.9033224 
    4770    736.16448   -7673.8024   -7591.6821   -295.60775    28793.607    3.9205861 
    4780    724.99895   -7673.1134   -7592.2387   -170.26339    28792.454    3.9388709 
    4790    738.35817   -7675.1577   -7592.7928   -215.98417    28790.761    3.9595425 
    4800    748.42818   -7676.8525   -7593.3642   -324.06473    28788.437    3.9851648 
    4810    732.35649   -7675.6372   -7593.9417   -443.94822    28785.167    4.0147057 
    4820     719.8552    -7674.783   -7594.4821   -557.92275    28780.607    4.0409097 
    4830    712.61271   -7674.4504   -7594.9574   -592.96724    28774.455    4.0596824 
    4840    696.84824   -7673.0806   -7595.3462   -482.55794    28766.633    4.0691626 
    4850    689.73201   -7672.5814   -7595.6408   -406.85605    28757.423    4.0694237 
    4860    683.10063   -7672.0449    -7595.844   -397.47957     28747.04     4.065314 
    4870     677.3442   -7671.5218   -7595.9631   -510.19151    28735.481    4.0620027 
    4880    677.42089   -7671.5691   -7596.0018   -496.74718    28722.509     4.062758 
    4890    693.57452   -7673.3423   -7595.9731   -432.28003    28708.119    4.0682298 
    4900    709.39109   -7675.0386    -7595.905    -302.1007    28692.532    4.0763954 
    4910    716.82753   -7675.7928   -7595.8296    -182.1383    28676.084    4.0846785 
    4920    733.38594    -7677.584   -7595.7737    -169.1651    28659.098    4.0921994 
    4930    740.87287   -7678.4088   -7595.7633     -260.742    28641.617    4.1010859 
    4940    734.84166   -7677.7894   -7595.8167   -350.78752    28623.407    4.1140977 
    4950    722.88722   -7676.5581   -7595.9189   -343.49815     28604.23    4.1273577 
    4960    722.26519   -7676.6128    -7596.043   -230.76835    28584.107    4.1341532 
    4970    730.10652   -7677.6383   -7596.1939    116.89977      28563.4    4.1341427 
    4980    719.95909   -7676.6792   -7596.3667    578.02615     28543.08    4.1322335 
    4990    721.83824   -7677.0881    -7596.566     641.0377    28524.313    4.1321145 
    5000     716.4604   -7676.7081   -7596.7858    655.22106    28507.416    4.1348729 
Loop time of 2461.73 on 16 procs for 3000 steps with 864 atoms

Performance: 0.105 ns/day, 227.938 hours/ns, 1.219 timesteps/s
97.6% CPU use with 16 MPI tasks x 1 OpenMP threads

MPI task timing breakdown:
Section |  min time  |  avg time  |  max time  |%varavg| %total
---------------------------------------------------------------
Pair    | 2154.1     | 2281       | 2387.7     | 155.4 | 92.66
Bond    | 0.00025105 | 0.0010161  | 0.0030775  |   2.3 |  0.00
Neigh   | 0.031314   | 0.038188   | 0.084398   |   6.2 |  0.00
Comm    | 45.079     | 129.48     | 258.35     | 593.1 |  5.26
Output  | 0.29207    | 0.30558    | 0.49168    |   8.7 |  0.01
Modify  | 11.489     | 50.863     | 90.852     | 433.9 |  2.07
Other   |            | 0.02457    |            |       |  0.00

Nlocal:        54.0000 ave          60 max          45 min
Histogram: 1 0 1 1 2 3 2 1 3 2
Nghost:        405.188 ave         425 max         376 min
Histogram: 1 2 1 1 0 2 1 2 4 2
Neighs:         0.00000 ave           0 max           0 min
Histogram: 16 0 0 0 0 0 0 0 0 0
FullNghs:      1599.88 ave        1894 max        1233 min
Histogram: 1 1 1 2 1 3 0 4 1 2

Total # of neighbors = 25598
Ave neighs/atom = 29.627315
Ave special neighs/atom = 0.0000000
Neighbor list builds = 300
Dangerous builds = 300
Setting up Verlet run ...
  Unit style    : metal
  Current step  : 5000
  Time step     : 0.001
Per MPI rank memory allocation (min/avg/max) = 8.897 | 8.898 | 8.900 Mbytes
Step Temp PotEng TotEng Press Volume c_msd[4] 
    5000     716.4604   -7676.7081   -7596.7858    655.22106    28507.416    4.1348729 
    5010    714.45255   -7676.4864   -7596.7882    481.97375      28508.3    4.1394812 
    5020    721.80157   -7677.3185   -7596.8005    167.26554     28510.54    4.1409325 
    5030     715.6395   -7676.6583   -7596.8277   -9.2950745    28513.312     4.139033 
    5040    706.81833    -7675.708   -7596.8614   -62.552368    28516.088    4.1367101 
    5050    706.00067   -7675.6435   -7596.8881  -0.32242056    28518.729     4.136155 
    5060    701.05779   -7675.1018   -7596.8977    75.018142    28521.383    4.1375411 
    5070    702.08819   -7675.2047   -7596.8857    98.716156    28524.254     4.140377 
    5080    704.78539   -7675.4683   -7596.8484    102.75756    28527.426    4.1446257 
    5090    708.95941   -7675.8738   -7596.7883   -119.06238    28530.838    4.1482921 
    5100    720.10781   -7677.0454   -7596.7163   -409.35232    28533.907    4.1503592 
    5110    720.50399   -7677.0219   -7596.6486    -561.7167    28535.846    4.1517989 
    5120    712.66963    -7676.089   -7596.5896   -468.67632    28536.263    4.1552198 
    5130     710.8026   -7675.8191    -7596.528   -628.26515    28535.267    4.1615365 
    5140    704.17095   -7674.9932   -7596.4419   -1025.9929    28532.407    4.1702122 
    5150    720.19759   -7676.6718   -7596.3327   -1495.7691    28526.575    4.1793988 
    5160    724.23277   -7677.0026   -7596.2133   -1810.3049     28516.45    4.1869024 
    5170    714.65419    -7675.817   -7596.0962   -1560.3832    28501.248    4.1915138 
    5180    719.24035   -7676.2007   -7595.9683   -1136.7578    28481.562    4.1932662 
    5190     722.8978   -7676.4627   -7595.8223   -613.69285    28458.564    4.1920459 
    5200    718.00632   -7675.7571   -7595.6624    78.718102    28433.767     4.187681 
    5210    708.94845   -7674.5642   -7595.4799    534.44885    28409.054    4.1815464 
    5220    703.14262   -7673.7008   -7595.2642    594.21342    28385.668     4.175355 
    5230     702.5034   -7673.3687   -7595.0034    626.84542    28363.899    4.1693907 
    5240     709.1007   -7673.7959   -7594.6947    693.06094    28343.842    4.1640914 
    5250    710.32819   -7673.5778   -7594.3396    831.53948    28325.718    4.1598783 
    5260    721.00031    -7674.379   -7593.9503    837.64465    28309.857    4.1575965 
    5270    730.99739    -7675.086   -7593.5422     815.8654    28296.319    4.1605333 
    5280    736.72433   -7675.3359   -7593.1532    739.45433    28285.028    4.1693067 
    5290    737.46314   -7675.0722    -7592.807    687.64462    28275.805    4.1787311 
    5300    734.98205   -7674.5013    -7592.513    745.61531    28268.533      4.18225 
    5310    731.66452   -7673.8833    -7592.265    799.65957    28263.351    4.1784418 
    5320    737.93226   -7674.3723   -7592.0548    711.84842    28260.383    4.1709642 
    5330    747.02734   -7675.2235   -7591.8914    521.09233    28259.393    4.1635333 
    5340    750.42432   -7675.5102   -7591.7993    332.16785    28259.865    4.1564141 
    5350    744.93401   -7674.8915    -7591.793    347.94417    28261.334    4.1504599 
    5360    739.03408   -7674.3049   -7591.8645    409.60595    28263.828    4.1483279 
    5370     730.5874   -7673.4987   -7592.0006    234.10103    28267.439    4.1509619 
    5380    723.69378    -7672.911   -7592.1818    8.1563508    28271.725    4.1551087 
    5390    736.70509   -7674.5907   -7592.4102   -173.27439    28276.057    4.1576711 
    5400    743.45371    -7675.646   -7592.7126   -76.701497    28279.995    4.1590546 
    5410    738.65001   -7675.5082   -7593.1107    89.669913    28283.749    4.1591435 
    5420     717.6162   -7673.6255   -7593.5744    419.11451    28287.836     4.158635 
    5430    713.55312   -7673.6655   -7594.0676    630.07901    28293.101    4.1571818 
    5440    728.85395   -7675.8949   -7594.5901    601.93056    28300.106    4.1555968 
    5450     730.4693   -7676.6396   -7595.1547    654.75809    28308.872    4.1563643 
    5460    734.75539   -7677.7195   -7595.7564    718.55366     28319.54    4.1609662 
    5470    741.17669   -7679.0764    -7596.397    722.50197    28332.308    4.1703914 
    5480    731.60509    -7678.663   -7597.0513    650.23708    28347.185    4.1830373 
    5490    725.20151   -7678.5806   -7597.6833    534.31162    28363.978    4.1952596 
    5500    713.56261   -7677.8529    -7598.254    702.34863    28382.488    4.2050976 
    5510    714.34986   -7678.4344   -7598.7476    668.25653    28403.042    4.2109671 
    5520    714.48427   -7678.8704   -7599.1686    465.60679    28425.579    4.2145214 
    5530    701.72204   -7677.7923   -7599.5142    161.63775    28449.543    4.2199684 
    5540    691.23495   -7676.8846   -7599.7763   -12.591019    28474.136    4.2291685 
    5550    687.89376   -7676.6923   -7599.9568    127.06262    28498.933    4.2395402 
    5560    689.26801   -7676.9555   -7600.0666    153.53257     28524.22    4.2472203 
    5570    688.96287   -7676.9704   -7600.1155    109.64564    28550.094    4.2499933 
    5580     690.2915   -7677.1148   -7600.1118    141.39887    28576.479    4.2482169 
    5590    697.46431   -7677.8691   -7600.0659    307.09108    28603.499    4.2460942 
    5600    711.58098    -7679.375    -7599.997     319.1293    28631.556    4.2493611 
    5610    724.62365   -7680.7652   -7599.9323   -1.1986373    28660.652    4.2598922 
    5620    713.63456   -7679.4914   -7599.8844   -184.61408    28689.997    4.2752531 
    5630      697.103   -7677.6083   -7599.8454   -193.11311    28719.046    4.2895283 
    5640    693.05834   -7677.0921   -7599.7804   -276.32469    28747.699    4.2973463 
    5650     698.9394   -7677.6445   -7599.6768   -407.70224     28775.71    4.2996445 
    5660    709.27796   -7678.6645   -7599.5435   -580.57576    28802.692    4.3009364 
    5670    710.08321   -7678.6097   -7599.3988   -690.26685     28828.15    4.3050412 
    5680    696.09307    -7676.893   -7599.2427   -734.07601    28851.732    4.3133059 
    5690    693.10464   -7676.3697   -7599.0528   -871.72666    28873.274    4.3231126 
    5700    690.43287   -7675.8227   -7598.8039   -1117.6337    28892.327     4.331213 
    5710    683.51386   -7674.7427   -7598.4957   -1198.2533    28908.224    4.3340528 
    5720    677.15499   -7673.6547    -7598.117   -1267.4313    28920.643    4.3316088 
    5730    688.52895   -7674.4629   -7597.6565   -1396.8493    28929.349     4.324892 
    5740    703.08552   -7675.5536   -7597.1234    -1626.403    28933.925     4.317725 
    5750    694.62496   -7674.0472   -7596.5608   -1633.5876    28933.797    4.3143507 
    5760     687.0332   -7672.6237   -7595.9842    -1643.209    28928.835    4.3140768 
    5770    700.77478   -7673.5654   -7595.3929   -1636.8641     28919.02      4.31374 
    5780    714.31417   -7674.5019   -7594.8191   -1534.3455    28904.411    4.3133042 
    5790    718.37166   -7674.4458   -7594.3104   -1488.3764    28885.276    4.3124998 
    5800    726.69451   -7674.9544   -7593.8905   -1445.3074    28861.776    4.3101951 
    5810    727.20311   -7674.6819   -7593.5613   -1338.9236    28834.062    4.3108124 
    5820    723.53527   -7674.0333   -7593.3219   -1036.6994    28802.523     4.316512 
    5830    707.94757   -7672.1109   -7593.1382   -524.87356    28768.082    4.3238617 
    5840    710.72004   -7672.2568   -7592.9749   -168.68788    28732.163    4.3272835 
    5850    733.62261   -7674.6726   -7592.8359    20.201958    28695.822    4.3272926 
    5860    745.12714    -7675.868   -7592.7479    257.60546    28659.705    4.3283233 
    5870    746.93486   -7676.0579   -7592.7361    238.98718    28624.426    4.3316021 
    5880    742.06357   -7675.5747   -7592.7964    51.966311    28589.964    4.3369456 
    5890    743.65132   -7675.8788   -7592.9234    97.618264    28555.893    4.3439371 
    5900    737.35624   -7675.3573   -7593.1041    260.57666    28522.312    4.3507657 
    5910    734.86341   -7675.3076   -7593.3325    197.89269    28489.638     4.356113 
    5920    720.59006   -7673.9742   -7593.5913    61.865093    28457.733      4.36162 
    5930    702.01238    -7672.152   -7593.8414    208.42233    28426.292    4.3679812 
    5940    704.63233   -7672.6475   -7594.0447    486.15505    28395.716    4.3747612 
    5950    725.44846   -7675.1497   -7594.2249    711.97866    28366.726    4.3812067 
    5960    721.92338   -7674.9417     -7594.41    1012.6594        28340    4.3871692 
    5970    716.06448   -7674.4845   -7594.6064    1176.0133    28316.322    4.3906495 
    5980    725.10283   -7675.7021   -7594.8157    1076.1116    28296.086    4.3906452 
    5990    739.06053   -7677.5039   -7595.0606    870.13663    28279.027    4.3908708 
    6000    745.07027   -7678.4862   -7595.3725    798.09892    28264.567    4.3967172 
    6010     723.4861   -7676.4429    -7595.737    1028.5902     28252.54    4.4097339 
    6020    712.00624   -7675.5378   -7596.1124    1085.8337    28243.446    4.4269825 
    6030    718.81482   -7676.6706   -7596.4857    856.71815    28237.375    4.4458124 
    6040    709.08277    -7675.953   -7596.8538     860.9913     28233.82    4.4649683 
    6050    704.58653   -7675.7992   -7597.2015    988.86024    28232.743    4.4825082 
    6060    713.14045   -7677.0757   -7597.5238    1008.7426    28234.432    4.4988049 
    6070     719.4561   -7678.0886   -7597.8322    738.46906    28238.871    4.5155527 
    6080    718.46778   -7678.2838   -7598.1377    328.86662    28245.319    4.5319593 
    6090    709.54452   -7677.5792   -7598.4284     382.8572      28252.8    4.5476896 
    6100     712.5875   -7678.1952    -7598.705    526.56775    28261.325    4.5645132 
    6110    704.72796   -7677.5713   -7598.9578    663.46109    28271.294    4.5839358 
    6120    700.13925   -7677.2779   -7599.1763    807.63434    28283.085     4.603495 
    6130    698.36987   -7677.2572    -7599.353    884.47324    28297.059    4.6212187 
    6140    688.84819   -7676.3204   -7599.4784    813.72826    28313.431    4.6381748 
    6150    696.88759    -7677.286   -7599.5471    344.55413    28331.899    4.6563101 
    6160    707.86091   -7678.5336   -7599.5706   -111.58331    28351.239     4.676882 
    6170    709.74422   -7678.7462   -7599.5732   -547.02405    28370.139    4.6989118 
    6180    706.95536   -7678.4263   -7599.5644   -756.91404    28387.428    4.7206233 
    6190    705.87303   -7678.2878   -7599.5466   -658.13473    28402.542    4.7401095 
    6200    704.79698   -7678.1397   -7599.5185   -497.21465    28415.706    4.7572393 
    6210    701.87593   -7677.7703   -7599.4749   -469.10571    28427.337    4.7728288 
    6220     705.4609   -7678.1092   -7599.4139   -582.91437    28437.515     4.787167 
    6230     700.1927   -7677.4458   -7599.3383   -616.25261    28445.994    4.7995586 
    6240    694.35006   -7676.7015   -7599.2457   -533.49268    28452.688    4.8075327 
    6250    701.87222   -7677.4225   -7599.1276   -378.73316    28457.845    4.8108893 
    6260    720.11589   -7679.3323   -7599.0023   -421.77824    28461.848    4.8115929 
    6270    722.35933   -7679.4802      -7598.9   -548.66443    28464.612    4.8136667 
    6280    701.36509   -7677.0644    -7598.826   -502.11571    28465.844    4.8219401 
    6290    684.20053   -7675.0656    -7598.742   -394.69983    28465.665    4.8391351 
    6300    685.97707   -7675.1436   -7598.6218   -444.65304    28464.314    4.8638925 
    6310    683.11141   -7674.6619   -7598.4597   -365.78547     28461.76    4.8902344 
    6320    692.47223   -7675.5177   -7598.2714    -346.6647    28458.157    4.9126778 
    6330    698.36212   -7675.9709   -7598.0675   -345.57573    28453.595    4.9329346 
    6340    713.32158   -7677.4473   -7597.8752   -496.67339    28448.041    4.9542312 
    6350    716.65135   -7677.6541   -7597.7106    -667.0033    28441.096    4.9773504 
    6360    709.34054   -7676.7083   -7597.5803   -841.58666    28432.287    4.9995973 
    6370    705.41453   -7676.1585   -7597.4684   -809.64958    28421.209     5.019181 
    6380    706.16638   -7676.1301   -7597.3562   -462.88665    28407.991    5.0361736 
    6390    715.06028   -7677.0123   -7597.2462   -339.76855    28393.474    5.0521992 
    6400    713.47002   -7676.7404   -7597.1517   -371.43272    28378.061    5.0681299 
    6410     705.7502   -7675.8003   -7597.0728    -171.5401    28361.765    5.0849879 
    6420     693.1192   -7674.3013   -7596.9828    387.33953    28345.217    5.1051574 
    6430    691.79339   -7674.0336    -7596.863     762.0134    28329.826    5.1281877 
    6440    701.31156   -7674.9411   -7596.7088    855.27793    28316.622    5.1509227 
    6450    719.54182   -7676.8094   -7596.5434    783.65607    28305.884    5.1721387 
    6460    728.01731   -7677.6075   -7596.3961    629.95222     28297.41    5.1931918 
    6470    732.37825   -7677.9894   -7596.2915    387.25829    28290.726    5.2130406 
    6480    742.77617   -7679.0964   -7596.2386    191.43406    28285.196    5.2317281 
    6490    744.35915   -7679.2891   -7596.2547    217.45609    28280.305    5.2486862 
    6500    731.66996   -7677.9541   -7596.3352    449.79366    28276.123    5.2607317 
    6510    733.80909   -7678.3248   -7596.4673    411.84789    28273.143    5.2676095 
    6520    722.26256   -7677.2056   -7596.6361    400.43025    28271.362    5.2734525 
    6530    711.43966   -7676.1863   -7596.8241    260.96334    28270.697    5.2824473 
    6540    709.42405   -7676.1525   -7597.0152   -76.409478     28270.71    5.2969305 
    6550    698.38783    -7675.103   -7597.1968   -176.74289    28270.573    5.3150535 
    6560    697.62598   -7675.1776   -7597.3563   -266.26142    28269.955    5.3333071 
    6570    704.06934   -7676.0342   -7597.4942    -561.1201    28268.534    5.3506548 
    6580    702.98457   -7676.0365   -7597.6176   -534.70751    28265.651    5.3674139 
    6590    705.67843   -7676.4484   -7597.7289   -463.18676    28261.298    5.3830527 
    6600    710.13819   -7677.0463   -7597.8293   -371.90449    28255.671    5.3967059 
    6610    721.06113   -7678.3699   -7597.9345   -184.74876    28249.048    5.4066051 
    6620    720.12615   -7678.3932    -7598.062    157.07724    28241.997    5.4123227 
    6630    710.44598   -7677.4708   -7598.2195    391.44899    28235.394    5.4163247 
    6640    692.50689   -7675.6345   -7598.3843     428.7992     28229.87    5.4207747 
    6650    684.19461   -7674.8583   -7598.5353    450.71203     28225.59    5.4245347 
    6660    676.07916   -7674.0671   -7598.6495     645.6384    28222.656    5.4277475 
    6670    674.13979   -7673.9085   -7598.7072    742.30425    28221.522    5.4326166 
    6680    679.84196   -7674.5298   -7598.6924    629.25179     28222.42    5.4422585 
    6690    685.64454   -7675.0821   -7598.5975    678.84438    28225.131     5.458799 
    6700    689.71414   -7675.3544   -7598.4158    746.27637    28229.745    5.4812059 
    6710    692.27147   -7675.3629    -7598.139    787.25529    28236.451      5.50487 
    6720      692.059   -7674.9535   -7597.7532    804.88022    28245.353    5.5222384 
    6730    707.26728   -7676.1515   -7597.2548    543.29092    28256.417    5.5293993 
    6740    709.15965   -7675.7675   -7596.6596    237.34005    28268.988    5.5298516 
    6750    704.38723   -7674.5853   -7596.0098    74.901554     28282.25    5.5277305 
    6760    724.35361   -7676.1266   -7595.3239   -37.164777    28295.704    5.5280221 
    6770    737.46583   -7676.9109   -7594.6454   -75.470663    28309.046    5.5370733 
    6780    727.76548   -7675.2189   -7594.0356   -42.810807    28322.175    5.5540283 
    6790    723.76249   -7674.2438    -7593.507   -35.249026    28335.153    5.5717639 
    6800    719.86967   -7673.3393   -7593.0368   -35.073235    28348.008    5.5875693 
    6810    725.54173   -7673.5571   -7592.6218   -174.65569    28360.691    5.6007145 
    6820    725.10464   -7673.1417   -7592.2551   -339.61234    28372.867    5.6124048 
    6830    728.13277   -7673.1662   -7591.9419   -482.40864    28384.094    5.6253595 
    6840    736.11865   -7673.7952   -7591.6801   -479.56038    28393.994     5.639644 
    6850    748.25076   -7674.9556   -7591.4871   -496.51101    28402.504    5.6563258 
    6860    743.48585   -7674.3138   -7591.3769   -431.70685    28409.631    5.6770069 
    6870    735.33525   -7673.3704   -7591.3427    -336.9418    28415.534     5.697367 
    6880    731.00758    -7672.908    -7591.363   -204.01521    28420.487    5.7112343 
    6890    725.44869   -7672.3473   -7591.4224   -49.595575    28424.867     5.719675 
    6900    719.55637   -7671.7804   -7591.5128    105.12091    28429.112    5.7284117 
    6910    708.28905   -7670.6271   -7591.6164    217.05031    28433.651    5.7396519 
    6920    707.86022   -7670.6791   -7591.7162     256.5086    28438.817    5.7514649 
    6930    712.42217    -7671.281   -7591.8093    207.34463    28444.709    5.7621586 
    6940    720.07883   -7672.2309    -7591.905    107.60047    28451.189    5.7733036 
    6950    734.05932   -7673.9131   -7592.0277   -48.926398    28457.971    5.7871993 
    6960    735.39525   -7674.2388   -7592.2044   -178.29079    28464.639     5.802517 
    6970    726.03838   -7673.4328   -7592.4421   -210.67473    28470.862    5.8162641 
    6980     716.3969    -7672.642   -7592.7269   -184.40489     28476.51    5.8261863 
    6990    713.06213   -7672.5825   -7593.0393    95.952837    28481.721    5.8319691 
    7000    723.23357   -7674.0682   -7593.3904    296.54588    28487.206    5.8365295 
    7010    725.53093   -7674.7266   -7593.7925    164.57607    28493.481    5.8442291 
    7020    728.86438   -7675.5715   -7594.2656    18.906832    28500.265    5.8573603 
    7030    713.91876   -7674.4326   -7594.7939    86.851992    28507.213    5.8745511 
    7040    703.28053   -7673.7961   -7595.3441    107.78449     28514.43    5.8906143 
    7050    707.10836    -7674.771    -7595.892    183.03046    28522.021    5.9016286 
    7060    709.50504   -7675.5857   -7596.4393    197.19155    28530.155    5.9072102 
    7070     703.8021   -7675.4797   -7596.9696    215.34353    28538.907    5.9077289 
    7080    707.51969   -7676.4019    -7597.477    10.555957    28548.267    5.9046107 
    7090    690.85295    -7675.001   -7597.9353   -114.11379    28557.754    5.9027332 
    7100    680.01979     -7674.17   -7598.3128   -163.83587    28566.988    5.9026451 
    7110      684.422   -7674.9477   -7598.5994   -191.88775    28575.816    5.9037949 
    7120    686.27339   -7675.3568    -7598.802   -187.16089    28584.159    5.9089914 
    7130    690.79567    -7675.993   -7598.9337   -212.79401    28592.022    5.9204347 
    7140    698.99353   -7676.9839   -7599.0101   -384.66436    28599.289    5.9374253 
    7150    700.75994   -7677.2193   -7599.0485   -467.94263    28605.543    5.9574534 
    7160    704.49994   -7677.6495   -7599.0615   -591.54151    28610.489    5.9776919 
    7170    708.04313   -7678.0403    -7599.057   -628.77477    28613.795     5.998166 
    7180    709.08925   -7678.1427   -7599.0427   -478.11445    28615.367    6.0204967 
    7190    720.75916   -7679.4298    -7599.028   -458.03676    28615.523    6.0456064 
    7200    726.79015   -7680.1078   -7599.0333   -495.24424    28614.349    6.0735809 
    7210    709.73535   -7678.2321     -7599.06   -404.07337    28611.774    6.1042822 
    7220    699.57021   -7677.1189   -7599.0808   -369.41025    28607.994    6.1345645 
    7230    701.18517   -7677.2964   -7599.0781   -470.38138    28603.058    6.1633566 
    7240     693.6432   -7676.4217   -7599.0447   -421.55093    28596.763    6.1935597 
    7250    700.38574   -7677.1151    -7598.986   -419.80371    28589.149    6.2281262 
    7260    702.89605   -7677.3129   -7598.9038   -196.10966    28580.292    6.2653158 
    7270    711.65941   -7678.1999   -7598.8132    66.934776     28570.76    6.2992062 
    7280     729.1291    -7680.072   -7598.7366    179.21301    28561.259    6.3266717 
    7290     724.4582   -7679.5108   -7598.6964    321.14638    28552.164    6.3500483 
    7300    705.82555   -7677.4188   -7598.6829    663.06568    28543.944    6.3724844 
    7310    700.46488   -7676.7994   -7598.6615    892.11822    28537.516     6.396249 
    7320    705.58475    -7677.335    -7598.626    812.70447    28533.492    6.4257996 
    7330    696.88135   -7676.3176   -7598.5794    851.21178    28531.797    6.4645669 
    7340    694.76296   -7676.0148    -7598.513    887.29445    28532.538    6.5085343 
    7350    700.46683   -7676.5591    -7598.421    884.97808    28535.855    6.5505855 
    7360    701.98781    -7676.615   -7598.3072    842.47523    28541.787    6.5856056 
    7370    709.40884   -7677.3144   -7598.1788    712.10608    28550.252    6.6132841 
    7380    706.66772   -7676.8728    -7598.043    538.96727    28560.925    6.6357712 
    7390     710.3116    -7677.147   -7597.9106    332.69031     28573.34    6.6548029 
    7400      701.436   -7676.0184   -7597.7721    334.40233    28587.026    6.6744816 
    7410    706.84938   -7676.4779   -7597.6278    137.33469    28601.851    6.6975749 
    7420    708.33316   -7676.4888   -7597.4732     3.936456     28617.36    6.7270085 
    7430    707.21032   -7676.2069   -7597.3166   -12.497622    28633.197    6.7603398 
    7440    719.29225   -7677.3968   -7597.1587   -45.919357    28649.271    6.7921368 
    7450    726.26399   -7678.0292   -7597.0133   -1.1351094    28665.504    6.8219371 
    7460    721.70864   -7677.4074   -7596.8997    128.82201    28682.034     6.849594 
    7470    718.11398   -7676.9224   -7596.8157    183.68254    28699.219    6.8742386 
    7480    719.71291   -7677.0365   -7596.7514    29.289388     28717.18     6.898479 
    7490    721.90259   -7677.2301   -7596.7008   -81.904604    28735.567    6.9242143 
    7500    720.84239   -7677.0762   -7596.6652   -135.92166    28754.061    6.9500902 
    7510    732.01881   -7678.3098    -7596.652   -375.03045    28772.448    6.9726091 
    7520    745.18669   -7679.8092   -7596.6825    -662.4268     28790.05    6.9868621 
    7530    738.56914   -7679.1738   -7596.7853   -712.01893    28806.065    6.9916021 
    7540      725.291   -7677.8576   -7596.9503   -722.29866     28820.27    6.9905456 
    7550    714.88555   -7676.8952   -7597.1486   -733.35459    28832.604    6.9912354 
    7560    708.28059   -7676.3678    -7597.358   -752.98407    28842.995    7.0001876 
    7570    704.09992   -7676.1082   -7597.5648    -820.3718    28851.327    7.0179672 
    7580    703.60378   -7676.2565   -7597.7684   -931.84665    28857.377    7.0418326 
    7590    700.70803   -7676.1381    -7597.973   -1086.7595    28860.755    7.0672297 
    7600    687.08796   -7674.8183   -7598.1726   -972.37714    28861.056    7.0893992 
    7610    682.74893   -7674.5116   -7598.3499   -821.99648    28858.496    7.1060179 
    7620    686.41775   -7675.0659    -7598.495   -652.81827    28853.472     7.116555 
    7630    689.10236   -7675.4857   -7598.6153   -516.70033    28846.415    7.1231624 
    7640    683.25241   -7674.9269   -7598.7091   -483.93337    28837.665    7.1313988 
    7650    678.95302   -7674.4999   -7598.7617   -338.20537    28827.364    7.1452887 
    7660    691.74912   -7675.9211   -7598.7554   -376.56509    28815.808    7.1641589 
    7670    707.10343   -7677.5729   -7598.6945   -493.06202    28802.895    7.1865129 
    7680    703.79532   -7677.1023   -7598.5928   -513.58534    28788.304    7.2122283 
    7690    698.26483    -7676.339   -7598.4466    -430.3664    28771.929     7.240923 
    7700    698.06625   -7676.1087   -7598.2383   -96.087644    28754.016    7.2716861 
    7710    701.67531   -7676.2333   -7597.9604    382.42053    28735.502    7.3024999 
    7720    709.94349   -7676.8167   -7597.6214    573.65189     28717.64    7.3305822 
    7730    712.94856   -7676.7686   -7597.2381    660.71282    28701.067    7.3510211 
    7740    715.70364   -7676.6656   -7596.8278    821.41498     28686.11    7.3611023 
    7750    727.31694   -7677.5356   -7596.4023    990.63162    28673.263    7.3669137 
    7760    744.65388    -7679.063   -7595.9958    1024.7256    28663.012    7.3768889 
    7770    735.95585   -7677.7424   -7595.6454    1130.6342    28655.577    7.3932896 
    7780    715.48605   -7675.1642   -7595.3506    1328.3363    28651.303     7.413329 
    7790    707.37924   -7673.9803   -7595.0711     1491.733    28650.814    7.4319304 
    7800    710.57193   -7674.0528   -7594.7874    1433.4434    28654.632    7.4498673 
    7810    699.96676   -7672.5781   -7594.4957     1391.357    28662.748    7.4694637 
    7820    692.99869   -7671.4897   -7594.1846    1308.3024    28675.135    7.4837211 
    7830    719.80714   -7674.1376   -7593.8421    900.56857     28691.56    7.4861215 
    7840    737.05946   -7675.7179   -7593.4978    621.62828    28711.082    7.4806061 
    7850     729.1431   -7674.5379   -7593.2009    419.65008    28732.937    7.4726247 
    7860    726.81294   -7674.0249   -7592.9478    78.471136    28756.529    7.4638944 
    7870    728.99938   -7674.0413   -7592.7203   -283.99901    28780.908    7.4562711 
    7880    717.81672   -7672.5867   -7592.5131   -334.03209    28805.138    7.4540938 
    7890    727.09321   -7673.4287   -7592.3203   -467.47821    28828.921    7.4609048 
    7900    731.19648   -7673.7149   -7592.1488   -372.93885    28851.953    7.4772271 
    7910    715.97101   -7671.8849   -7592.0173   -59.793573    28874.467    7.4967988 
    7920    698.28232   -7669.7907   -7591.8963    93.531428    28897.277    7.5123598 
    7930    711.23585   -7671.0932   -7591.7538   -118.04486    28920.795    7.5209551 
    7940    725.95526    -7672.571   -7591.5896   -268.95055    28944.522    7.5257409 
    7950    731.77287   -7673.0756   -7591.4452   -266.76426    28968.014    7.5308127 
    7960    722.05365   -7671.8776   -7591.3314   -64.319234    28991.315    7.5383862 
    7970    715.48148    -7671.056    -7591.243    22.290257    29014.911    7.5457762 
    7980    712.25773   -7670.6099   -7591.1565   -173.29135    29039.026    7.5471907 
    7990    720.90885   -7671.4826   -7591.0641   -573.90837    29063.102    7.5416685 
    8000    725.60618    -7671.919   -7590.9765   -913.45782    29085.996    7.5371979 
    8010    719.64975   -7671.1845   -7590.9065   -980.05477     29106.72    7.5398889 
    8020    728.02153   -7672.0687   -7590.8568    -913.0893     29124.97    7.5499322 
    8030    744.89483   -7673.9405   -7590.8463   -1046.0843    29140.785    7.5653703 
    8040    737.40301   -7673.1657   -7590.9073   -1049.8028    29153.829    7.5819947 
    8050     720.8562   -7671.4496    -7591.037   -998.05648    29164.001    7.5956198 
    8060    713.98362   -7670.8536   -7591.2077   -1171.0723    29171.296    7.6046644 
    8070    712.14623   -7670.8471   -7591.4062   -1406.9907     29175.17     7.608099 
    8080    716.51397   -7671.5639   -7591.6357   -1332.2125    29174.965    7.6062092 
    8090    725.71279   -7672.8672   -7591.9129   -1148.8001    29170.734    7.6021563 
    8100    730.33863   -7673.7306   -7592.2602   -858.86076    29162.958    7.6015732 
    8110    727.83625   -7673.8823   -7592.6911   -306.06661    29152.509    7.6065291 
    8120    726.48559   -7674.2351   -7593.1946    32.215888    29140.878    7.6132786 
    8130    728.11684   -7674.9981   -7593.7756   -139.03715    29128.963    7.6164634 
    8140    718.71185   -7674.5865   -7594.4131   -219.31556     29116.43    7.6155222 
    8150    726.74714   -7676.1582   -7595.0885   -382.01798    29102.952    7.6161003 
    8160    740.93926   -7678.4589    -7595.806   -528.69959     29088.07    7.6235289 
    8170    738.67413   -7678.9568   -7596.5566   -566.24821    29071.331    7.6375907 
    8180    722.50163   -7677.8834   -7597.2873   -464.17239    29052.616    7.6565499 
    8190    710.24731    -7677.172   -7597.9428   -374.72491    29032.142    7.6785736 
    8200    694.62611    -7675.972   -7598.4854    -334.8147    29010.145    7.6992005 
    8210    692.34157   -7676.1397    -7598.908   -560.49578    28986.653    7.7132169 
    8220    705.89519   -7677.9812   -7599.2376   -700.05913    28961.099    7.7211321 
    8230    712.51217   -7678.9911   -7599.5093   -517.23519    28933.107    7.7271972 
    8240    710.25269   -7678.9658   -7599.7361   -72.400639    28903.181    7.7345559 
    8250    714.60024   -7679.6365   -7599.9218     264.1559    28872.528    7.7442696 
    8260    720.56674    -7680.464   -7600.0837    466.67762    28842.155    7.7563108 
    8270    715.07662   -7680.0056   -7600.2378    763.56031    28812.748     7.771128 
    8280    706.84059    -7679.229   -7600.3799    1008.8188    28785.169    7.7902593 
    8290    704.80857   -7679.1242   -7600.5017    1184.0901     28760.16    7.8124145 
    8300    698.79067   -7678.5467   -7600.5956    1386.6208    28738.309     7.833097 
    8310    701.08936   -7678.8665   -7600.6589    1328.0436    28720.172    7.8485806 
    8320    706.88314   -7679.5504   -7600.6965    1153.7508    28705.683     7.858531 
    8330    705.53089   -7679.4227   -7600.7197    916.65342    28694.378    7.8646271 
    8340    702.07324   -7679.0492   -7600.7319    736.78513    28685.639    7.8678334 
    8350    708.16487   -7679.7284   -7600.7316     582.7772    28678.949    7.8673058 
    8360    719.21368   -7680.9608   -7600.7314    555.01921    28673.902    7.8622728 
    8370    709.16717   -7679.8516   -7600.7429    811.49198     28670.49    7.8543262 
    8380    697.96986    -7678.611   -7600.7514    950.82865    28669.381    7.8469482 
    8390    701.91082   -7679.0366   -7600.7374    780.62681    28670.949    7.8429472 
    8400    700.86248   -7678.8774   -7600.6952    727.57559    28674.853    7.8382337 
    8410    697.29974   -7678.4086   -7600.6237     681.0867    28680.934     7.827018 
    8420    698.94002   -7678.4827   -7600.5149    466.47748    28689.039    7.8086304 
    8430    697.61683   -7678.1839   -7600.3637    171.58964    28698.592    7.7865135 
    8440     688.0496     -7676.91    -7600.157    142.30595    28708.859    7.7644326 
    8450    695.24628   -7677.4376   -7599.8818    337.96903    28719.724    7.7448007 
    8460    696.65559   -7677.2433   -7599.5304    569.11578    28731.706    7.7308481 
    8470     682.5067   -7675.2312   -7599.0965    630.92991    28745.449     7.720821 
    8480    696.80769   -7676.2947   -7598.5647    462.47674    28761.134    7.7103266 
    8490    717.11757   -7677.9337   -7597.9382    404.05783    28778.397    7.7020391 
    8500    721.68932   -7677.7906   -7597.2851    411.00995    28797.062     7.696373 
    8510    713.94073   -7676.2843   -7596.6432    379.01024    28817.129    7.6887453 
    8520    709.30113   -7675.1484   -7596.0248    447.67378     28838.56    7.6781572 
    8530    720.30773    -7675.787   -7595.4356    357.30462    28861.487    7.6663192 
    8540    720.52331    -7675.268   -7594.8925     264.7223    28885.722    7.6540448 
    8550    719.51999   -7674.6825    -7594.419    80.114474    28910.959    7.6431012 
    8560     719.7998   -7674.3083   -7594.0135   -271.51458     28936.61    7.6360685 
    8570    715.40353   -7673.4765   -7593.6722   -400.08817    28961.768        7.633 
[...]
   22890    716.39912   -7674.9522   -7595.0368   -81.717551    28168.243    22.998605 
   22900    709.43656   -7674.2087     -7595.07       253.94    28132.748    22.985738 
   22910    711.54455    -7674.459   -7595.0852    612.25449     28098.01    22.981365 
   22920    729.25605   -7676.4485   -7595.0989     724.2215    28064.956    22.982696 
   22930    731.66403   -7676.7621   -7595.1439    716.64836    28033.944    22.987641 
   22940    725.45305   -7676.1509   -7595.2255    565.75961    28004.942     22.98781 
   22950    730.67857   -7676.8535   -7595.3452    370.57261    27977.552    22.980764 
   22960    730.03197   -7676.9417   -7595.5056     341.3981     27951.29    22.973773 
   22970    730.87362   -7677.2432   -7595.7132    492.31089    27926.051    22.969553 
   22980    719.31459   -7676.1864   -7595.9458    793.50755    27902.268    22.967656 
   22990    713.42989   -7675.7747   -7596.1906    819.24942    27880.627    22.963349 
   23000    705.30088   -7675.0989   -7596.4215     781.0131    27861.276    22.950483 
   23010    709.33245   -7675.7664   -7596.6393    738.67724    27844.123    22.928023 
   23020    707.18088   -7675.7336   -7596.8465    719.69163    27829.029    22.905364 
   23030    700.15952   -7675.1457   -7597.0419    812.31968    27815.963    22.897611 
   23040     706.3622   -7676.0124   -7597.2166     779.7906    27805.109    22.911169 
   23050    725.07068   -7678.2772   -7597.3945    720.51888    27796.392    22.936953 
   23060    719.74961   -7677.8845   -7597.5954    884.77883    27789.714    22.959355 
   23070    718.30149   -7677.9559   -7597.8283    832.50961    27785.398    22.966011 
   23080    720.85016   -7678.4982   -7598.0863    608.22736    27783.328     22.95747 
   23090    720.75178   -7678.7805   -7598.3796    613.26013    27782.981      22.9423 
   23100    705.83321   -7677.4268     -7598.69    815.23879    27784.344    22.927388 
   23110     707.7145   -7677.9493   -7599.0027    854.67981    27787.888    22.918458 
   23120    715.29376   -7679.1147   -7599.3226    710.62106    27793.726    22.917189 
   23130    714.79599   -7679.3991   -7599.6626    615.76711    27801.532    22.921892 
   23140    706.70878   -7678.8562   -7600.0217    754.28397    27811.089    22.928426 
   23150    695.77304    -7677.993   -7600.3785    857.77293    27822.683    22.932903 
   23160    696.08696   -7678.3695     -7600.72     924.3158    27836.623    22.936973 
   23170    695.02264    -7678.572   -7601.0411    1072.1057     27853.14    22.943122 
   23180     696.3506   -7679.0184   -7601.3394    1068.3572    27872.576    22.955247 
   23190    703.13632   -7680.0607   -7601.6248    921.98808    27894.937    22.971875 
   23200    695.07232   -7679.4357   -7601.8994    844.29538    27919.897    22.983924 
   23210    688.31333   -7678.9382   -7602.1558    617.33826    27947.187    22.984548 
   23220    682.56886   -7678.5132   -7602.3717    329.24602    27976.231    22.979684 
   23230    694.60105   -7680.0278    -7602.544    115.26092    28006.272    22.978744 
   23240    712.95821   -7682.2274   -7602.6958   -64.826036    28036.697     22.98535 
   23250    709.39213   -7681.9908   -7602.8571   -135.46793    28067.029    23.001654 
   23260    699.27586   -7681.0407   -7603.0354   -202.65477    28097.031    23.023905 
   23270    692.04453   -7680.4156    -7603.217    -256.2657    28126.523    23.046381 
   23280    686.19308   -7679.9353   -7603.3894   -243.57392    28155.365    23.068515 
   23290    685.84386    -7680.051   -7603.5441   -135.00959    28183.585    23.090159 
   23300    689.64552   -7680.6068   -7603.6758     35.53695    28211.482    23.110441 
   23310    701.99521   -7682.1025   -7603.7939    201.60755     28239.51    23.126603 
   23320    701.29582   -7682.1387   -7603.9081    438.67688     28268.17    23.138869 
   23330    687.68124    -7680.731   -7604.0191    615.05608    28298.081    23.150648 
   23340     678.1484   -7679.7375   -7604.0891    596.35942    28329.733    23.165992 
   23350    708.02803   -7683.0835   -7604.1019    217.08657    28363.011    23.185742 
   23360    721.59761   -7684.5869   -7604.0916    132.66272    28397.017    23.211585 
   23370    691.59548   -7681.2323   -7604.0838    445.20217    28431.553    23.244041 
   23380    686.04722   -7680.5776    -7604.048    499.18871    28467.317    23.277491 
   23390    688.58494   -7680.7551   -7603.9424    331.75155    28504.478    23.304597 
   23400    680.63925   -7679.6904   -7603.7641   -11.132014    28542.542    23.322103 
   23410    669.36184   -7678.1604    -7603.492   -400.81594    28580.559     23.33363 
   23420    687.36158   -7679.7889   -7603.1127   -661.97958    28617.441    23.340445 
   23430    693.33423   -7679.9791   -7602.6366   -721.65134    28652.425    23.341068 
   23440    701.15569   -7680.3215   -7602.1065   -806.05477    28685.261    23.335318 
   23450    701.61501   -7679.8033   -7601.5371   -878.77996    28715.746    23.322488 
   23460    693.32226   -7678.2943   -7600.9531   -895.62792    28743.646    23.304021 
   23470    692.55711   -7677.6123   -7600.3565   -803.28648    28768.929    23.286621 
   23480    701.98083   -7678.0562   -7599.7491    -808.9204    28791.799     23.27562 
   23490    711.97859   -7678.5748   -7599.1525   -864.13955    28812.255    23.271505 
   23500    710.96175   -7677.9022   -7598.5933   -980.29178    28830.126    23.271706 
   23510    712.55426   -7677.5699   -7598.0834   -1170.6117    28845.074    23.271434 
   23520    722.70299   -7678.2391   -7597.6205   -1285.5331     28856.58     23.27095 
   23530    730.64165   -7678.7232   -7597.2191   -1287.7493    28864.333    23.273516 
   23540     728.4703   -7678.1541   -7596.8922   -1354.5226    28868.285    23.281882 
   23550    714.82936   -7676.3677   -7596.6274   -1396.7447    28868.266    23.297166 
   23560    711.56135   -7675.7753   -7596.3996    -1446.751    28864.144    23.315713 
   23570    716.00576   -7676.0616   -7596.1901   -1583.4953    28855.755     23.33073 
   23580    718.31719    -7676.129   -7595.9996   -1592.6616    28842.779    23.337125 
   23590    716.65641   -7675.7776   -7595.8335   -1442.3818    28825.191    23.334159 
   23600    710.33231   -7674.9166    -7595.678    -1295.208    28803.416    23.327817 
   23610    718.59717    -7675.693   -7595.5324   -1325.1579    28777.851    23.324438 
   23620    710.37006   -7674.6349   -7595.3921   -1282.0538    28748.489    23.327717 
   23630    707.99774   -7674.2328   -7595.2546   -1138.1038    28715.456    23.336579 
   23640    703.49327   -7673.5769   -7595.1012    -787.5769    28679.242    23.348053 
   23650    688.43568   -7671.7112   -7594.9152    -398.0962    28640.843    23.363303 
   23660    688.63574   -7671.4907   -7594.6724    10.892599    28601.425    23.383277 
   23670    706.47489   -7673.1751   -7594.3668    430.52632    28562.166    23.407164 
   23680     703.6144   -7672.5064   -7594.0172     659.6137    28524.227     23.43094 
   23690    709.31793   -7672.7721   -7593.6466    586.90633    28488.241    23.449149 
   23700    737.63588   -7675.5494    -7593.265    508.10094     28454.07    23.463775 
   23710    758.08622    -7677.495   -7592.9293     194.2819    28421.385    23.483123 
   23720     742.6301   -7675.5286   -7592.6871   -41.106244    28389.398    23.504926 
   23730    731.69715   -7674.1467   -7592.5248   -142.37864    28357.448    23.518808 
   23740    738.98985   -7674.8501   -7592.4147   -274.90672    28325.209    23.520879 
   23750    730.25692   -7673.8147   -7592.3535   -85.135269    28292.416    23.520958 
   23760    720.42429   -7672.6902   -7592.3258      279.828    28259.595     23.53112 
   23770    722.46067   -7672.9075   -7592.3159    480.51609    28227.683    23.555433 
   23780    712.49436   -7671.7981   -7592.3183    830.12569    28197.307    23.596522 
   23790    706.41341   -7671.1168   -7592.3154    1276.1321    28169.436    23.651682 
   23800    727.02972   -7673.4147   -7592.3134    1445.3617    28145.179    23.708978 
   23810     728.9636   -7673.6557   -7592.3387    1671.6519    28125.083    23.756697 
   23820    723.06616   -7673.0705   -7592.4114    1755.8764    28109.697     23.78289 
   23830    727.61384   -7673.7027   -7592.5363     1585.653    28099.208    23.785254 
   23840    727.75272    -7673.906   -7592.7241     1494.566    28093.204    23.775971 
   23850    728.25739   -7674.2268   -7592.9886    1464.7105    28091.398    23.770272 
   23860    745.34411   -7676.5116   -7593.3674    1346.3601    28093.647    23.776885 
   23870    745.05908   -7677.0198   -7593.9074    1310.7688    28099.649    23.794188 
   23880    728.43159   -7675.8606    -7594.603    1346.6019    28109.296    23.811343 
   23890    726.45727   -7676.4557   -7595.4183    1157.8895    28122.626    23.818064 
   23900    715.19554   -7676.0742    -7596.293    1007.5585    28139.186    23.813079 
   23910    702.64109   -7675.5288   -7597.1481    1110.2975    28158.603    23.795613 
   23920    690.26174   -7674.9112   -7597.9114    1347.1002    28181.141    23.772314 
   23930    685.49369   -7675.0117   -7598.5439    1342.3223    28207.364    23.756576 
   23940    686.66313   -7675.6446   -7599.0463    1102.2398    28237.265    23.754819 
   23950    688.68913   -7676.2535   -7599.4291     713.7405    28270.218    23.768848 
   23960    709.18974   -7678.8361   -7599.7249    249.34128    28305.119    23.796517 
   23970    715.38203   -7679.7773   -7599.9753    178.35175    28340.784    23.830144 
   23980    711.62619   -7679.5883   -7600.2053    180.25509    28376.918    23.862706 
   23990    711.27268   -7679.7551   -7600.4115    39.989229    28413.479    23.891371 
   24000    724.66216   -7681.4353   -7600.5981   -369.24428    28450.002     23.91607 
   24010    738.10976    -7683.135   -7600.7977   -703.98612    28485.393    23.939731 
   24020    714.03648   -7680.6731   -7601.0212   -644.79722    28518.781    23.969381 
   24030    691.23811   -7678.3394   -7601.2308   -543.50564    28550.204    24.011381 
   24040     690.7789   -7678.4445   -7601.3871   -553.37642    28579.906    24.067758 
   24050    688.80284   -7678.3255   -7601.4885    -606.4478     28607.88    24.126588 
   24060    687.95263   -7678.2717   -7601.5295   -805.25619     28633.94    24.172894 
   24070    712.45521   -7681.0063   -7601.5309   -1085.6719     28657.52    24.200815 
   24080    703.64888   -7680.0111    -7601.518   -1115.4062      28677.9    24.214165 
   24090    682.99001   -7677.6746    -7601.486   -1081.7214    28694.952    24.221354 
   24100    689.90871    -7678.364   -7601.4036   -1113.1837    28708.757    24.228942 
   24110    704.81213   -7679.8946   -7601.2717   -1053.2132    28719.289    24.240641 
   24120    706.07815   -7679.8791    -7601.115   -865.62471    28726.739    24.259602 
   24130    692.57822   -7678.1951   -7600.9369   -579.53215     28731.66    24.281063 
   24140    689.72325   -7677.6539   -7600.7143   -523.31156    28734.816     24.29662 
   24150    699.73709   -7678.4842   -7600.4275   -603.37742    28736.422    24.302219 
   24160    722.44549   -7680.6821   -7600.0922   -740.14264    28736.254    24.297271 
   24170    741.05128   -7682.4055   -7599.7401   -806.18228    28733.964    24.281224 
   24180    753.15541   -7683.4444   -7599.4288   -707.37767    28729.376     24.25797 
   24190    744.26588   -7682.2113   -7599.1873   -366.86973    28722.824    24.235972 
   24200    725.05473   -7679.8886   -7599.0077   -129.13616    28715.221    24.224943 
   24210    713.94661   -7678.4921   -7598.8502   -209.05792    28707.201    24.231141 
   24220    706.32829   -7677.4717   -7598.6797   -191.61732    28698.678    24.253578 
   24230    716.25983   -7678.3837   -7598.4839   -245.17103    28689.624    24.285796 
   24240    714.35582   -7677.9523   -7598.2649    -215.5763    28679.937    24.323313 
   24250    687.22385   -7674.6763   -7598.0155    -16.62503    28669.728    24.362191 
   24260    683.71464   -7673.9571   -7597.6877   -148.05825     28659.43    24.396594 
   24270    698.88322   -7675.2052   -7597.2437   -391.75112    28648.736    24.425174 
   24280      689.538   -7673.6056   -7596.6866   -298.56812    28637.062    24.451481 
   24290    698.17593   -7673.9016    -7596.019   -233.56618     28624.59    24.480367 
   24300    735.64727   -7677.3131   -7595.2506   -381.94834    28611.468    24.515751 
   24310    749.69576   -7678.1052   -7594.4755   -358.58799    28597.374    24.559462 
   24320    734.87289   -7675.7663   -7593.7901   -201.14849    28582.374    24.610299 
   24330    722.54102   -7673.8012   -7593.2007   -70.904227    28566.887     24.66175 
   24340    725.08569    -7673.573   -7592.6886    45.696782    28551.298     24.70757 
   24350    720.68264   -7672.6443   -7592.2511    89.280123    28535.932    24.747719 
   24360    712.40674   -7671.3556   -7591.8855    56.459947    28520.907    24.780557 
   24370    714.64331   -7671.2919   -7591.5724    15.418338     28506.14    24.805963 
   24380    720.55682    -7671.682   -7591.3028    33.167726    28491.524    24.829222 
   24390    731.96099   -7672.7335   -7591.0821    94.857841    28477.122    24.852956 
   24400     748.3674    -7674.411   -7590.9295    154.21301    28463.078    24.872977 
   24410    741.54581   -7673.5801   -7590.8596    395.53457    28449.599    24.886219 
   24420    733.33981   -7672.6633   -7590.8581    634.89736    28437.337    24.898099 
   24430    739.35802   -7673.3807   -7590.9042    624.26335    28426.901    24.919716 
   24440    751.95884   -7674.8936   -7591.0115    585.20127    28418.304    24.952735 
   24450     750.9396   -7674.9649   -7591.1964    643.37173     28411.45    24.988643 
   24460    748.63962    -7674.969   -7591.4571    854.52877    28406.521    25.016807 
   24470    753.31231   -7675.8243   -7591.7912    1010.8534    28404.017    25.035526 
   24480    749.06695   -7675.7496     -7592.19    908.60933    28404.326    25.045112 
   24490    747.55499   -7676.0293   -7592.6384    466.80266    28407.137    25.047598 
   24500    752.04046   -7677.0229   -7593.1317   -51.276543    28411.247    25.048173 
   24510    747.46857   -7677.0391   -7593.6578   -355.34356    28415.258    25.052328 
   24520    746.24364   -7677.4449   -7594.2003    -457.2301    28418.282    25.067009 
   24530    742.59429   -7677.5791   -7594.7416   -291.54823    28420.067    25.100983 
   24540    732.81413   -7677.0059   -7595.2593    36.345048    28421.066    25.153941 
   24550    728.12863   -7676.9563   -7595.7325    226.49613    28422.128    25.216503 
   24560    740.37162    -7678.759   -7596.1695    372.73148    28423.838    25.280838 
   24570    746.04965   -7679.8202   -7596.5973    503.07957    28426.599    25.343749 
   24580    732.87977   -7678.7705   -7597.0167    366.26956    28430.692    25.402814 
   24590    720.16241   -7677.7417   -7597.4065    154.66974    28435.807    25.453534 
   24600    714.53351   -7677.4634   -7597.7561  -0.31191008    28441.374    25.495793 
   24610    714.35498    -7677.756   -7598.0686   -135.85462    28446.909    25.534364 
   24620    708.31473   -7677.3575   -7598.3439   -47.285356      28452.1    25.573241 
   24630    708.68751   -7677.6366   -7598.5814    -132.8999    28457.092    25.611885 
   24640    727.56979   -7679.9645    -7598.803    -446.7704    28461.629    25.649563 
   24650    738.65768   -7681.4477   -7599.0494   -454.66865     28464.96    25.684983 
   24660    728.74408    -7680.632   -7599.3395   -232.31644    28467.047     25.71705 
   24670    712.22132   -7679.0963   -7599.6469    -128.6349    28468.442    25.749634 
   24680    710.55468   -7679.2036   -7599.9402   -225.04206    28469.409    25.783639 
   24690    722.34836   -7680.8031    -7600.224   -347.88719    28469.723    25.817704 
   24700     730.3813   -7681.9971    -7600.522    -399.5325    28469.078    25.858048 
   24710     726.4522   -7681.8867   -7600.8499   -571.42859    28467.274    25.908876 
   24720    707.78621   -7680.1427   -7601.1881   -635.45958    28463.901    25.967103 
   24730    694.35985    -7678.951   -7601.4941    -719.2617    28458.723    26.028468 
   24740    700.81789   -7679.9365   -7601.7592   -673.42527    28451.571    26.090779 
   24750    697.11004   -7679.7586   -7601.9949   -517.89328    28442.566    26.154809 
   24760    680.38275   -7678.0812   -7602.1835   -443.78818    28432.121    26.220503 
   24770    679.63662   -7678.1269   -7602.3124   -588.70335    28420.406    26.281904 
   24780    666.07556   -7676.6595   -7602.3578   -445.62777    28407.181    26.336204 
   24790    672.96472   -7677.3871   -7602.3168   -247.70216    28392.781    26.383561 
   24800    687.30247   -7678.8606    -7602.191    -73.76912     28377.77    26.424159 
   24810     693.4509    -7679.356   -7602.0005    73.681606    28362.642    26.459036 
   24820    692.07082   -7678.9578   -7601.7563    226.18174    28347.819    26.488853 
   24830    686.82287   -7678.0701    -7601.454    466.56203    28333.755    26.514498 
   24840    693.39284   -7678.4389   -7601.0898     655.4896    28321.077    26.535647 
   24850    690.97688   -7677.7427   -7600.6632    868.03223    28310.334    26.551247 
   24860    688.92253   -7677.0327   -7600.1823    1069.2292     28302.09    26.568368 
   24870    699.74184   -7677.7008   -7599.6435    1255.3459    28296.918     26.59791 
   24880     706.0576   -7677.8299   -7599.0681    1144.6654    28295.236    26.641377 
   24890    708.71571   -7677.5508   -7598.4925    772.62921    28296.727    26.690373 
   24900    725.01516   -7678.8178   -7597.9413    522.85485    28300.435    26.732538 
   24910    733.99778   -7679.3298   -7597.4513    407.70524    28305.629    26.764644 
   24920    726.41297   -7678.0831   -7597.0507    471.26303    28312.017    26.789392 
   24930    733.95146   -7678.6085   -7596.7351    425.84248    28319.681    26.808549 
   24940    755.11264   -7680.7383   -7596.5043    325.66182     28328.51    26.824857 
   24950    767.65647   -7682.0243   -7596.3911    332.03439    28338.266    26.840262 
   24960    762.68219   -7681.4907   -7596.4124    508.42599    28348.978    26.851731 
   24970    747.23141    -7679.892   -7596.5372    729.18483    28361.121    26.857145 
   24980    743.80883   -7679.7022   -7596.7292    775.57688    28375.258    26.856342 
   24990    736.25708   -7679.0915   -7596.9609    889.45695    28391.591     26.85171 
   25000    728.87236   -7678.5232   -7597.2163    974.33096    28410.419    26.847156 
Loop time of 16226.4 on 16 procs for 20000 steps with 864 atoms

Performance: 0.106 ns/day, 225.367 hours/ns, 1.233 timesteps/s
97.5% CPU use with 16 MPI tasks x 1 OpenMP threads

MPI task timing breakdown:
Section |  min time  |  avg time  |  max time  |%varavg| %total
---------------------------------------------------------------
Pair    | 14235      | 15041      | 15703      | 343.1 | 92.69
Bond    | 0.0019138  | 0.0057895  | 0.013474   |   4.5 |  0.00
Neigh   | 0.22338    | 0.23835    | 0.26558    |   2.2 |  0.00
Comm    | 263.15     | 927.01     | 1736.4     |1367.9 |  5.71
Output  | 1.2339     | 1.3007     | 2.2931     |  22.5 |  0.01
Modify  | 229.75     | 256.67     | 291.8      | 109.9 |  1.58
Other   |            | 0.1149     |            |       |  0.00

Nlocal:        54.0000 ave          59 max          46 min
Histogram: 1 1 0 2 0 3 2 2 3 2
Nghost:        418.438 ave         441 max         398 min
Histogram: 1 1 2 4 1 2 2 1 0 2
Neighs:         0.00000 ave           0 max           0 min
Histogram: 16 0 0 0 0 0 0 0 0 0
FullNghs:      1598.12 ave        1787 max        1301 min
Histogram: 1 1 0 2 1 3 0 3 4 1

Total # of neighbors = 25570
Ave neighs/atom = 29.594907
Ave special neighs/atom = 0.0000000
Neighbor list builds = 2000
Dangerous builds = 2000
Total wall time: 5:37:18
