LAMMPS (29 Sep 2021 - Update 3)
OMP_NUM_THREADS environment is not set. Defaulting to 1 thread. (src/comm.cpp:98)
  using 1 OpenMP thread(s) per MPI task
units	metal
atom_style	full

read_data	mixed.data
Reading data file ...
  orthogonal box = (0.0000000 0.0000000 0.0000000) to (17.171819 17.292452 83.119182)
  1 by 2 by 8 MPI processor grid
  reading atoms ...
  864 atoms
Finding 1-2 1-3 1-4 neighbors ...
  special bond factors lj:    0        0        0       
  special bond factors coul:  0        0        0       
     0 = max # of 1-2 neighbors
     0 = max # of 1-3 neighbors
     0 = max # of 1-4 neighbors
     1 = max # of special neighbors
  special bonds CPU = 0.003 seconds
  read_data CPU = 0.056 seconds

pair_style	quip
pair_coeff	* * /ocean/projects/cts180021p/wuziqi/clease/mint-PD/PhaseDiagram-Clease/Liquid/GAP_potential/gap_LiKCl.xml "Potential xml_label=GAP_2021_9_27_0_1_17_37_618" 17 19 3

neighbor	0.3 bin
neigh_modify	delay 10

timestep	0.001
compute	msd all msd
thermo_style	custom step temp pe etotal press vol c_msd[4]
thermo	10
dump	1 all custom 10 xyz-mix.dump type id x y z
dump	2 all custom 10 force-mix.dump type id fx fy fz

fix     1 all nve
run     2000
Neighbor list info ...
  update every 1 steps, delay 10 steps, check yes
  max neighbors/atom: 2000, page size: 100000
  master list distance cutoff = 6.22
  ghost atom cutoff = 6.22
  binsize = 3.11, bins = 6 6 27
  1 neighbor lists, perpetual/occasional/extra = 1 0 0
  (1) pair quip, perpetual
      attributes: full, newton on
      pair build: full/bin
      stencil: full/bin/3d
      bin: standard
Per MPI rank memory allocation (min/avg/max) = 8.894 | 8.900 | 8.906 Mbytes
Step Temp PotEng TotEng Press Volume c_msd[4] 
       0            0   -7174.3834   -7174.3834   -3403.7864    24681.648            0 
      10    59.886459   -7181.0715   -7174.3911    -3591.811    24681.648 0.0004428069 
      20    152.53511   -7191.4143   -7174.3988    -3532.456    24681.648 0.0053913133 
      30    183.53475   -7194.8677   -7174.3941   -2645.2133    24681.648  0.017829876 
      40    202.66462   -7197.0001   -7174.3926   -1813.5571    24681.648  0.032805386 
      50    235.34035   -7200.6482   -7174.3956    -1646.813    24681.648   0.04588816 
      60    247.94168    -7202.052   -7174.3938   -1842.2959    24681.648   0.05765331 
      70    253.09642   -7202.6277   -7174.3944   -2064.7915    24681.648  0.069436765 
      80    250.99467   -7202.3926   -7174.3937   -2200.0016    24681.648  0.082900901 
      90    246.12852   -7201.8494   -7174.3934   -2173.7127    24681.648  0.099028065 
     100    244.92959   -7201.7179   -7174.3956   -1978.8699    24681.648   0.11746343 
     110    242.28341    -7201.419   -7174.3919   -1729.6413    24681.648   0.13557848 
     120    255.22195   -7202.8655   -7174.3951   -1848.0783    24681.648   0.15075494 
     130    256.29683   -7202.9842   -7174.3939     -2007.52    24681.648   0.16545013 
     140    255.59143   -7202.9057   -7174.3941   -2078.8051    24681.648   0.17976362 
     150    254.71653    -7202.809    -7174.395   -2143.2247    24681.648   0.19317961 
     160    251.90206   -7202.4945   -7174.3944   -2001.6951    24681.648   0.20534635 
     170    250.97219   -7202.3902   -7174.3939   -1889.6105    24681.648   0.21663825 
     180     257.3806   -7203.1055   -7174.3943   -1934.6918    24681.648    0.2288925 
     190     260.3621   -7203.4402   -7174.3964   -1958.2977    24681.648   0.24328518 
     200    252.18366   -7202.5243   -7174.3928   -1925.8316    24681.648   0.25702409 
     210    258.35994    -7203.215   -7174.3946   -1990.3907    24681.648   0.26669152 
     220    260.53492   -7203.4573   -7174.3943   -1988.9024    24681.648    0.2748492 
     230    258.23338   -7203.2005   -7174.3942   -1795.6857    24681.648   0.28332799 
     240    252.93197   -7202.6085   -7174.3936   -1566.3378    24681.648   0.29247854 
     250    254.73094   -7202.8097   -7174.3941   -1512.6013    24681.648   0.30118823 
     260    260.13921   -7203.4133   -7174.3944   -1595.4355    24681.648   0.30980823 
     270    263.33316   -7203.7692    -7174.394   -1672.2968    24681.648    0.3193726 
     280    266.81067   -7204.1584   -7174.3953   -1641.3932    24681.648   0.32972958 
     290    262.39696   -7203.6654   -7174.3946   -1516.4449    24681.648   0.34016636 
     300    261.07623   -7203.5192   -7174.3957   -1490.2694    24681.648   0.34870802 
     310    256.60645    -7203.019   -7174.3942   -1424.9004    24681.648   0.35616095 
     320    255.12221   -7202.8537   -7174.3944   -1431.1943    24681.648   0.36426417 
     330    257.21766   -7203.0875   -7174.3944   -1535.2284    24681.648   0.37294434 
     340    260.71445   -7203.4781    -7174.395   -1738.4386    24681.648   0.38207588 
     350    260.87542   -7203.4955   -7174.3944   -1787.8195    24681.648   0.39203939 
     360    259.24296   -7203.3137   -7174.3948   -1801.5109    24681.648   0.40305256 
     370     256.8045   -7203.0415   -7174.3946    -1871.197    24681.648   0.41474987 
     380    253.74937   -7202.7006   -7174.3945   -2006.2935    24681.648   0.42675018 
     390     250.3984   -7202.3262   -7174.3939   -2133.6916    24681.648    0.4387225 
     400    253.59482   -7202.6831   -7174.3942   -2227.7267    24681.648   0.44925493 
     410    258.62293   -7203.2446   -7174.3948   -2242.4151    24681.648   0.45744528 
     420    260.59152   -7203.4634   -7174.3941   -2202.0252    24681.648   0.46381779 
     430    265.56276   -7204.0186   -7174.3947   -2285.5748    24681.648   0.46928077 
     440    267.29796   -7204.2122   -7174.3947   -2340.4066    24681.648   0.47466356 
     450     263.7688   -7203.8177   -7174.3939   -2324.3833    24681.648   0.47995391 
     460    263.97331    -7203.841   -7174.3944   -2444.9636    24681.648   0.48477747 
     470    265.08715   -7203.9653   -7174.3944   -2633.9331    24681.648   0.48948207 
     480    264.24939   -7203.8716   -7174.3942   -2661.2403    24681.648   0.49464966 
     490    265.03895   -7203.9596   -7174.3941   -2483.9795    24681.648   0.50051068 
     500     268.0228   -7204.2928   -7174.3944   -2130.0039    24681.648   0.50762008 
     510    269.68559   -7204.4783   -7174.3945   -1895.8231    24681.648   0.51677182 
     520     269.3401     -7204.44   -7174.3947   -1772.5691    24681.648   0.52791571 
     530      266.526   -7204.1254    -7174.394   -1820.7728    24681.648   0.53993524 
     540    268.21801   -7204.3142   -7174.3941   -1957.9364    24681.648   0.55113406 
     550    273.27905   -7204.8799   -7174.3952   -1952.1322    24681.648   0.56047872 
     560     270.7895   -7204.6017   -7174.3947   -1784.6397    24681.648   0.56820517 
     570    267.63087   -7204.2482   -7174.3935    -1644.341    24681.648   0.57439114 
     580    274.75017   -7205.0438    -7174.395   -1642.7538    24681.648   0.57908351 
     590    278.06846    -7205.414    -7174.395   -1634.7568    24681.648   0.58273182 
     600    275.33483   -7205.1086   -7174.3946   -1546.2732    24681.648   0.58557023 
     610    272.73058   -7204.8178   -7174.3943   -1362.5514    24681.648   0.58813395 
     620     275.6395   -7205.1428   -7174.3948   -1228.8054    24681.648   0.59107932 
     630    277.82637   -7205.3871   -7174.3952    -1223.228    24681.648   0.59521422 
     640    275.21147   -7205.0945   -7174.3942   -1328.0133    24681.648   0.60059579 
     650    276.76341   -7205.2679   -7174.3945   -1587.9159    24681.648   0.60632225 
     660    280.29592   -7205.6626   -7174.3951   -1876.3308    24681.648   0.61197812 
     670    278.94874   -7205.5114   -7174.3943   -1988.9252    24681.648    0.6176124 
     680    279.62887   -7205.5876   -7174.3946    -1854.874    24681.648   0.62312175 
     690    278.35671   -7205.4465   -7174.3954     -1626.67    24681.648   0.62896185 
     700    269.37243   -7204.4429    -7174.394   -1418.2553    24681.648   0.63559784 
     710    266.45521   -7204.1181   -7174.3946   -1472.5221    24681.648   0.64215216 
     720    265.84495   -7204.0503   -7174.3949   -1709.2555    24681.648   0.64781464 
     730    263.59964   -7203.7992   -7174.3943   -1848.2285    24681.648   0.65193307 
     740    266.57701   -7204.1317   -7174.3946   -1895.4286    24681.648   0.65412735 
     750    271.76415   -7204.7106   -7174.3949   -1968.2386    24681.648   0.65547825 
     760      275.029   -7205.0755   -7174.3956   -2013.6107    24681.648   0.65726746 
     770     271.0675   -7204.6326   -7174.3946   -1846.7085    24681.648   0.65945095 
     780    271.60028    -7204.692   -7174.3946   -1756.0037    24681.648   0.66122261 
     790    276.79844    -7205.273   -7174.3957   -1802.9901    24681.648   0.66298127 
     800    272.61055    -7204.805   -7174.3949   -1872.3043    24681.648    0.6665383 
     810    266.19836   -7204.0894   -7174.3945   -1968.7863    24681.648   0.67221854 
     820    263.38752   -7203.7759   -7174.3946   -2141.6217    24681.648   0.67891951 
     830    264.77149   -7203.9298   -7174.3941   -2417.3308    24681.648   0.68520732 
     840    272.58637    -7204.803   -7174.3955   -2752.0813    24681.648   0.69025418 
     850    272.65549   -7204.8097   -7174.3946   -2928.1991    24681.648   0.69428736 
     860    273.59711   -7204.9144   -7174.3942   -2900.3005    24681.648    0.6970968 
     870    278.19824   -7205.4288   -7174.3953    -2707.162    24681.648    0.6996263 
     880    276.53864   -7205.2424   -7174.3941   -2500.9253    24681.648   0.70364771 
     890    279.23786   -7205.5442   -7174.3948   -2415.7746    24681.648   0.70924281 
     900    280.95843   -7205.7363    -7174.395    -2364.961    24681.648   0.71595523 
     910    278.43861   -7205.4551   -7174.3949   -2292.0963    24681.648   0.72276909 
     920    274.58034   -7205.0239    -7174.394   -2145.7325    24681.648    0.7279473 
     930    277.12312   -7205.3082   -7174.3947    -2157.167    24681.648   0.73037655 
     940    279.73337   -7205.5996   -7174.3949   -2169.2816    24681.648   0.73135876 
     950    279.22126   -7205.5421   -7174.3945   -2172.7349    24681.648   0.73362662 
     960    279.34211   -7205.5558   -7174.3947    -2162.325    24681.648   0.73879001 
     970    278.76831   -7205.4918   -7174.3948   -2041.5721    24681.648   0.74667297 
     980    277.67235   -7205.3697   -7174.3949   -1885.6852    24681.648   0.75580397 
     990    276.23383    -7205.209   -7174.3947   -1855.7306    24681.648   0.76364754 
    1000    276.65338   -7205.2559   -7174.3948   -1804.2694    24681.648   0.76766421 
    1010    277.15823    -7205.313   -7174.3956    -1670.983    24681.648   0.76766874 
    1020    269.42126   -7204.4494   -7174.3951   -1424.7931    24681.648   0.76610705 
    1030     260.7554   -7203.4818   -7174.3941   -1215.0065    24681.648   0.76554395 
    1040    261.30906   -7203.5441   -7174.3947   -1098.2689    24681.648   0.76665088 
    1050    265.20034   -7203.9786   -7174.3951   -1049.7855    24681.648   0.76872121 
    1060    265.37142   -7203.9979   -7174.3953     -1168.93    24681.648    0.7710414 
    1070    262.30523   -7203.6545    -7174.394   -1216.5846    24681.648   0.77312784 
    1080     269.2805   -7204.4336   -7174.3949   -1303.2806    24681.648   0.77456841 
    1090    278.21465   -7205.4311   -7174.3958   -1474.4916    24681.648   0.77578562 
    1100    279.83218   -7205.6107    -7174.395   -1575.5621    24681.648   0.77731718 
    1110    283.74367   -7206.0469   -7174.3949   -1579.9493    24681.648   0.77887111 
    1120    290.78719   -7206.8334   -7174.3957   -1573.7467    24681.648   0.78005841 
    1130    290.95381   -7206.8511   -7174.3948   -1519.3089    24681.648   0.78128493 
    1140    291.42672   -7206.9042   -7174.3951   -1587.1629    24681.648   0.78343187 
    1150    288.83961    -7206.616   -7174.3955   -1727.5352    24681.648   0.78763344 
    1160    278.98488   -7205.5156   -7174.3944   -1780.0997    24681.648   0.79353187 
    1170     274.5083   -7205.0159   -7174.3941   -1742.9948    24681.648   0.79894507 
    1180    278.08142   -7205.4157   -7174.3953   -1700.4448    24681.648   0.80276226 
    1190    278.86175    -7205.502   -7174.3946   -1575.2201    24681.648    0.8050797 
    1200    282.48118   -7205.9064   -7174.3952   -1531.0337    24681.648   0.80550341 
    1210     282.2015   -7205.8756   -7174.3956   -1582.1964    24681.648    0.8047093 
    1220    273.66019   -7204.9216   -7174.3943   -1443.9202    24681.648   0.80424724 
    1230    271.02344   -7204.6278   -7174.3947   -1294.8219    24681.648   0.80553838 
    1240    273.21828   -7204.8729    -7174.395   -1344.7406    24681.648   0.80963811 
    1250    274.53804   -7205.0205   -7174.3953   -1557.8461    24681.648   0.81626207 
    1260    273.33761   -7204.8857   -7174.3945   -1709.4029    24681.648    0.8238996 
    1270    277.03845    -7205.299   -7174.3949   -1861.8941    24681.648   0.83066888 
    1280    279.60921   -7205.5866   -7174.3958   -1776.8315    24681.648   0.83577326 
    1290     271.8553   -7204.7208   -7174.3949   -1451.3285    24681.648    0.8390946 
    1300    264.41726   -7203.8899   -7174.3937   -1174.9198    24681.648   0.84015079 
    1310    270.14381   -7204.5298   -7174.3948   -1305.4319    24681.648   0.83955817 
    1320    276.28563    -7205.216   -7174.3959   -1616.8447    24681.648    0.8394972 
    1330    269.37516    -7204.444   -7174.3948   -1792.2063    24681.648   0.84108811 
    1340    263.66565    -7203.806   -7174.3937   -1787.5686    24681.648   0.84324181 
    1350    271.75636   -7204.7105   -7174.3956   -1789.9886    24681.648   0.84491174 
    1360    274.27239   -7204.9909   -7174.3954   -1904.3466    24681.648   0.84675977 
    1370    271.14124   -7204.6406   -7174.3944   -2044.7094    24681.648   0.84884467 
    1380    273.68352    -7204.925   -7174.3952   -2173.0979    24681.648   0.85060846 
    1390    275.02452   -7205.0744    -7174.395   -2215.3954    24681.648   0.85231893 
    1400    276.25601   -7205.2118    -7174.395   -2238.0373    24681.648   0.85406463 
    1410    278.84188   -7205.4999   -7174.3947   -2167.4859    24681.648   0.85604751 
    1420    283.63171   -7206.0351   -7174.3956   -2106.7356    24681.648   0.85860197 
    1430     281.5104   -7205.7981   -7174.3952   -2039.7153    24681.648   0.86172051 
    1440    277.08643   -7205.3037   -7174.3943   -2134.4004    24681.648   0.86445233 
    1450    280.14663   -7205.6458    -7174.395   -2425.0475    24681.648   0.86616941 
    1460    284.16882   -7206.0946   -7174.3952   -2629.1536    24681.648   0.86801931 
    1470    286.02648   -7206.3014   -7174.3947   -2499.1716    24681.648   0.87115512 
    1480    288.85345   -7206.6176   -7174.3956   -2167.0023    24681.648   0.87530865 
    1490    284.31956   -7206.1114   -7174.3951   -1635.6837    24681.648   0.87953488 
    1500    278.98283   -7205.5151   -7174.3941    -1216.743    24681.648   0.88285916 
    1510    281.81212   -7205.8323   -7174.3957   -1229.4385    24681.648   0.88582692 
    1520    276.49173   -7205.2381   -7174.3951   -1562.5155    24681.648   0.89044229 
    1530    268.60167    -7204.357   -7174.3941   -1832.8137    24681.648   0.89739602 
    1540    268.44471   -7204.3404   -7174.3949   -2013.3452    24681.648   0.90578469 
    1550    268.16938   -7204.3093   -7174.3946   -2010.8653    24681.648   0.91410017 
    1560    269.46062   -7204.4535   -7174.3947   -1942.9791    24681.648   0.92102099 
    1570    272.53021   -7204.7961    -7174.395   -1895.4867    24681.648   0.92617748 
    1580    274.16463   -7204.9785   -7174.3951   -1823.6829    24681.648   0.92969488 
    1590    274.08365    -7204.969   -7174.3945   -1694.8776    24681.648   0.93183336 
    1600    276.38809   -7205.2266   -7174.3951   -1582.4042    24681.648   0.93327697 
    1610    276.47515   -7205.2358   -7174.3946    -1514.064    24681.648   0.93523754 
    1620    278.82635   -7205.4983   -7174.3948   -1527.2623    24681.648   0.93825527 
    1630    283.05477   -7205.9703   -7174.3951   -1480.4486    24681.648   0.94238563 
    1640    283.75544   -7206.0487   -7174.3953   -1428.7453    24681.648   0.94810451 
    1650    279.65577   -7205.5907   -7174.3946   -1482.0142    24681.648   0.95569667 
    1660    277.97149   -7205.4028   -7174.3947   -1644.7201    24681.648   0.96460041 
    1670    277.63235   -7205.3655   -7174.3952   -1799.5694    24681.648   0.97399532 
    1680     273.1457   -7204.8646   -7174.3948   -1807.2549    24681.648     0.982653 
    1690     269.1131   -7204.4145   -7174.3945    -1848.628    24681.648   0.98867138 
    1700    269.43844   -7204.4513    -7174.395   -2023.5742    24681.648   0.99116369 
    1710    269.78252   -7204.4896   -7174.3949   -2209.0436    24681.648    0.9917874 
    1720    270.65906   -7204.5872   -7174.3948   -2303.1156    24681.648   0.99313368 
    1730    273.04698    -7204.854   -7174.3952   -2347.4849    24681.648   0.99679692 
    1740    274.23892   -7204.9868   -7174.3951   -2237.2262    24681.648    1.0035992 
    1750    273.69441   -7204.9263   -7174.3952   -2020.2102    24681.648    1.0135583 
    1760    270.40125   -7204.5585   -7174.3949    -1788.634    24681.648    1.0251981 
    1770    270.68343   -7204.5897   -7174.3946   -1549.0244    24681.648    1.0353833 
    1780    277.90453   -7205.3964   -7174.3957    -1511.742    24681.648    1.0415834 
    1790    279.00509   -7205.5188   -7174.3954   -1597.8653    24681.648    1.0442507 
    1800    277.00732   -7205.2948   -7174.3942   -1788.7028    24681.648    1.0451598 
    1810    282.39257   -7205.8967   -7174.3954   -2040.7403    24681.648    1.0459368 
    1820    284.13814   -7206.0911   -7174.3951   -2280.9528    24681.648    1.0481335 
    1830    282.91429   -7205.9545   -7174.3949   -2430.6285    24681.648    1.0523919 
    1840     281.3318   -7205.7782   -7174.3952   -2306.2747    24681.648    1.0583276 
    1850    277.24801   -7205.3224    -7174.395   -2023.8294    24681.648    1.0646013 
    1860    275.86189   -7205.1669   -7174.3941   -1648.8281    24681.648    1.0693247 
    1870    285.01658   -7206.1898   -7174.3957   -1237.5386    24681.648    1.0720376 
    1880    287.69204   -7206.4885    -7174.396   -948.96764    24681.648    1.0743863 
    1890    280.11635   -7205.6423   -7174.3949   -885.51677    24681.648    1.0774135 
    1900    276.31656   -7205.2185    -7174.395   -989.28796    24681.648    1.0809193 
    1910      276.623   -7205.2529   -7174.3952   -1167.7604    24681.648    1.0845535 
    1920    277.67777   -7205.3704    -7174.395   -1316.9346    24681.648    1.0879417 
    1930    280.71277   -7205.7092   -7174.3953   -1469.0337    24681.648    1.0909294 
    1940    281.53928   -7205.8014   -7174.3953   -1673.5867    24681.648     1.094033 
    1950    279.58172   -7205.5827    -7174.395   -1827.7357    24681.648    1.0978665 
    1960    278.22672   -7205.4318   -7174.3952   -1824.7991    24681.648    1.1027058 
    1970    275.53555   -7205.1314    -7174.395    -1644.041    24681.648    1.1084664 
    1980    273.96064   -7204.9552   -7174.3945   -1378.9505    24681.648    1.1145371 
    1990    277.66865   -7205.3694    -7174.395   -1245.5747    24681.648    1.1207676 
    2000    280.84548   -7205.7241   -7174.3953   -1211.1794    24681.648    1.1274187 
Loop time of 1516.46 on 16 procs for 2000 steps with 864 atoms

Performance: 0.114 ns/day, 210.620 hours/ns, 1.319 timesteps/s
97.2% CPU use with 16 MPI tasks x 1 OpenMP threads

MPI task timing breakdown:
Section |  min time  |  avg time  |  max time  |%varavg| %total
---------------------------------------------------------------
Pair    | 515.78     | 963.71     | 1256       | 655.8 | 63.55
Bond    | 0.00021052 | 0.00067186 | 0.0012667  |   0.0 |  0.00
Neigh   | 0.017827   | 0.027954   | 0.041201   |   3.2 |  0.00
Comm    | 260.12     | 488.7      | 907.34     | 806.8 | 32.23
Output  | 0.18151    | 33.008     | 92.552     | 520.6 |  2.18
Modify  | 0.0096817  | 0.011407   | 0.014475   |   1.0 |  0.00
Other   |            | 31         |            |       |  2.04

Nlocal:        54.0000 ave          68 max          38 min
Histogram: 2 0 1 2 1 3 1 3 1 2
Nghost:        453.312 ave         541 max         363 min
Histogram: 1 1 1 3 2 1 4 1 1 1
Neighs:         0.00000 ave           0 max           0 min
Histogram: 16 0 0 0 0 0 0 0 0 0
FullNghs:      1935.12 ave        2876 max         990 min
Histogram: 2 0 2 1 4 1 2 1 2 1

Total # of neighbors = 30962
Ave neighs/atom = 35.835648
Ave special neighs/atom = 0.0000000
Neighbor list builds = 199
Dangerous builds = 198
unfix   1

velocity    all create 375.0 1312343 dist gaussian
fix     2 all npt temp 375.0 375.0 $(100.0*dt) aniso 0.0 1.01325 $(1000.0*dt)
fix     2 all npt temp 375.0 375.0 0.10000000000000000555 aniso 0.0 1.01325 $(1000.0*dt)
fix     2 all npt temp 375.0 375.0 0.10000000000000000555 aniso 0.0 1.01325 1
run     3000
Per MPI rank memory allocation (min/avg/max) = 8.894 | 8.901 | 8.907 Mbytes
Step Temp PotEng TotEng Press Volume c_msd[4] 
    2000          375   -7205.7241   -7163.8923   -756.65046    24681.648    1.1274187 
    2010     358.2419   -7203.8482   -7163.8857    -678.8205    24680.123    1.1296636 
    2020    343.96004   -7202.2178   -7163.8485    -586.5236    24675.819    1.1320079 
    2030    343.89896   -7202.1163   -7163.7539   -525.11233     24669.11    1.1344557 
    2040    331.16477   -7200.5307   -7163.5888   -409.59074    24660.288    1.1379554 
    2050    317.51687   -7198.7615    -7163.342   -301.62593    24649.795    1.1414429 
    2060     322.4105   -7198.9615   -7162.9962   -268.45425    24638.057    1.1434865 
    2070    330.85965   -7199.4699    -7162.562   -317.27206    24625.196    1.1443013 
    2080    335.34335   -7199.5056   -7162.0975    -434.5359    24611.004    1.1442291 
    2090    339.84958   -7199.5709   -7161.6602   -536.02691    24595.038    1.1437227 
    2100    344.60911   -7199.7211   -7161.2794   -427.31191    24576.966     1.143824 
    2110    346.37365   -7199.5901   -7160.9516   -99.194127    24557.235    1.1451807 
    2120    347.89918   -7199.4664   -7160.6577    134.46139    24537.031    1.1473107 
    2130    347.01201   -7199.0871   -7160.3774    221.69478    24517.316    1.1496067 
    2140    348.09251   -7198.9274   -7160.0972    147.75042     24498.41    1.1516243 
    2150    350.90286   -7198.9502   -7159.8065     11.59932    24480.066    1.1527104 
    2160      350.866   -7198.6426    -7159.503   -163.68099    24461.738     1.153129 
    2170    349.24993   -7198.1455   -7159.1861   -248.89556    24442.757    1.1540233 
    2180    351.30887   -7198.0399   -7158.8509   -132.28938    24422.825    1.1560736 
    2190     348.9551   -7197.4228   -7158.4964    117.29501    24402.351     1.159566 
    2200    345.33874   -7196.6468   -7158.1238    447.00541     24382.35    1.1636504 
    2210    352.12941   -7197.0109   -7157.7303    694.63552    24364.072     1.166997 
    2220    352.79791   -7196.6796   -7157.3245    723.36717    24348.422    1.1699666 
    2230     346.5264   -7195.5798   -7156.9242    665.24705    24335.591    1.1736492 
    2240    349.83804   -7195.5489   -7156.5239    522.96382     24325.36    1.1786308 
    2250    356.98002   -7195.9413   -7156.1196    187.96362    24317.105    1.1855136 
    2260    358.58144   -7195.7251   -7155.7248   -138.54471     24309.58    1.1943506 
    2270     363.3385   -7195.8772   -7155.3462   -320.08369    24301.537    1.2037769 
    2280    363.53262   -7195.5358   -7154.9832   -353.82966    24292.242    1.2124578 
    2290    363.27912   -7195.1597   -7154.6354   -356.98933    24281.511    1.2202591 
    2300    365.90133   -7195.1122   -7154.2953   -368.68649    24269.323    1.2277485 
    2310    368.90608    -7195.115   -7153.9629   -280.73209    24255.649      1.23486 
    2320    371.66001   -7195.1006   -7153.6414   -30.710211    24240.865     1.241172 
    2330    374.38747   -7195.0953   -7153.3318    306.68396    24225.916    1.2463104 
    2340    374.65419   -7194.8303   -7153.0371    631.32491    24212.094    1.2499392 
    2350    381.66177   -7195.3351   -7152.7601      779.944    24200.639    1.2520681 
    2360    379.89984   -7194.8872   -7152.5088    845.22377    24192.163    1.2543998 
    2370    367.00047   -7193.2212   -7152.2818    916.02507    24186.973    1.2583762 
    2380    372.08085   -7193.5656   -7152.0594    795.38421    24185.295    1.2631499 
    2390    385.53898   -7194.8413   -7151.8338      650.807    24186.727    1.2683399 
    2400    390.55575   -7195.1996   -7151.6325    757.02983    24190.839    1.2751288 
    2410    382.61521   -7194.1515   -7151.4702    817.05017     24197.94    1.2840414 
    2420    374.45545   -7193.1065   -7151.3354    575.56933    24208.203     1.293767 
    2430    373.78458   -7192.9005   -7151.2042    71.514565    24220.724    1.3024934 
    2440    370.88895   -7192.4391   -7151.0659   -263.24902    24233.711    1.3089511 
    2450    370.02355   -7192.1973   -7150.9206   -286.85346    24245.897     1.312758 
    2460    370.95039   -7192.1452   -7150.7651   -110.81013    24257.116    1.3147435 
    2470     378.2449   -7192.7953   -7150.6015    6.7882038    24267.964    1.3164389 
    2480    385.94791   -7193.4916   -7150.4385   -10.406395    24278.886    1.3197929 
    2490    389.72185   -7193.7657   -7150.2916    1.1486598    24289.872    1.3256065 
    2500    393.32999   -7194.0525    -7150.176    103.90212    24300.998    1.3332129 
    2510    398.08096   -7194.5129   -7150.1064    101.60672    24312.598    1.3417477 
    2520    395.91936   -7194.2549   -7150.0895    59.337419    24324.678    1.3503921 
    2530    396.56052   -7194.3597   -7150.1228   -33.148818    24337.066    1.3575888 
    2540    401.95141   -7195.0466   -7150.2083   -214.97156    24349.376    1.3626609 
    2550      396.326   -7194.5643   -7150.3536   -256.12436    24360.975    1.3661341 
    2560    380.95088   -7193.0429   -7150.5472   -200.35171    24371.671    1.3688919 
    2570    369.03455    -7191.919   -7150.7526   -208.41223    24381.624    1.3721653 
    2580    373.89185   -7192.6579   -7150.9497   -400.84368    24390.748    1.3770169 
    2590    379.25539   -7193.4485   -7151.1419   -561.42264    24398.325    1.3839142 
    2600    379.58752   -7193.6812   -7151.3376   -530.57693    24403.772    1.3923627 
    2610    384.29787   -7194.4137   -7151.5447   -517.51866    24407.109    1.4021185 
    2620    383.73602   -7194.5756   -7151.7693   -518.65171    24408.387    1.4137172 
    2630    378.74808   -7194.2563   -7152.0064    -536.7452    24407.591    1.4268921 
    2640    377.05815   -7194.3071   -7152.2457   -449.18706    24404.702     1.440477 
    2650    377.38917   -7194.5826   -7152.4843   -450.36953    24399.945    1.4532949 
    2660    374.81733   -7194.5292   -7152.7177   -397.42033    24393.398    1.4648496 
    2670    373.92652   -7194.6522   -7152.9402   -362.84362    24385.235    1.4755263 
    2680    374.20772   -7194.8911   -7153.1477   -251.80023    24375.613    1.4853432 
    2690    380.16642    -7195.756   -7153.3479   -39.166392     24364.97    1.4935243 
    2700    382.29733   -7196.1975   -7153.5517    150.49528    24354.099    1.5004335 
    2710     377.3452   -7195.8518   -7153.7584    321.45601    24343.758    1.5068889 
    2720    373.41194   -7195.6134   -7153.9588    539.50604    24334.645    1.5125948 
    2730    373.47139    -7195.808   -7154.1467    867.81343    24327.654    1.5164211 
    2740    372.67045    -7195.897    -7154.325    1076.9463    24324.019    1.5181404 
    2750    367.81367   -7195.5206   -7154.4904     1094.033    24324.574    1.5193056 
    2760    364.81599   -7195.3308    -7154.635    1109.7207    24329.517    1.5214472 
    2770    366.36257   -7195.6228   -7154.7545    1006.8307    24338.895    1.5251888 
    2780    367.20478   -7195.8161   -7154.8539     805.8351    24352.346     1.530967 
    2790     364.0873   -7195.5495    -7154.935    592.66799    24369.141    1.5377117 
    2800    364.75994   -7195.6843   -7154.9948    431.96334    24388.507    1.5425961 
    2810    367.32576   -7196.0088    -7155.033    395.19518    24409.843    1.5440904 
    2820    370.17365   -7196.3481   -7155.0546    336.89278    24432.963    1.5422183 
    2830    372.89756   -7196.6611   -7155.0638    69.962134    24457.596    1.5377346 
    2840    372.88605   -7196.6583   -7155.0623   -435.02512    24482.654    1.5327427 
    2850    366.71406   -7195.9514   -7155.0439   -958.51621    24506.177    1.5298001 
    2860    366.62073   -7195.9016   -7155.0045   -1435.9943    24526.037    1.5300099 
    2870    368.49357    -7196.049    -7154.943   -1822.6398    24540.248    1.5336087 
    2880     365.8426   -7195.6735   -7154.8632   -1902.2215    24547.286    1.5406198 
    2890    360.61555   -7194.9873   -7154.7601    -1657.661    24546.785    1.5501247 
    2900    357.91795   -7194.5466   -7154.6203   -1193.3386    24539.652    1.5602397 
    2910    353.39168   -7193.8467   -7154.4254   -816.70132    24527.618    1.5689142 
    2920    356.27717   -7193.9084   -7154.1651   -636.19977    24512.162    1.5750059 
    2930    362.81577   -7194.3084   -7153.8357   -530.22914    24494.063    1.5790944 
    2940    375.96593   -7195.3986   -7153.4591   -528.05366    24473.729     1.582471 
    2950    384.28627   -7195.9365   -7153.0688   -597.65129     24451.16    1.5869958 
    2960    386.09247   -7195.7757   -7152.7065   -543.02125    24426.173    1.5931797 
    2970    392.83942   -7196.2148   -7152.3929   -450.27683    24398.947    1.5994399 
    2980    402.34646   -7197.0285   -7152.1462    -378.1604    24369.826    1.6050476 
    2990    400.62207   -7196.6737   -7151.9837   -264.61059    24339.127    1.6113879 
    3000    387.56767   -7195.1263   -7151.8925   -18.112089    24307.342    1.6196879 
    3010    385.53976   -7194.8489   -7151.8413     319.4195    24275.437    1.6296381 
    3020    383.55765   -7194.5975   -7151.8111    673.44768    24244.722    1.6405803 
    3030    382.33948   -7194.4491   -7151.7986    910.67895    24216.542    1.6518701 
    3040     385.9031   -7194.8514   -7151.8034    918.66682    24191.806    1.6633216 
    3050    385.24934   -7194.8055   -7151.8303    847.52219    24170.597    1.6758174 
    3060    378.76761   -7194.1257   -7151.8736    831.90714    24152.694    1.6891538 
    3070    376.73784   -7193.9502   -7151.9245    783.05229    24137.974    1.7016663 
    3080    375.98319   -7193.9167   -7151.9752    942.95092    24126.358    1.7123966 
    3090    378.05157   -7194.1982    -7152.026     1127.288    24118.406    1.7214782 
    3100    382.24098   -7194.7241   -7152.0846    1098.6709    24114.753    1.7291853 
    3110    383.76808   -7194.9688   -7152.1589    935.62455    24115.351     1.735144 
    3120    381.14686   -7194.7666   -7152.2491     744.0908    24119.603    1.7392775 
    3130    379.68948   -7194.7039    -7152.349    531.32087    24126.765     1.741932 
    3140    378.35314   -7194.6592   -7152.4534    368.87185    24136.083    1.7436664 
    3150    373.70601   -7194.2415    -7152.554    93.781032    24146.875    1.7451137 
    3160    378.64657   -7194.8837   -7152.6451   -271.96046    24158.067     1.746588 
    3170    380.37689   -7195.1643   -7152.7326   -474.63524    24168.315    1.7485804 
    3180     375.4761   -7194.7086   -7152.8237    -566.4175    24176.803    1.7516865 
    3190    370.95728   -7194.2895   -7152.9086   -607.33758    24183.146    1.7567761 
    3200    370.74293   -7194.3366   -7152.9796   -649.83399     24187.14    1.7632246 
    3210    376.12141   -7194.9993   -7153.0424   -696.18795    24188.591    1.7684692 
    3220    373.79754   -7194.7982   -7153.1006    -627.1919    24187.362    1.7707988 
    3230    369.34193   -7194.3506     -7153.15   -587.70561     24183.65    1.7706429 
    3240    371.55905   -7194.6316   -7153.1836   -564.72788     24177.63    1.7704245 
    3250    376.99098   -7195.2633   -7153.2094   -582.44337    24169.365    1.7722724 
    3260    375.52865   -7195.1275   -7153.2367   -470.70145    24158.843    1.7761707 
    3270    375.95259   -7195.2048   -7153.2667   -154.97441    24146.497    1.7806558 
    3280    383.19018   -7196.0494    -7153.304    388.61782    24133.592    1.7845028 
    3290    382.44687   -7196.0204   -7153.3579    782.25621    24122.103    1.7877483 
    3300    375.29643    -7195.293   -7153.4281    871.92971     24113.52    1.7905846 
    3310    367.41656   -7194.4863   -7153.5004    697.15142    24108.208     1.792428 
    3320    358.69114   -7193.5683   -7153.5558    635.03319    24105.669    1.7930346 
    3330    355.85827   -7193.2774   -7153.5809     524.5089     24105.59    1.7921624 
    3340    357.15754    -7193.407   -7153.5655    316.70807    24107.536    1.7898723 
    3350    365.36138   -7194.2697    -7153.513    100.25423    24110.706    1.7869972 
    3360     363.6521   -7193.9907   -7153.4247    59.138102    24114.336    1.7847991 
    3370    367.21568   -7194.2617   -7153.2982    57.525952    24118.234    1.7832321 
    3380    379.12561   -7195.4141   -7153.1221    29.556215    24122.384    1.7823623 
    3390    386.17554    -7195.979   -7152.9005    5.5063495    24126.678    1.7830125 
    3400    384.70235    -7195.555   -7152.6409     97.67311    24131.064    1.7853649 
    3410    376.95864   -7194.3854   -7152.3351    301.76029    24135.918    1.7878331 
    3420    378.92703    -7194.237   -7151.9672    320.24803    24141.926    1.7884745 
    3430    380.94822   -7194.0298   -7151.5344    256.27032    24149.221    1.7879306 
    3440    384.93711   -7194.0075   -7151.0672    140.78311    24157.576    1.7878002 
    3450    388.80392   -7193.9745   -7150.6028     236.2131    24166.643    1.7893139 
    3460    389.52148    -7193.635   -7150.1833    539.70003    24176.794    1.7925558 
    3470    397.38526   -7194.1592   -7149.8303     763.8143    24189.153    1.7967383 
    3480    404.56393   -7194.6888   -7149.5591    823.32756    24204.611    1.8015616 
    3490    403.98046   -7194.4477   -7149.3831     737.1212    24223.452    1.8070233 
    3500     395.9437   -7193.4603   -7149.2922      514.679    24245.382    1.8123845 
    3510    390.17497   -7192.7843   -7149.2597     107.4803    24269.547    1.8166803 
    3520    384.38678   -7192.1414   -7149.2625   -221.52621    24294.467    1.8206741 
    3530    374.55175   -7191.0595   -7149.2777   -404.59162    24318.866     1.825594 
    3540    379.01008   -7191.5704   -7149.2912   -679.01453    24341.881     1.831489 
    3550    385.69457   -7192.3345   -7149.3097   -758.48702    24362.534    1.8398887 
    3560    378.02055   -7191.5148    -7149.346   -663.08773    24380.442    1.8525382 
    3570    369.06694   -7190.5557   -7149.3858   -530.03723    24395.939    1.8681549 
    3580    373.96557   -7191.1299   -7149.4135   -684.39255    24409.383    1.8830485 
    3590    381.45497   -7191.9883   -7149.4364   -837.41514    24420.241    1.8948451 
    3600    381.00644   -7191.9741   -7149.4722   -628.23792    24428.004    1.9025074 
    3610    378.37225   -7191.7354   -7149.5274   -284.58258    24433.366    1.9049514 
    3620    374.29162   -7191.3449   -7149.5921   -113.16279    24437.589    1.9027856 
    3630    380.79352   -7192.1436   -7149.6656   -188.29023    24441.326    1.8994476 
    3640    390.86924   -7193.3633   -7149.7612    -377.2583    24444.333    1.8988098 
    3650    394.43902   -7193.9036   -7149.9033   -324.96517    24445.973    1.9016821 
    3660    391.12291   -7193.7297   -7150.0994   -50.784331    24446.407    1.9071714 
    3670    385.02799   -7193.2917   -7150.3412    132.82048    24446.628    1.9147877 
    3680    381.95528    -7193.225   -7150.6173    89.345171    24447.337    1.9232595 
    3690    384.47292   -7193.8091   -7150.9206   -236.43907    24448.326    1.9312096 
    3700    392.49884   -7195.0393   -7151.2554   -581.36989    24448.377    1.9387858 
    3710    395.51139   -7195.7491   -7151.6292   -615.42211    24446.201    1.9468671 
    3720    389.01632   -7195.4203   -7152.0249   -280.20361    24441.648    1.9548902 
    3730    382.35056   -7195.0583   -7152.4066    51.322599    24435.887    1.9612417 
    3740    379.30737    -7195.057   -7152.7447    234.87936    24430.218    1.9665067 
    3750    380.40224    -7195.462   -7153.0275    240.65302    24425.368    1.9737574 
    3760    378.58254   -7195.4917   -7153.2602    53.629185    24421.357    1.9852215 
    3770    369.69751   -7194.6812   -7153.4409   -173.86517    24417.503    1.9994395 
    3780     364.0308    -7194.177   -7153.5688   -290.49975    24412.941    2.0124908 
    3790    366.89423   -7194.5814   -7153.6538   -291.71111     24407.18    2.0220512 
    3800    374.51913   -7195.4932    -7153.715    -327.3305    24400.142     2.028862 
    3810    379.45814   -7196.0993   -7153.7701   -402.18793    24391.662    2.0351078 
    3820    379.74183   -7196.1891   -7153.8283   -402.87135    24381.449    2.0430985 
    3830    380.64717   -7196.3536   -7153.8919   -304.43415    24369.481    2.0539195 
    3840     381.9067   -7196.5653    -7153.963   -159.59441    24356.095     2.066863 
    3850     376.4819     -7196.04   -7154.0429   -21.024337    24341.829    2.0797909 
    3860    364.59231   -7194.7892   -7154.1184    171.55055    24327.268    2.0898325 
    3870    363.47122   -7194.7194   -7154.1736     273.5721    24313.092    2.0942197 
    3880    366.18574   -7195.0522   -7154.2037    212.60335    24299.682    2.0931577 
    3890    366.14663   -7195.0549   -7154.2107  -0.51689812    24286.817    2.0901092 
    3900    369.24214   -7195.3895      -7154.2   -290.51316    24273.692    2.0878712 
    3910    364.52038   -7194.8334   -7154.1706    -223.5661    24259.338    2.0878284 
    3920    365.62055   -7194.8993   -7154.1138    95.473587    24243.939    2.0906248 
    3930    383.07131   -7196.7696   -7154.0374    255.62116    24228.579    2.0977606 
    3940    387.59496   -7197.2055   -7153.9687    476.96359    24213.994    2.1107844 
    3950    372.17584   -7195.4334   -7153.9166    635.89134    24201.021    2.1275201 
    3960    367.05186   -7194.8037   -7153.8585    585.06874    24190.276    2.1428655 
    3970    372.35753    -7195.318    -7153.781    459.34807    24181.626    2.1536797 
    3980    373.57392   -7195.3639   -7153.6912    437.74875    24174.671    2.1604496 
    3990    370.61562   -7194.9386   -7153.5959     547.6185     24169.37    2.1654219 
    4000      368.445   -7194.5913   -7153.4907    693.52012    24166.147    2.1706632 
    4010    369.93066   -7194.6346   -7153.3683    731.32777    24165.582    2.1772025 
    4020    370.49932   -7194.5576   -7153.2278    566.62553    24167.818    2.1850133 
    4030       370.95   -7194.4487   -7153.0687    440.75536    24172.357     2.193446 
    4040    372.65671   -7194.4579   -7152.8874    472.70253    24178.798    2.2017194 
    4050    381.22329   -7195.2179   -7152.6919    511.54623    24187.237    2.2091364 
    4060    379.53286   -7194.8305   -7152.4931      525.519    24197.878    2.2158226 
    4070    385.65532   -7195.3232   -7152.3027    271.61232    24210.737    2.2215777 
    4080    396.48278   -7196.3524   -7152.1242    -19.29193    24224.971    2.2278292 
    4090    389.20745   -7195.3937    -7151.977   -112.33454    24239.507    2.2368295 
    4100    377.95976    -7194.018    -7151.856   -167.40006     24253.94     2.248184 
    4110    383.09575   -7194.4739    -7151.739   -421.38204    24267.967    2.2600772 
    4120     388.8235   -7194.9978   -7151.6239   -865.75337    24280.565    2.2719959 
    4130    383.60687    -7194.314    -7151.522   -1328.8482    24289.983    2.2837016 
    4140     384.2828   -7194.3032   -7151.4358   -1510.1462    24294.412    2.2936206 
    4150    380.43284   -7193.7929    -7151.355   -1424.9563    24292.996    2.3008582 
    4160     379.0275   -7193.5558   -7151.2747   -1135.9401     24285.92    2.3046275 
    4170    382.44157   -7193.8587   -7151.1967   -744.10524    24274.206    2.3044356 
    4180    382.40882   -7193.7884   -7151.1301   -532.59672    24259.234    2.3018641 
    4190     380.9815   -7193.5767   -7151.0777   -477.52434    24241.814    2.3010243 
    4200    382.97948   -7193.7597   -7151.0378   -465.74623    24222.168     2.305811 
    4210    380.59461   -7193.4636   -7151.0077   -219.33691    24200.404    2.3166165 
    4220    372.33727   -7192.5108    -7150.976    228.90072    24177.465     2.330475 
    4230    376.95782   -7192.9831   -7150.9329    482.42778    24154.961    2.3429182 
    4240    388.18263   -7194.1933   -7150.8909    611.45491    24133.928    2.3513867 
    4250     385.4152   -7193.8657   -7150.8721    851.50315    24114.979    2.3561342 
    4260    383.15085   -7193.6232   -7150.8822    1138.5035    24099.061    2.3591319 
    4270    385.45526   -7193.9165   -7150.9184    1196.6773    24087.254    2.3633191 
    4280    389.60922   -7194.4562   -7150.9947    979.32108    24079.831    2.3704329 
    4290    385.66402   -7194.1387   -7151.1173    783.42146    24076.131    2.3804438 
    4300    385.49792   -7194.2902   -7151.2873    721.18278    24075.494    2.3907654 
    4310    388.21177   -7194.8132   -7151.5076    784.56199    24077.729     2.398674 
    4320    385.30151   -7194.7594   -7151.7784    882.21631      24083.1    2.4033927 
    4330    378.29747   -7194.2853   -7152.0856    926.34703    24092.023     2.406125 
    4340    372.66738   -7193.9734   -7152.4018    862.84765     24104.74    2.4083865 
    4350    376.82885   -7194.7543   -7152.7185    550.16861    24121.014    2.4102301 
    4360    375.29704   -7194.8913   -7153.0264    219.64595    24139.826    2.4130593 
    4370     374.3935   -7195.0827   -7153.3185   -146.39383    24159.884    2.4188985 
    4380    372.18418   -7195.1038   -7153.5861   -399.66359    24179.834    2.4277597 
    4390    379.63704   -7196.1848   -7153.8357   -678.90304    24198.617     2.437657 
    4400     384.7362   -7196.9972   -7154.0793    -746.4157    24215.183    2.4474431 
    4410    381.91951   -7196.9285   -7154.3248   -570.68559    24229.185    2.4559865 
    4420    375.55169   -7196.4552   -7154.5618   -228.70073    24241.257    2.4621454 
    4430    371.42946   -7196.2087   -7154.7752    28.744428    24252.632    2.4662812 
    4440    371.40895   -7196.3941   -7154.9629    116.18674    24264.316    2.4707751 
    4450    368.75049   -7196.2612   -7155.1265    58.353466    24276.676    2.4775967 
    4460     362.8632   -7195.7365   -7155.2585   -132.05279    24289.467    2.4866137 
    4470    365.44575   -7196.1225   -7155.3565   -321.08726    24301.995    2.4967916 
    4480    371.92204     -7196.92   -7155.4316   -410.00999    24313.527    2.5062329 
    4490     374.3954   -7197.2626   -7155.4983   -438.04019    24323.667    2.5125132 
    4500    373.71912   -7197.2522   -7155.5632   -347.07626     24332.32    2.5144219 
    4510    367.19462   -7196.5861    -7155.625   -189.58018     24339.78    2.5122674 
    4520    351.67221   -7194.8942   -7155.6646   -98.595528    24346.601    2.5070549 
    4530    348.96384    -7194.587   -7155.6595   -57.109702    24353.154    2.4995691 
    4540    363.29657    -7196.131   -7155.6048   -99.465986    24359.578    2.4919422 
    4550    368.16047   -7196.5823   -7155.5134   -155.99902     24365.74    2.4873982 
    4560    365.53834   -7196.1777   -7155.4014   -392.93788    24371.305    2.4864774 
    4570      368.192   -7196.3409   -7155.2685   -537.26184     24375.44    2.4879076 
    4580    375.34955   -7196.9865   -7155.1157    -434.8643    24377.588    2.4916878 
    4590    376.77447   -7196.9804   -7154.9506   -131.64549    24378.104    2.4980508 
    4600    375.76272   -7196.6982   -7154.7813    200.30534    24378.111    2.5052311 
    4610    369.90595   -7195.8701   -7154.6065     469.6142    24378.909     2.510466 
    4620    367.88102   -7195.4576   -7154.4199    598.54052    24381.568    2.5128395 
    4630    372.90686   -7195.8154    -7154.217    550.18532    24386.627    2.5136571 
    4640     375.8944   -7195.9345   -7154.0029     117.3857    24393.835    2.5141179 
    4650    378.13114   -7195.9653   -7153.7842   -305.43468    24401.659    2.5140234 
    4660    375.56059   -7195.4578   -7153.5634   -277.54422    24408.584    2.5132797 
    4670    386.25892   -7196.4339   -7153.3461    -162.9569    24414.553    2.5123909 
    4680    399.58049   -7197.7229   -7153.1491   -194.02428    24419.932    2.5141915 
    4690    394.28478   -7196.9847   -7153.0016   -240.92822    24424.653    2.5216302 
    4700     385.4932    -7195.903   -7152.9006    -429.2256    24428.442    2.5331032 
    4710    386.71121   -7195.9645   -7152.8263   -743.66817    24430.515     2.544123 
    4720    381.91886   -7195.3783   -7152.7747   -784.31851    24429.727    2.5529077 
    4730    372.48492   -7194.2874   -7152.7361   -495.95577    24425.884    2.5602689 
    4740    373.11812   -7194.3151   -7152.6932    -228.6787    24419.948    2.5666486 
    4750    376.09086   -7194.5914   -7152.6379    47.414302     24413.01     2.571496 
    4760    374.71239   -7194.3743   -7152.5746    227.66823    24406.117    2.5735971 
    4770    375.53179   -7194.3937   -7152.5026    208.17954    24399.961    2.5726019 
    4780     383.6722   -7195.2229   -7152.4237    -18.73477    24394.451     2.569482 
    4790    381.03368   -7194.8454   -7152.3405    -6.229838    24388.874    2.5656323 
    4800    379.80605   -7194.6191   -7152.2512    105.82809    24383.207    2.5624129 
    4810    376.10467   -7194.0927   -7152.1376    322.89885    24377.927    2.5617229 
    4820    375.52824   -7193.8777    -7151.987    446.77294    24373.809    2.5635117 
    4830    382.67123   -7194.4806    -7151.793    516.70468     24371.43    2.5680873 
    4840    387.09204   -7194.7493   -7151.5686    552.29887    24371.091    2.5767473 
    4850    386.76237   -7194.4769   -7151.3329    622.86233    24372.978    2.5890855 
    4860    379.22973   -7193.3978   -7151.0942    704.30333      24377.4    2.6024203 
    4870    377.65289    -7192.975   -7150.8473    617.76472     24384.65     2.613958 
    4880    384.95772   -7193.5343   -7150.5916    380.45237    24394.441    2.6231347 
    4890    380.92854   -7192.8343   -7150.3411    334.58862    24405.997    2.6296758 
    4900    379.09126   -7192.3903   -7150.1021    391.52106    24419.101    2.6316553 
    4910    392.05464   -7193.6056   -7149.8713    298.06915    24433.932    2.6285972 
    4920    404.86202   -7194.8334   -7149.6705    178.77927    24450.203    2.6242574 
    4930    401.20673   -7194.2889   -7149.5337    149.38677    24467.475     2.623589 
    4940    391.55154   -7193.1362   -7149.4581    192.55756    24485.663    2.6282673 
    4950    397.07375   -7193.7224   -7149.4282   -22.514201     24504.82    2.6374009 
    4960    400.80566   -7194.1538   -7149.4433   -519.60157    24524.074    2.6499119 
    4970    396.52225   -7193.7448   -7149.5121   -917.12972    24541.551    2.6639233 
    4980     396.8736   -7193.9068    -7149.635   -1149.5991    24555.619    2.6764087 
    4990    399.88704   -7194.4285   -7149.8205   -1255.2041    24565.248    2.6859087 
    5000    390.76946   -7193.6585   -7150.0676   -1091.4268    24570.017    2.6935365 
Loop time of 1667.36 on 16 procs for 3000 steps with 864 atoms

Performance: 0.155 ns/day, 154.385 hours/ns, 1.799 timesteps/s
96.9% CPU use with 16 MPI tasks x 1 OpenMP threads

MPI task timing breakdown:
Section |  min time  |  avg time  |  max time  |%varavg| %total
---------------------------------------------------------------
Pair    | 999.91     | 1345.3     | 1643.1     | 498.9 | 80.69
Bond    | 0.00020623 | 0.0005051  | 0.0010312  |   0.0 |  0.00
Neigh   | 0.029064   | 0.040907   | 0.056216   |   3.3 |  0.00
Comm    | 14.975     | 221.81     | 652.19     |1145.4 | 13.30
Output  | 0.3126     | 0.31613    | 0.36735    |   2.4 |  0.02
Modify  | 0.55641    | 99.87      | 207.94     | 859.5 |  5.99
Other   |            | 0.01282    |            |       |  0.00

Nlocal:        54.0000 ave          68 max          43 min
Histogram: 2 1 2 1 4 1 3 1 0 1
Nghost:        442.750 ave         504 max         379 min
Histogram: 2 0 2 2 2 1 2 2 2 1
Neighs:         0.00000 ave           0 max           0 min
Histogram: 16 0 0 0 0 0 0 0 0 0
FullNghs:      1920.12 ave        2796 max        1235 min
Histogram: 2 1 2 2 3 1 2 2 0 1

Total # of neighbors = 30722
Ave neighs/atom = 35.557870
Ave special neighs/atom = 0.0000000
Neighbor list builds = 300
Dangerous builds = 300
unfix   2

fix     3 all npt temp 375.0 375.0 $(100.0*dt) aniso 1.01325 1.01325 $(1000.0*dt)
fix     3 all npt temp 375.0 375.0 0.10000000000000000555 aniso 1.01325 1.01325 $(1000.0*dt)
fix     3 all npt temp 375.0 375.0 0.10000000000000000555 aniso 1.01325 1.01325 1
run     20000
Per MPI rank memory allocation (min/avg/max) = 8.895 | 8.901 | 8.907 Mbytes
Step Temp PotEng TotEng Press Volume c_msd[4] 
    5000    390.76946   -7193.6585   -7150.0676   -1091.4268    24570.017    2.6935365 
    5010    385.38153   -7193.0731   -7150.0832   -931.30679    24567.948    2.6977304 
    5020    389.49491   -7193.5785   -7150.1298   -934.83213    24562.064    2.7005828 
    5030    386.64857   -7193.3412     -7150.21    -1016.353    24552.368    2.7053259 
    5040     379.4003   -7192.6427     -7150.32   -1063.9718    24538.585     2.713582 
    5050    376.76418   -7192.4775   -7150.4489   -1111.6493    24520.503    2.7242756 
    5060    373.81088   -7192.2898   -7150.5907   -1008.3736    24497.979    2.7358863 
    5070    371.16635   -7192.1361   -7150.7319   -669.82475    24471.484    2.7456303 
    5080    384.59361   -7193.7779   -7150.8759   -304.20386    24442.305    2.7514867 
    5090    393.45436   -7194.9373   -7151.0469    89.393848    24411.926     2.754855 
    5100    388.33972   -7194.5812   -7151.2614    489.98416     24381.92    2.7580682 
    5110    382.14552   -7194.1428   -7151.5139    700.69584     24353.82    2.7615564 
    5120    379.71457   -7194.1547   -7151.7969    708.98155    24328.482    2.7644994 
    5130    378.60758    -7194.343   -7152.1088    639.09463    24305.954     2.766719 
    5140    373.43259    -7194.092    -7152.435    633.90332    24286.006    2.7689805 
    5150    367.74776   -7193.7701   -7152.7473    550.25234    24268.565    2.7720581 
    5160    371.37627   -7194.4588   -7153.0313     329.0126    24253.271    2.7759464 
    5170    379.14832   -7195.5893   -7153.2947    33.193764    24239.255    2.7801027 
    5180    380.04326   -7195.9415   -7153.5471   -130.65554    24225.431    2.7840136 
    5190    371.01884   -7195.1641   -7153.7764   -174.62141     24211.15    2.7865975 
    5200    370.11871   -7195.2545   -7153.9672   -230.88484    24196.196    2.7865621 
    5210    378.39432    -7196.333   -7154.1225   -255.05231    24180.382    2.7838019 
    5220    382.70112   -7196.9492   -7154.2583   -134.41975    24163.636    2.7804921 
    5230    375.23488   -7196.2342   -7154.3762     262.9794    24146.478    2.7789706 
    5240    367.81594   -7195.4974    -7154.467    601.12538    24130.342    2.7784614 
    5250    367.21872   -7195.4909   -7154.5271    633.12816    24116.476    2.7779882 
    5260    378.08396   -7196.7446   -7154.5688    412.87883    24104.994    2.7773686 
    5270    386.05286   -7197.6778    -7154.613    414.99546    24095.188    2.7772125 
    5280    383.56479    -7197.458   -7154.6707     773.1976    24087.117    2.7787755 
    5290    388.11635   -7198.0406   -7154.7457     859.1052    24081.938    2.7824461 
    5300     392.1087   -7198.5859   -7154.8456    758.32816    24080.039    2.7882474 
    5310    387.40284   -7198.1882   -7154.9728    778.18562    24081.138    2.7953419 
    5320    385.77501   -7198.1535   -7155.1197    869.72454    24085.285    2.8017272 
    5330    383.10203   -7198.0156     -7155.28    1101.2972    24092.879    2.8059749 
    5340    383.26249   -7198.2051   -7155.4516     1268.206    24104.764    2.8076074 
    5350    387.90288   -7198.9126   -7155.6414    1179.9459    24121.525    2.8080309 
    5360    374.99932   -7197.6756   -7155.8439    1134.3707    24142.969    2.8100995 
    5370    358.85765   -7196.0613   -7156.0301    974.61366    24168.847    2.8150639 
    5380    356.99923   -7195.9964   -7156.1726    733.84555    24198.591    2.8220477 
    5390    368.75625   -7197.4105   -7156.2751    425.32398    24231.257    2.8295175 
    5400    370.34227   -7197.6638   -7156.3515    267.30407    24265.735    2.8372161 
    5410    367.59188   -7197.4156   -7156.4102    80.699689    24301.298    2.8445272 
    5420    371.98508   -7197.9453   -7156.4498   -151.62675    24337.173    2.8501296 
    5430    373.64545   -7198.1572   -7156.4765   -290.96947    24372.454     2.854126 
    5440    358.73422   -7196.5026   -7156.4852   -96.471667    24406.648    2.8573825 
    5450    352.17649   -7195.7457   -7156.4599    172.57662    24440.403    2.8599576 
    5460    363.60773    -7196.952    -7156.391    60.725819    24474.604    2.8625076 
    5470    367.60451   -7197.2958   -7156.2889   -240.15994    24508.868    2.8656642 
    5480    363.17073   -7196.6769   -7156.1647   -568.47531    24542.049    2.8687547 
    5490    365.97279   -7196.8374   -7156.0126    -970.9321    24572.772    2.8712118 
    5500    371.03472   -7197.2215    -7155.832   -1226.1157    24599.501    2.8730436 
    5510    366.06902   -7196.4653   -7155.6298   -1416.6944    24621.157    2.8737943 
    5520    367.99866   -7196.4563   -7155.4055   -1598.7016    24636.965    2.8716973 
    5530    375.63166   -7197.0611   -7155.1589   -1662.2724    24646.235    2.8663386 
    5540    368.40195   -7196.0001   -7154.9043   -1462.8951    24648.788    2.8592689 
    5550    362.33891   -7195.0622   -7154.6427   -1062.2451    24645.455    2.8513741 
    5560    370.72792   -7195.7162   -7154.3609   -659.62003    24637.823    2.8436531 
    5570    378.28871    -7196.266   -7154.0673   -177.24024     24627.62    2.8384576 
    5580     378.6022   -7196.0179   -7153.7843    236.85597    24616.748    2.8369592 
    5590    380.76336   -7195.9992   -7153.5245    539.50967    24606.886    2.8369335 
    5600    385.49883   -7196.3023   -7153.2993    625.14189    24599.207    2.8354836 
    5610    381.83206    -7195.714     -7153.12    679.78558    24594.114    2.8317856 
    5620     375.2323   -7194.8369   -7152.9792    749.77558    24591.815    2.8267376 
    5630    377.75114   -7194.9992   -7152.8605     594.2699    24592.485    2.8222971 
    5640     386.0748   -7195.8368   -7152.7695     358.8013    24595.537    2.8200763 
    5650    385.69694   -7195.7422   -7152.7171    214.57879    24600.045    2.8206938 
    5660    384.34127   -7195.5716   -7152.6978    22.496974     24605.36    2.8234468 
    5670    389.43913   -7196.1473   -7152.7047   -279.79738    24610.682     2.828003 
    5680    387.49837   -7195.9617   -7152.7357   -474.64639    24614.873    2.8345293 
    5690    386.07767   -7195.8542   -7152.7867   -466.12126    24617.189     2.842667 
    5700    382.94335   -7195.5645   -7152.8466   -407.57266    24617.631     2.852364 
    5710    382.14319   -7195.5385   -7152.9098    -376.8877    24616.418    2.8620553 
    5720    383.26934   -7195.7319   -7152.9776   -320.30271    24613.721    2.8700047 
    5730    379.28096   -7195.3641   -7153.0548    -280.9439     24609.77    2.8754463 
    5740    375.59283   -7195.0345   -7153.1366   -319.33443    24604.699    2.8772506 
    5750    369.22021   -7194.3982   -7153.2111   -267.56629    24598.454    2.8753715 
    5760    367.66774   -7194.2842   -7153.2703   -229.68768    24591.206    2.8709463 
    5770    374.41812   -7195.0843   -7153.3174   -316.81641    24583.085    2.8665831 
    5780    374.49772   -7195.1373   -7153.3615   -368.82804    24573.811    2.8649892 
    5790    369.56554   -7194.6259   -7153.4003   -320.13814    24563.213    2.8656778 
    5800    370.34698   -7194.7425   -7153.4297   -354.52998    24551.444    2.8666376 
    5810    369.88504    -7194.706   -7153.4447   -426.30731    24538.429    2.8670516 
    5820    382.56452   -7196.1304   -7153.4547   -602.68108    24523.824    2.8674608 
    5830    393.56042   -7197.3854   -7153.4831   -409.56409    24507.173    2.8702695 
    5840     390.2988   -7197.0898   -7153.5514    11.756486    24489.225    2.8769871 
    5850    378.35443   -7195.8568   -7153.6508    382.87312     24471.57    2.8862596 
    5860    370.75546   -7195.1168   -7153.7585    508.84914    24455.614    2.8944385 
    5870     367.1097     -7194.81   -7153.8584    471.15714    24441.877    2.8980621 
    5880    364.21159   -7194.5717   -7153.9433     393.2175    24430.224    2.8960559 
    5890    363.76805   -7194.5871   -7154.0082    152.50516    24420.263    2.8904025 
    5900    368.08175   -7195.1109   -7154.0508   -151.95999    24411.031    2.8850796 
    5910    370.58674   -7195.4158   -7154.0763   -124.31087    24401.471    2.8835153 
    5920    375.36391   -7195.9672   -7154.0948    192.10466    24391.675    2.8865875 
    5930    377.87699   -7196.2679   -7154.1152    563.99608    24382.825    2.8933045 
    5940    368.69128   -7195.2687   -7154.1407    819.44141     24376.32    2.9008197 
    5950    361.88074   -7194.5267   -7154.1584    841.94674    24373.091    2.9049865 
    5960    368.19934   -7195.2298   -7154.1566    702.37344    24373.196    2.9044715 
    5970     372.2327   -7195.6619   -7154.1388    612.70025    24376.109      2.90202 
    5980    371.30916   -7195.5303   -7154.1103     502.0159    24381.402    2.9018553 
    5990    375.57497    -7195.964   -7154.0681    326.13682    24388.577    2.9068169 
    6000    380.72572   -7196.4846   -7154.0141    167.91858    24396.918    2.9157978 
    6010    382.10392   -7196.5838   -7153.9595    65.216201    24405.806    2.9243775 
    6020    374.91447   -7195.7276   -7153.9053   -21.205284    24414.836    2.9289069 
    6030    375.29837   -7195.7074   -7153.8423   -229.44317    24423.607      2.92828 
    6040    388.01687   -7197.0577   -7153.7738   -496.53749    24431.302    2.9245534 
    6050    389.94379    -7197.223   -7153.7242   -435.65496    24437.027    2.9211787 
    6060     378.0506   -7195.8758   -7153.7037   -288.94124     24440.96    2.9192915 
    6070     367.5564   -7194.6912   -7153.6897    -328.6451    24443.621    2.9186851 
    6080    371.25226   -7195.0773   -7153.6635   -363.74565    24444.953    2.9194674 
    6090     376.1472    -7195.587   -7153.6272   -317.75063    24444.837    2.9213348 
    6100    371.17988   -7194.9931   -7153.5874   -90.293159    24443.542    2.9233328 
    6110     365.0033   -7194.2512   -7153.5345   -15.126815     24441.86    2.9251175 
    6120    366.77993   -7194.3727   -7153.4578   -51.576871    24440.125    2.9266722 
    6130    370.65996   -7194.7022   -7153.3545   -13.674178    24438.264    2.9276734 
    6140    379.20009   -7195.5333    -7153.233    2.0992639    24436.379     2.927328 
    6150    384.43626   -7195.9916   -7153.1071    54.123553    24434.553    2.9256319 
    6160    385.72949    -7196.024   -7152.9953    134.91311    24432.984    2.9223315 
    6170    383.22223   -7195.6492   -7152.9002    183.62304    24431.981    2.9177111 
    6180    383.00001   -7195.5456   -7152.8214    173.50845    24431.714     2.913063 
    6190    377.15235   -7194.8267   -7152.7548    239.55365    24432.191    2.9097285 
    6200    372.34999   -7194.2287   -7152.6925    209.30442    24433.591    2.9087932 
    6210    377.10838   -7194.6917   -7152.6247    73.383604    24435.784    2.9099894 
    6220    383.43735   -7195.3295   -7152.5565    -40.32859    24438.276    2.9126084 
    6230    390.38331   -7196.0517   -7152.5039   -309.46704    24440.522    2.9159699 
    6240    391.46573   -7196.1492   -7152.4806   -622.03674    24441.486    2.9192463 
    6250    384.66011   -7195.4019   -7152.4925   -822.68708    24440.013    2.9211095 
    6260    381.67635   -7195.1102   -7152.5336   -871.35361    24435.367    2.9196442 
    6270    377.85338   -7194.7443   -7152.5942      -735.18    24427.385    2.9150405 
    6280     373.0567   -7194.2811   -7152.6661   -520.90583    24416.612    2.9089262 
    6290    371.47679   -7194.1768    -7152.738   -310.80095    24403.917    2.9022231 
    6300    381.31464   -7195.3472    -7152.811    4.6150631    24390.208    2.8949377 
    6310     391.8218   -7196.6142   -7152.9059      490.071    24376.766    2.8877416 
    6320    386.42855    -7196.144   -7153.0373    1028.8823    24365.497    2.8820875 
    6330    390.11003   -7196.7304   -7153.2131    1003.4946    24358.239    2.8783636 
    6340      394.683   -7197.4732   -7153.4457    834.62535    24355.004    2.8777101 
    6350    384.25872    -7196.599   -7153.7343    926.54305    24355.207    2.8811983 
    6360    377.81544    -7196.202   -7154.0561    1003.4051    24359.052    2.8872899 
    6370    375.09954   -7196.2331   -7154.3902    962.14025    24366.782    2.8938625 
    6380    370.00522   -7195.9901   -7154.7155    722.63769    24378.155    2.8998582 
    6390    367.10217   -7195.9645   -7155.0137    320.95816     24392.23    2.9047709 
    6400    363.52741   -7195.8248   -7155.2728   -112.23606    24407.424    2.9082593 
    6410    357.91743    -7195.409   -7155.4827    -338.7316    24422.102    2.9101637 
    6420    356.93436   -7195.4554   -7155.6389   -545.59575    24435.288    2.9108585 
    6430    362.70878   -7196.2096   -7155.7489   -753.69163    24446.195    2.9114389 
    6440    361.90956   -7196.1947   -7155.8232   -779.19842    24454.075    2.9129072 
    6450     351.8961   -7195.1142   -7155.8596   -610.17169    24458.867    2.9153801 
    6460    353.03885   -7195.2312   -7155.8492   -513.28862    24461.172     2.918162 
    6470    366.61814   -7196.6942   -7155.7974   -528.48151    24461.343    2.9207755 
    6480    371.17948   -7197.1313   -7155.7257    -393.3129    24459.457    2.9233002 
    6490    370.34765   -7196.9602   -7155.6473   -199.56847    24456.062    2.9251376 
    6500    372.61016   -7197.1265   -7155.5613   -220.98356    24451.827    2.9257961 
    6510    373.61069   -7197.1459    -7155.469   -390.47236    24446.693    2.9258468 
    6520     376.4825    -7197.375   -7155.3778   -519.94282    24440.071    2.9257494 
    6530    375.97011   -7197.2298   -7155.2898   -338.82662    24431.562    2.9244192 
    6540    376.40077   -7197.1952   -7155.2071     36.66254    24421.856    2.9210238 
    6550    373.35134    -7196.774   -7155.1261    369.38805    24412.382    2.9174245 
    6560     375.1098   -7196.8898   -7155.0458    601.89708    24404.427    2.9159232 
    6570    379.05584   -7197.2487   -7154.9645    773.50678    24398.903    2.9183416 
    6580    381.04371   -7197.3966   -7154.8906    758.46491    24396.421    2.9254146 
    6590    377.90093    -7196.983   -7154.8276    565.98622    24396.912    2.9352621 
    6600    375.72398    -7196.683   -7154.7704    260.74157    24399.616    2.9435949 
    6610     377.4583   -7196.8168   -7154.7108   -72.140918    24403.337    2.9475355 
    6620    377.91252   -7196.8026   -7154.6459   -168.21095    24406.847    2.9485185 
    6630    380.09717   -7196.9797   -7154.5793   -92.420146    24409.731    2.9497275 
    6640    381.41754   -7197.0624   -7154.5147    27.407031    24412.243    2.9531528 
    6650    374.90498   -7196.2754   -7154.4542     109.9232    24414.822    2.9587841 
    6660    364.61586   -7195.0555   -7154.3821    122.82912    24417.796    2.9645537 
    6670    363.12671   -7194.7821   -7154.2748   -83.099027    24421.144    2.9675603 
    6680    359.29936   -7194.1868   -7154.1064   -281.41922     24424.15    2.9664766 
    6690     362.5275   -7194.2997   -7153.8592   -370.50184    24426.053    2.9626714 
    6700    373.84817   -7195.2217   -7153.5184   -208.17216     24426.57    2.9592929 
    6710    384.29281   -7195.9676   -7153.0992    114.29178    24426.321    2.9582531 
    6720    391.40842   -7196.3072    -7152.645    420.03348    24426.537    2.9592698 
    6730    394.10233   -7196.1683   -7152.2056    542.59134    24428.364    2.9615419 
    6740    396.15675   -7196.0093   -7151.8174    435.95596    24432.268    2.9639302 
    6750    400.33578   -7196.1537   -7151.4956    262.49947     24437.88    2.9658649 
    6760    402.99371   -7196.2061   -7151.2515    238.82066    24444.587    2.9677965 
    6770    398.01576   -7195.4879   -7151.0887    476.13827    24452.335     2.969889 
    6780    391.53293   -7194.6703   -7150.9942    650.55761    24461.949    2.9715782 
    6790    390.01434   -7194.4532   -7150.9465    511.73409    24474.027    2.9727498 
    6800    391.45522   -7194.6043   -7150.9369    382.55397    24488.138    2.9744175 
    6810    388.21016   -7194.2677   -7150.9623    434.12794    24503.815    2.9773657 
    6820    389.62065   -7194.4839   -7151.0211    512.66629    24521.208    2.9820609 
    6830    393.97257   -7195.0621   -7151.1139    421.78083     24540.57    2.9899235 
    6840     397.7635   -7195.6208   -7151.2497    168.89693    24561.551     3.001485 
    6850    394.65212   -7195.4577   -7151.4337    -163.0524    24583.134    3.0146071 
    6860    380.70757    -7194.119   -7151.6505   -308.33875    24604.125    3.0264816 
    6870     374.0686   -7193.5972   -7151.8693   -609.70433    24623.751    3.0352876 
    6880    381.13376   -7194.6024   -7152.0864   -812.86191    24640.884     3.040077 
    6890    376.18417   -7194.2686   -7152.3047   -583.66112    24654.864    3.0406885 
    6900    371.69336   -7193.9808   -7152.5178    -426.7531    24666.415    3.0373248 
    6910    374.35689   -7194.4759   -7152.7159   -531.81634    24676.129    3.0324449 
    6920    380.63954   -7195.3678   -7152.9068   -797.63998    24683.597     3.029476 
    6930    377.15679   -7195.1688   -7153.0964   -913.93225    24687.857    3.0302748 
    6940    371.69868   -7194.7357   -7153.2722   -878.14552     24688.46    3.0336489 
    6950     386.0658   -7196.5049   -7153.4387    -1082.113    24685.378    3.0371625 
    6960    395.51179   -7197.7422   -7153.6222   -1302.8735      24677.9    3.0390975 
    6970     387.3854   -7197.0463   -7153.8329   -1400.8802    24665.178    3.0380418 
    6980    380.55429   -7196.5017   -7154.0503   -1304.6032    24646.845    3.0335637 
    6990    378.14092   -7196.4367   -7154.2545   -910.49365     24623.36    3.0273058 
    7000    372.60388   -7195.9964   -7154.4319   -576.60257    24596.199    3.0209306 
    7010    368.30778   -7195.6611   -7154.5758   -334.90529     24566.73    3.0142065 
    7020    368.44469   -7195.7838   -7154.6832    15.212913    24536.021    3.0071501 
    7030    374.24186   -7196.5086   -7154.7613    384.28908    24505.465    3.0011901 
    7040    378.02802   -7196.9933   -7154.8237    599.53543    24476.477    2.9972399 
    7050      380.169   -7197.2934    -7154.885    663.79646    24449.937    2.9959965 
    7060    378.26951   -7197.1452   -7154.9487    578.00425     24426.08    2.9981737 
    7070    379.27198   -7197.3228   -7155.0144     513.7438    24404.604    3.0022294 
    7080    380.43899   -7197.5202   -7155.0817    379.96114    24385.196    3.0056066 
    7090      379.784   -7197.5173   -7155.1518    188.47375    24367.327    3.0062948 
    7100    381.98294   -7197.8414   -7155.2306    93.053314    24350.291    3.0037598 
    7110    372.25813   -7196.8385   -7155.3125    87.817344    24333.703    3.0001276 
    7120    370.59796   -7196.7273   -7155.3866    87.176221    24317.526    2.9977498 
    7130    376.41619   -7197.4404   -7155.4506    140.84703    24301.759    2.9982268 
    7140    368.11146   -7196.5656   -7155.5022    202.31714    24286.587    3.0008554 
    7150    366.93499   -7196.4711   -7155.5389    77.497814    24272.196    3.0016023 
    7160    368.79723   -7196.6981   -7155.5582   -11.217531     24258.17    2.9987473 
    7170    369.78216   -7196.8115   -7155.5618    77.238888    24244.194    2.9938224 
    7180    367.94679   -7196.5984   -7155.5534    380.37761    24230.644    2.9889635 
    7190    356.14745    -7195.249   -7155.5202    743.12785    24218.645     2.984892 
    7200    366.34241   -7196.3232   -7155.4571    932.61575    24209.519    2.9803981 
    7210    383.69184   -7198.1778   -7155.3764    1038.2195    24204.057    2.9767778 
    7220    385.25127   -7198.2884    -7155.313    1135.7867    24202.667    2.9763753 
    7230    371.20734   -7196.6803   -7155.2716    1201.4752    24205.725    2.9788994 
    7240    372.43686   -7196.7778   -7155.2319    929.28292    24213.354    2.9817325 
    7250    384.11756   -7198.0386   -7155.1897    588.07323    24224.618    2.9841166 
    7260     379.5366   -7197.4943   -7155.1564    359.71037    24238.232    2.9878691 
    7270    375.52746   -7197.0211   -7155.1304    11.244293    24253.213      2.99334 
    7280     375.0461   -7196.9325   -7155.0956   -396.37608    24268.223    2.9997622 
    7290    374.95798   -7196.8798   -7155.0527   -561.16399    24281.744    3.0064494 
    7300    368.68499   -7196.1259   -7154.9986   -563.62957    24293.085    3.0126766 
    7310    366.25178   -7195.7802   -7154.9243   -647.90258    24302.158      3.01745 
    7320    370.30874   -7196.1292   -7154.8207   -884.61205    24308.606    3.0205938 
    7330    369.14569   -7195.8603   -7154.6815   -1119.1904    24311.564    3.0232412 
    7340    364.65156   -7195.1756   -7154.4981    -1118.285    24310.163    3.0262071 
    7350    370.33643   -7195.5669   -7154.2553   -798.73593    24304.422    3.0298149 
    7360    377.26028   -7196.0263   -7153.9424   -234.17495    24295.619    3.0346625 
    7370    377.69256   -7195.7026   -7153.5704    407.26522    24285.931    3.0404733 
    7380     381.8901   -7195.7609   -7153.1605    1016.7912    24277.874    3.0462725 
    7390    382.67322   -7195.4269   -7152.7391    1320.0253    24273.749    3.0523892 
    7400     389.2826    -7195.764   -7152.3389    1176.6393    24274.704    3.0590934 
    7410    399.55979   -7196.5563   -7151.9848     873.7541    24280.245    3.0666226 
    7420    395.61734   -7195.8361   -7151.7044    709.58876     24289.28    3.0753986 
    7430    387.16567   -7194.6871   -7151.4982    592.03587    24301.129    3.0845404 
    7440    382.80227   -7194.0407   -7151.3385    558.26751     24315.36     3.093428 
    7450    387.66911   -7194.4552   -7151.2101    466.79869    24331.774    3.1020972 
    7460    388.91658   -7194.5009   -7151.1167    403.33804    24350.075    3.1100695 
    7470    382.74714   -7193.7546   -7151.0586    292.99057    24369.982    3.1160112 
    7480    386.47685   -7194.1392   -7151.0271    218.39912    24391.064    3.1193588 
    7490    391.49585   -7194.6928   -7151.0208    338.89026    24413.102    3.1203984 
    7500    399.14303   -7195.5798   -7151.0548    453.58717    24436.524    3.1195349 
    7510    399.07973   -7195.6624   -7151.1444    294.00091    24461.656    3.1187162 
    7520    383.20459   -7194.0224   -7151.2753    69.545746    24487.982    3.1199306 
    7530    385.50122   -7194.4257   -7151.4225   -388.18325    24514.512    3.1225978 
    7540    399.38827   -7196.1438   -7151.5914   -953.68661     24539.44    3.1259317 
    7550    398.95771   -7196.3136   -7151.8093     -1235.33    24560.645    3.1299479 
    7560    388.58312   -7195.4178   -7152.0708     -1448.14    24576.883    3.1341355 
    7570    380.55541   -7194.7982   -7152.3467   -1530.8943    24587.331    3.1363953 
    7580    378.76517   -7194.8714   -7152.6196   -1457.9985    24591.624    3.1361768 
    7590    377.45668   -7194.9874   -7152.8815     -1202.52    24590.089    3.1356575 
    7600    375.58029   -7195.0191   -7153.1225   -1099.0655    24583.641    3.1360911 
    7610    373.98955     -7195.06   -7153.3409   -1273.7232    24572.661    3.1377195 
    7620    365.87842   -7194.3423    -7153.528   -1389.7115     24556.56    3.1404845 
    7630    366.77352   -7194.5941   -7153.6799   -1306.7484    24534.913    3.1431764 
    7640    371.80777   -7195.2762   -7153.8005   -1096.3713    24508.047    3.1448956 
    7650     376.3348   -7195.8816   -7153.9009    -716.7514    24476.848    3.1451045 
    7660    375.89028   -7195.9147   -7153.9836    -150.9721     24442.88    3.1435313 
    7670     378.1797   -7196.2362   -7154.0497    411.35548    24408.338    3.1401874 
    7680    384.52177   -7197.0001   -7154.1062     752.7537    24375.417    3.1362295 
    7690    388.08942   -7197.4623   -7154.1703     971.4206    24345.534    3.1339406 
    7700    386.81127      -7197.4   -7154.2507    1073.3708    24319.557    3.1351498 
    7710    387.47513   -7197.5769   -7154.3535    925.27186    24297.807    3.1397603 
    7720    386.27824     -7197.57   -7154.4801    708.88164    24279.756    3.1463206 
    7730    379.70856   -7196.9815   -7154.6244    442.23948    24264.526    3.1529644 
    7740    371.73265   -7196.2337   -7154.7663    271.56268    24251.106    3.1577431 
    7750    371.50789    -7196.334   -7154.8918    220.06237    24238.824    3.1592295 
    7760    373.18604    -7196.628   -7154.9986    215.92841    24227.466    3.1577709 
    7770    376.22018   -7197.0611   -7155.0932    158.10143    24216.966    3.1549564 
    7780    381.93642   -7197.7913   -7155.1857    55.569879    24207.095    3.1527297 
    7790    384.08944   -7198.1345   -7155.2888    133.02446    24197.539    3.1517743 
    7800    381.00844   -7197.9085   -7155.4064    291.60007    24188.543    3.1515889 
    7810    378.48294   -7197.7559   -7155.5355    383.37409    24180.682    3.1510273 
    7820    378.97515   -7197.9451   -7155.6698    486.06168    24174.367    3.1496004 
    7830    380.09079   -7198.2125   -7155.8128    555.85635    24169.959    3.1481201 
    7840    376.20445    -7197.924   -7155.9578    429.03379    24167.677    3.1473883 
    7850    380.67636   -7198.5702   -7156.1052    100.56621    24167.012    3.1477989 
    7860    375.28755   -7198.1157   -7156.2518     -156.824    24166.757     3.149266 
    7870    368.78933   -7197.5277   -7156.3887   -238.04602    24165.944    3.1501644 
    7880    371.19866   -7197.9197    -7156.512   -160.64582    24164.253    3.1503802 
    7890    365.61297    -7197.405   -7156.6203    48.280442    24161.975    3.1529399 
    7900    360.52295   -7196.9218   -7156.7049    335.71825    24159.927    3.1585217 
    7910    363.31494   -7197.2885   -7156.7602    561.06259    24159.182    3.1642906 
    7920    363.95193   -7197.3856   -7156.7863    788.87872    24160.656    3.1666505 
    7930    364.84185   -7197.4863   -7156.7877    836.35979    24165.137    3.1634651 
    7940    360.63236   -7196.9935   -7156.7644    783.60817    24172.838    3.1562397 
    7950    354.53461   -7196.2579   -7156.7091    693.29467    24183.578     3.148574 
    7960    359.02442   -7196.6629   -7156.6132    254.04564     24196.85    3.1434647 
    7970    365.26886   -7197.2206   -7156.4743   -183.97775    24211.097    3.1422368 
    7980    373.66191   -7197.9909   -7156.3083   -432.06688    24224.648     3.144022 
    7990    372.96814   -7197.7322    -7156.127   -426.67926     24236.56     3.146932 
    8000    373.31438   -7197.5807   -7155.9369   -388.37588    24246.769    3.1485611 
    8010     371.5273    -7197.177   -7155.7326   -205.99144    24255.472    3.1486311 
    8020    368.58462   -7196.6251   -7155.5089    78.794735     24263.39    3.1489026 
    8030    377.25051   -7197.3419    -7155.259    266.90297    24271.581    3.1502914 
    8040    381.97828    -7197.599   -7154.9888    464.90808    24280.816    3.1529711 
    8050     381.0797   -7197.2252   -7154.7152    656.14666     24291.88    3.1560492 
    8060    383.53798   -7197.2225   -7154.4383     565.4352    24305.425    3.1584639 
    8070    388.02619   -7197.4419    -7154.157     264.0238    24321.141    3.1600372 
    8080    393.89039   -7197.8203   -7153.8812   -58.882586    24337.891    3.1614747 
    8090    394.10133   -7197.5894   -7153.6268   -189.84513    24354.461     3.164184 
    8100    387.85789    -7196.667   -7153.4009   -131.29188    24370.313    3.1680064 
    8110    384.19451   -7196.0509   -7153.1934   -35.283855    24385.614    3.1702285 
    8120    381.85811   -7195.5868   -7152.9899   -55.540781    24400.702    3.1692418 
    8130    377.55058   -7194.8931   -7152.7767   -148.73802    24415.521    3.1657537 
    8140    375.40899   -7194.4189   -7152.5415   -119.44808    24429.777    3.1610471 
    8150    375.44207   -7194.1485   -7152.2673   -49.100744    24443.536    3.1564582 
    8160    389.29415   -7195.3667   -7151.9404   -91.624371    24457.031    3.1536657 
    8170    400.80767   -7196.2718   -7151.5611   -212.74208    24470.133    3.1547864 
    8180    398.81216   -7195.6439   -7151.1558    -378.1364    24482.362    3.1602061 
    8190    398.80558   -7195.2214   -7150.7341   -513.52373    24493.087    3.1684828 
    8200     400.2563   -7194.9477   -7150.2985    -589.5281    24501.748    3.1780895 
    8210    396.64084   -7194.1134   -7149.8675   -475.08055    24508.111    3.1862774 
    8220    398.79242   -7193.9428   -7149.4569   -501.97182    24512.492    3.1892228 
    8230    407.52124   -7194.5411   -7149.0815   -573.86633    24514.856    3.1861954 
    8240    416.52474   -7195.2373   -7148.7733   -622.41783    24514.923    3.1798194 
    8250     416.2112   -7194.9934   -7148.5644   -753.04538    24512.456    3.1729043 
    8260    406.72797   -7193.8316   -7148.4605   -997.00896    24506.934    3.1669334 
    8270    399.61182     -7193.02   -7148.4427   -1132.8571    24497.465    3.1623572 
    8280    392.61203   -7192.2827   -7148.4863   -1060.9836    24483.536    3.1601598 
    8290    391.58226   -7192.2536    -7148.572   -799.35337    24465.447    3.1616839 
    8300    393.84886   -7192.6301   -7148.6957   -500.03195    24444.213    3.1674766 
    8310     395.8523   -7193.0244   -7148.8665   -324.38403    24420.996    3.1758897 
    8320    402.27503   -7193.9751   -7149.1007   -265.96481    24396.514    3.1835969 
    8330    402.11288   -7194.2696   -7149.4133   -196.74618    24371.083    3.1884371 
    8340    394.75954   -7193.8363   -7149.8003   -79.421311    24345.005    3.1901986 
    8350    396.79115   -7194.5115   -7150.2488    59.964291    24318.728    3.1896443 
    8360    402.43297   -7195.6358   -7150.7438    154.34234    24292.814     3.188452 
    8370    401.97952   -7196.0938   -7151.2524    160.37912    24267.614    3.1878797 
    8380    395.46467   -7195.8311   -7151.7164    209.36832    24243.217    3.1878613 
    8390    387.93386   -7195.3621   -7152.0875    287.19711    24219.802    3.1872151 
    8400    380.85143   -7194.8391   -7152.3546    322.85629    24197.648     3.185761 
    8410    381.25413   -7195.0735    -7152.544    338.36809    24176.934      3.18493 
    8420    382.56585   -7195.3642   -7152.6884    376.60546    24157.709    3.1852693 
    8430    382.85443   -7195.5194   -7152.8114     474.7015    24140.124    3.1854009 
    8440    385.13983   -7195.8948   -7152.9319    508.28432    24124.509    3.1844132 
    8450    386.28173   -7196.1543    -7153.064    509.80075    24111.002     3.182801 
    8460    386.20543   -7196.2958    -7153.214    472.53147    24099.551    3.1815082 
    8470    388.20382   -7196.6902   -7153.3855    577.10682    24090.074    3.1818883 
[...]
   22890    382.85961   -7202.7268   -7160.0183   -1343.1435    24438.849    5.9696505 
   22900    378.15679   -7202.1414   -7159.9574   -1587.1871     24467.07    5.9595685 
   22910     379.9848   -7202.2932   -7159.9053   -1837.6141    24488.616    5.9468485 
   22920    392.51711   -7203.6583   -7159.8725   -2088.3031    24502.547    5.9345186 
   22930    392.69766     -7203.69    -7159.884   -1991.3482    24508.067    5.9265968 
   22940    385.72114    -7202.976   -7159.9483    -1681.918     24505.63     5.922973 
   22950    378.42275   -7202.2583   -7160.0447   -1422.3641    24496.513    5.9200475 
   22960    383.25205   -7202.9139   -7160.1616    -1304.227    24481.804    5.9147926 
   22970    393.77506     -7204.24   -7160.3138   -1268.3794    24462.067    5.9077315 
   22980    386.66151   -7203.6471   -7160.5144   -1083.3031    24437.633     5.900419 
   22990    370.42675   -7202.0629   -7160.7412   -911.89144    24409.249    5.8940877 
   23000    362.57377   -7201.4078   -7160.9622   -766.42043    24377.646    5.8906653 
   23010    364.33894   -7201.8024   -7161.1599   -593.29219    24343.506    5.8906038 
   23020       373.49   -7203.0086   -7161.3452   -554.36952    24307.497    5.8928192 
   23030    371.08581   -7202.9244   -7161.5292   -365.61948    24269.934    5.8960822 
   23040    364.25747   -7202.3291   -7161.6956   -125.17083    24231.597    5.8971188 
   23050    380.52523   -7204.3056   -7161.8575   -257.13266    24193.284    5.8942106 
   23060    381.55646    -7204.599   -7162.0358   -256.23573    24154.691    5.8915975 
   23070     369.7905   -7203.4749   -7162.2242   -99.794064     24115.84     5.892069 
   23080    365.77289   -7203.2052   -7162.4027    29.449405    24077.299     5.894991 
   23090    369.91479   -7203.8303   -7162.5658    232.07829    24039.628    5.8989935 
   23100    369.03975    -7203.884   -7162.7171    473.59753    24003.606    5.9025588 
   23110     362.2791   -7203.2652   -7162.8524    648.15362    23970.091    5.9038292 
   23120    360.72669   -7203.2038   -7162.9642    684.95117    23939.671    5.9018164 
   23130    366.59274   -7203.9505   -7163.0565    736.25988    23912.463    5.8974538 
   23140    370.63336   -7204.4811   -7163.1363    926.28669    23888.637    5.8924174 
   23150    370.04828   -7204.4935    -7163.214    1230.1727    23868.844    5.8876921 
   23160    360.83252    -7203.536   -7163.2845    1461.8846    23854.081    5.8835774 
   23170    360.68157   -7203.5748   -7163.3402    1458.9281    23845.055    5.8788096 
   23180    365.40567    -7204.141   -7163.3794    1346.6329    23841.675    5.8722501 
   23190    365.94031   -7204.2279   -7163.4067    1389.3342    23843.508    5.8627908 
   23200    366.35066   -7204.2939   -7163.4269    1552.1648    23850.588    5.8492526 
   23210    356.70302   -7203.2204   -7163.4297     1761.821    23863.439    5.8323248 
   23220    361.33574   -7203.7061   -7163.3986    1658.5073    23882.622    5.8136938 
   23230    371.84676   -7204.7992   -7163.3192    1315.4121    23907.683    5.7972707 
   23240    364.03531   -7203.8031   -7163.1944    971.18555    23937.321    5.7863585 
   23250    354.53495   -7202.5603   -7163.0114    648.75802    23970.163    5.7797039 
   23260    360.92501   -7203.0064   -7162.7447    324.94577    24004.902    5.7751144 
   23270    375.22087   -7204.2507   -7162.3942    53.403007    24040.285    5.7734765 
   23280    383.01998   -7204.7254   -7161.9989   -137.15333    24075.267    5.7750058 
   23290    379.67181   -7203.9605   -7161.6076   -253.64535    24109.125    5.7762615 
   23300    372.05064   -7202.7408    -7161.238    -450.2326    24141.352    5.7737668 
   23310    379.22878   -7203.1894   -7160.8859   -656.77995    24171.229    5.7674378 
   23320    383.59217   -7203.3488   -7160.5586   -679.08535    24198.046    5.7603705 
   23330    372.12079   -7201.7864   -7160.2757   -513.86077    24221.765    5.7537791 
   23340    369.50458    -7201.243   -7160.0242   -461.78284    24242.976    5.7455456 
   23350    373.74567   -7201.4761   -7159.7842    -524.0997    24261.939    5.7356793 
   23360    377.50441   -7201.6719   -7159.5607   -563.31146    24278.504    5.7263999 
   23370    376.25959    -7201.332   -7159.3596    -680.8869    24292.522    5.7194029 
   23380    374.84266   -7200.9914   -7159.1772   -771.59885    24303.621    5.7137426 
   23390    385.52599   -7202.0186   -7159.0126   -791.43812    24311.509    5.7063316 
   23400    389.78866     -7202.36   -7158.8785    -669.8467    24316.193    5.6966291 
   23410    379.57007   -7201.1226    -7158.781   -405.96505    24318.228    5.6862233 
   23420     378.4637   -7200.9242    -7158.706   -436.01874    24318.504    5.6759523 
   23430    378.11045    -7200.818   -7158.6392    -539.0346    24317.058      5.66739 
   23440    380.91369   -7201.0753   -7158.5838   -529.39081    24313.579    5.6633949 
   23450     380.1016   -7200.9406   -7158.5397   -515.90884    24308.092    5.6648445 
   23460    383.47089   -7201.2872   -7158.5105   -620.13518     24300.63    5.6679199 
   23470    390.28215   -7202.0388   -7158.5022    -612.7531    24290.907    5.6678904 
   23480    391.39868   -7202.1881    -7158.527   -449.61509    24279.005    5.6619537 
   23490     390.3372   -7202.1324   -7158.5897    -254.2252    24265.557    5.6503251 
   23500    389.72819   -7202.1635   -7158.6887   -116.01506    24251.319    5.6359213 
   23510    394.09211   -7202.7911   -7158.8296   -87.771978    24236.809    5.6224373 
   23520    392.94158   -7202.8543    -7159.021   -161.26906    24222.156    5.6134082 
   23530    384.65859   -7202.1684   -7159.2592   -260.77129    24207.081    5.6097614 
   23540    377.76684   -7201.6631   -7159.5226   -169.81026    24191.276    5.6101268 
   23550    378.92272   -7202.0639   -7159.7945    93.336593    24175.107    5.6117059 
   23560    385.89655   -7203.1274   -7160.0801    381.55847    24159.532    5.6113498 
   23570    384.88875    -7203.317   -7160.3821    646.22405    24145.651    5.6075439 
   23580     374.9499   -7202.5122    -7160.686    825.11081    24134.436    5.6011966 
   23590    364.81349   -7201.6565    -7160.961    821.55397    24126.516    5.5929978 
   23600    362.97614   -7201.6795   -7161.1889    543.20445    24121.783    5.5824002 
   23610      371.379   -7202.8008   -7161.3729    280.59225    24119.217    5.5708783 
   23620    380.45412   -7203.9754   -7161.5352    305.62571    24117.867    5.5621215 
   23630    377.86109    -7203.837   -7161.6861    621.20586    24117.832    5.5585756 
   23640      377.069   -7203.8919   -7161.8293     898.8831    24120.195    5.5591521 
   23650    372.80212   -7203.5468   -7161.9601    1087.5284    24126.018    5.5615475 
   23660    373.41957   -7203.7323   -7162.0768    788.72354    24135.822    5.5638718 
   23670    372.05781   -7203.6784   -7162.1748    280.84109    24148.533    5.5656074 
   23680      370.174   -7203.5459   -7162.2525    -12.50903    24162.316    5.5652102 
   23690    369.75638   -7203.5567   -7162.3098   -35.060107    24176.027    5.5604722 
   23700    368.81799   -7203.4921   -7162.3499    105.83433    24189.567    5.5513354 
   23710    368.26533   -7203.4543   -7162.3738    133.40516    24203.374    5.5399458 
   23720    368.92231   -7203.5366   -7162.3828     49.30236    24217.561    5.5283526 
   23730    366.35429   -7203.2447   -7162.3773    34.052783    24231.883    5.5176759 
   23740    363.20201   -7202.8693   -7162.3536   -35.700996     24246.22     5.508419 
   23750    372.05109   -7203.8121   -7162.3092   -291.08321    24260.267    5.5006736 
   23760    378.31851   -7204.4568   -7162.2548   -647.58164    24273.046    5.4949089 
   23770    364.39336   -7202.8485   -7162.1999   -773.18451    24283.286    5.4907542 
   23780    353.16394   -7201.5262   -7162.1302   -752.92858    24290.476    5.4851419 
   23790    362.42624   -7202.4548   -7162.0256   -884.15038    24294.601    5.4769091 
   23800    373.64092   -7203.5722    -7161.892   -1145.0319    24295.176    5.4682351 
   23810    372.42587   -7203.3002   -7161.7556   -1324.1119    24291.268    5.4611748 
   23820    366.85243   -7202.5447   -7161.6218   -1262.5793    24282.243    5.4555973 
   23830    375.37815   -7203.3573   -7161.4833   -993.63368    24268.396    5.4500384 
   23840    382.55868     -7204.02    -7161.345   -582.88357    24250.801    5.4443091 
   23850    371.41646   -7202.6476   -7161.2155   -7.4080691    24231.108    5.4394359 
   23860    369.81806   -7202.3379   -7161.0841     430.8209    24211.453     5.434882 
   23870     379.4391    -7203.271    -7160.944    699.54238    24193.531    5.4311866 
   23880    383.06838   -7203.5433   -7160.8115    932.52243    24178.445    5.4291613 
   23890    384.54088    -7203.598   -7160.7019     1082.828    24167.068    5.4275938 
   23900    385.03166     -7203.57   -7160.6191    1188.7493    24159.957    5.4253836 
   23910    382.25897   -7203.2022   -7160.5607    1319.6862    24157.532    5.4228116 
   23920    379.54439   -7202.8626   -7160.5239    1327.9432    24160.223    5.4197379 
   23930    376.59901   -7202.5121   -7160.5019    1152.8894    24168.033    5.4155542 
   23940    383.57685   -7203.2828   -7160.4943    847.07146    24180.285    5.4090577 
   23950    386.76959   -7203.6503   -7160.5055    619.72216    24195.843     5.399501 
   23960    386.44424   -7203.6571   -7160.5486    534.25259    24213.829    5.3870847 
   23970     376.6147   -7202.6277   -7160.6158    560.66582    24233.891      5.37323 
   23980    373.11849    -7202.312   -7160.6901    430.67079    24256.017    5.3589356 
   23990    373.90158   -7202.4661   -7160.7568    79.142849    24279.683    5.3469348 
   24000    371.13926   -7202.2149   -7160.8137   -367.02396    24303.525    5.3402125 
   24010    374.27029   -7202.6193   -7160.8689   -728.38401     24325.83    5.3390636 
   24020    374.17326   -7202.6721   -7160.9326   -811.15066    24345.236     5.340543 
   24030    378.86222   -7203.2834   -7161.0208   -720.46915    24361.372    5.3398283 
   24040    389.14089   -7204.5699   -7161.1606   -572.91977    24374.552    5.3338816 
   24050    393.86663   -7205.3326   -7161.3962   -338.61731    24385.405     5.323384 
   24060    383.92003    -7204.578   -7161.7512   -49.839456    24394.865    5.3120439 
   24070    372.73572   -7203.7773    -7162.198    138.58517    24404.024    5.3034276 
   24080    370.36161   -7203.9977   -7162.6833    38.737353    24413.556    5.2996176 
   24090    371.49279   -7204.6069   -7163.1663    -166.9152    24423.144    5.3012323 
   24100    358.85605   -7203.6267   -7163.5958   -123.35278    24432.096     5.305973 
   24110    351.00658   -7203.0876   -7163.9323   -13.160357    24440.499    5.3074958 
   24120    358.32257   -7204.1566   -7164.1851    18.439213    24448.776    5.3017786 
   24130    362.44151   -7204.8109     -7164.38   -7.3357345    24457.043    5.2913886 
   24140    356.26223   -7204.2681   -7164.5265    99.951132    24465.309    5.2820247 
   24150    355.11447   -7204.2396   -7164.6261    -58.33067    24473.825    5.2774644 
   24160    355.63455   -7204.3507   -7164.6791   -376.22219    24482.002    5.2786009 
   24170    353.17709   -7204.0854    -7164.688   -654.00773    24488.618    5.2830402 
   24180    356.62042   -7204.4371   -7164.6555   -748.26001    24492.639    5.2861493 
   24190    360.32987    -7204.781   -7164.5857   -581.18763    24493.737    5.2845685 
   24200     362.5947   -7204.9337   -7164.4857   -337.71076     24492.54    5.2779295 
   24210    368.96654   -7205.5183   -7164.3595   -247.37316    24489.961    5.2689779 
   24220    377.79502   -7206.3624   -7164.2188   -205.56717    24486.395    5.2610615 
   24230    379.14301   -7206.3722   -7164.0783   -166.01398    24482.032    5.2563033 
   24240    377.35153   -7206.0414   -7163.9472   -215.31283    24476.993    5.2547265 
   24250    382.01963   -7206.4384   -7163.8235   -312.86164    24471.085    5.2555356 
   24260    386.95541   -7206.8797   -7163.7142   -194.88831    24464.038     5.259492 
   24270    370.25373   -7204.9216   -7163.6193    330.40354    24456.407    5.2673361 
   24280    355.81071   -7203.2075   -7163.5163    831.34108    24450.147    5.2767207 
   24290    357.74024   -7203.2828   -7163.3763     760.3936    24447.031     5.285616 
   24300    365.84489   -7204.0058   -7163.1952    482.79362     24446.91    5.2936416 
   24310    371.07238   -7204.3781   -7162.9844    285.18288    24448.759    5.3004092 
   24320    367.25079   -7203.7249   -7162.7575    263.77484    24451.814    5.3055057 
   24330    366.47207   -7203.3973   -7162.5168    325.89454    24455.953    5.3090138 
   24340    371.64586    -7203.718   -7162.2603    289.21026    24461.333    5.3136272 
   24350    372.44046   -7203.5425   -7161.9962    133.88348    24467.807    5.3218008 
   24360    374.23832    -7203.479   -7161.7322   -36.899275    24474.802    5.3308837 
   24370    380.61681    -7203.934   -7161.4756   -126.43791    24481.669    5.3369537 
   24380     384.6137   -7204.1476   -7161.2434   -132.27554    24488.042    5.3401908 
   24390    381.87505   -7203.6484   -7161.0496   -17.799119    24493.917    5.3433391 
   24400    381.11592   -7203.4063   -7160.8922    10.356169    24499.655    5.3471756 
   24410    379.74803   -7203.1246   -7160.7632   -100.26318    24505.369    5.3509396 
   24420    379.14947   -7202.9528   -7160.6581   -354.00646    24510.613     5.353939 
   24430    378.26067   -7202.7672   -7160.5717   -533.76558    24514.449    5.3531899 
   24440    380.68972   -7202.9678   -7160.5013   -569.51336    24516.189    5.3442738 
   24450    387.04488   -7203.6272   -7160.4517   -568.29863    24515.659    5.3251388 
   24460    387.37694   -7203.6432   -7160.4307   -602.51034    24512.838    5.2983816 
   24470    377.12132   -7202.4995   -7160.4311    -633.3767    24507.601    5.2698378 
   24480    372.58988   -7201.9978   -7160.4348    -658.2461    24499.827    5.2451349 
   24490    378.23675     -7202.63   -7160.4372   -677.17632    24489.447    5.2274411 
   24500    381.11075   -7202.9614   -7160.4479   -744.99785    24476.366    5.2167576 
   24510    377.56786    -7202.591   -7160.4727   -809.22362    24460.333    5.2120302 
   24520    378.82757    -7202.766   -7160.5072   -820.73669    24441.131    5.2095102 
   24530    386.30939    -7203.648   -7160.5546   -829.34963    24418.696    5.2031755 
   24540    389.16263   -7204.0388   -7160.6271   -725.82027    24393.065     5.190429 
   24550    382.50461   -7203.3966   -7160.7277   -402.44481    24364.715    5.1749807 
   24560    372.41979   -7202.3785   -7160.8345    22.150497    24334.921    5.1624955 
   24570    376.95132   -7202.9857   -7160.9362    396.36227    24305.323    5.1571475 
   24580    385.52091   -7204.0493   -7161.0438    803.56469    24277.464     5.160145 
   24590    387.46815   -7204.4026   -7161.1799    1050.1773    24252.866    5.1670799 
   24600    381.24411   -7203.8781   -7161.3498    1113.0513    24232.448    5.1709765 
   24610    376.25822   -7203.5169   -7161.5447     1239.283    24216.543    5.1679034 
   24620    374.69365   -7203.5565   -7161.7588    1439.2044    24205.616    5.1592595 
   24630    372.29835    -7203.521   -7161.9906    1576.5673    24200.376    5.1489251 
   24640    370.17843   -7203.5309   -7162.2369    1516.6862    24201.272    5.1407788 
   24650    369.56312   -7203.7242   -7162.4989     1357.611    24208.079    5.1382621 
   24660    365.36942   -7203.5312   -7162.7737    1134.9539    24220.159     5.141136 
   24670    364.08911   -7203.6664   -7163.0517     874.9494    24236.628    5.1454731 
   24680    367.18432   -7204.2906   -7163.3306    644.97544    24256.475    5.1489368 
   24690    368.93213   -7204.7679   -7163.6129    463.20377    24278.823    5.1512354 
   24700    377.33613   -7206.0021   -7163.9097    115.34318    24302.859    5.1520105 
   24710    375.97276    -7206.169   -7164.2286   -144.89214    24327.298    5.1528092 
   24720    367.37972   -7205.5382   -7164.5565   -267.26174    24351.119     5.155045 
   24730    366.61204   -7205.7782    -7164.882   -489.76617    24373.737    5.1584353 
   24740    360.91635   -7205.4496   -7165.1888   -843.87206    24394.256    5.1633656 
   24750    356.97481   -7205.2822   -7165.4611   -1176.8856    24411.341    5.1706819 
   24760    353.97732   -7205.1717    -7165.685   -1324.6084    24423.726    5.1807352 
   24770    355.25834   -7205.4873   -7165.8577   -1163.1488    24430.876    5.1910322 
   24780    352.79942   -7205.3367   -7165.9814   -746.89511    24433.438    5.1978542 
   24790     346.0524   -7204.6504   -7166.0478   -262.35622     24433.03    5.1988188 
   24800    350.13785    -7205.112   -7166.0536   -52.244801    24431.475    5.1943956 
   24810    354.81451   -7205.5903   -7166.0102    13.199644    24429.681    5.1884216 
   24820    353.79285   -7205.3993   -7165.9332    96.685107    24427.968    5.1854122 
   24830    356.33497    -7205.584   -7165.8343    119.43508    24426.624    5.1873372 
   24840    357.02669   -7205.5495   -7165.7226    93.738635    24425.756    5.1936916 
   24850    357.25406   -7205.4579   -7165.6057   -56.846689    24425.229    5.2035568 
   24860    361.86234   -7205.8538   -7165.4875   -300.42074    24424.453     5.215523 
   24870    369.29529   -7206.5736   -7165.3782   -506.51095    24422.482    5.2271393 
   24880    359.57904   -7205.3892   -7165.2776   -316.48418    24418.673     5.236674 
   24890    353.12656   -7204.5645   -7165.1727   -213.44202    24413.591    5.2428348 
   24900    360.79769   -7205.2989   -7165.0514    -310.3143    24407.612    5.2475711 
   24910    361.46487    -7205.238   -7164.9161   -281.91113    24400.466    5.2548115 
   24920    360.99134   -7205.0348   -7164.7657   -320.83231    24392.204    5.2642823 
   24930    363.44619   -7205.1398   -7164.5968   -495.29164    24382.645    5.2731961 
   24940    361.58165   -7204.7473   -7164.4123   -595.94639    24371.166    5.2802266 
   24950    359.46889   -7204.3112   -7164.2119   -585.66231    24357.415    5.2858209 
   24960    360.58907   -7204.2163   -7163.9921    -608.4677    24341.374    5.2913397 
   24970    366.31139   -7204.6175   -7163.7549   -645.69714    24322.968    5.2977327 
   24980    375.41887   -7205.3874   -7163.5089   -593.88377    24302.109    5.3046439 
   24990    384.31786   -7206.1418   -7163.2706   -535.88712    24278.986    5.3112715 
   25000    381.35814   -7205.6021    -7163.061   -504.69466    24253.827    5.3176174 
Loop time of 13142.7 on 16 procs for 20000 steps with 864 atoms

Performance: 0.131 ns/day, 182.537 hours/ns, 1.522 timesteps/s
96.9% CPU use with 16 MPI tasks x 1 OpenMP threads

MPI task timing breakdown:
Section |  min time  |  avg time  |  max time  |%varavg| %total
---------------------------------------------------------------
Pair    | 8653       | 10853      | 12792      |1042.5 | 82.58
Bond    | 0.0014982  | 0.0043169  | 0.0093517  |   2.9 |  0.00
Neigh   | 0.22337    | 0.28018    | 0.35207    |   6.8 |  0.00
Comm    | 325.51     | 1580.2     | 4467.8     |2676.0 | 12.02
Output  | 4.6104     | 4.6383     | 5.042      |   4.8 |  0.04
Modify  | 16.391     | 704.68     | 1403.5     |2011.6 |  5.36
Other   |            | 0.09394    |            |       |  0.00

Nlocal:        54.0000 ave          65 max          45 min
Histogram: 3 2 0 2 1 0 4 3 0 1
Nghost:        457.250 ave         515 max         411 min
Histogram: 2 2 1 2 3 2 0 3 0 1
Neighs:         0.00000 ave           0 max           0 min
Histogram: 16 0 0 0 0 0 0 0 0 0
FullNghs:      1935.88 ave        2607 max        1344 min
Histogram: 2 3 0 2 1 1 4 1 0 2

Total # of neighbors = 30974
Ave neighs/atom = 35.849537
Ave special neighs/atom = 0.0000000
Neighbor list builds = 2000
Dangerous builds = 2000
unfix   3
                
Total wall time: 4:32:21
