LAMMPS (29 Sep 2021 - Update 3)
OMP_NUM_THREADS environment is not set. Defaulting to 1 thread. (src/comm.cpp:98)
  using 1 OpenMP thread(s) per MPI task
Reading data file ...
  orthogonal box = (0.0000000 0.0000000 0.0000000) to (17.171819 17.292452 83.119182)
  1 by 2 by 8 MPI processor grid
  reading atoms ...
  864 atoms
Finding 1-2 1-3 1-4 neighbors ...
  special bond factors lj:    0        0        0       
  special bond factors coul:  0        0        0       
     0 = max # of 1-2 neighbors
     0 = max # of 1-3 neighbors
     0 = max # of 1-4 neighbors
     1 = max # of special neighbors
  special bonds CPU = 0.002 seconds
  read_data CPU = 0.027 seconds
Neighbor list info ...
  update every 1 steps, delay 10 steps, check yes
  max neighbors/atom: 2000, page size: 100000
  master list distance cutoff = 6.22
  ghost atom cutoff = 6.22
  binsize = 3.11, bins = 6 6 27
  1 neighbor lists, perpetual/occasional/extra = 1 0 0
  (1) pair quip, perpetual
      attributes: full, newton on
      pair build: full/bin
      stencil: full/bin/3d
      bin: standard
Setting up Verlet run ...
  Unit style    : metal
  Current step  : 0
  Time step     : 0.001
Per MPI rank memory allocation (min/avg/max) = 8.894 | 8.900 | 8.906 Mbytes
Step Temp PotEng TotEng Press Volume c_msd[4] 
       0            0   -7174.3834   -7174.3834   -3403.7864    24681.648            0 
      10    59.886459   -7181.0715   -7174.3911    -3591.811    24681.648 0.0004428069 
      20    152.53511   -7191.4143   -7174.3988    -3532.456    24681.648 0.0053913133 
      30    183.53475   -7194.8677   -7174.3941   -2645.2133    24681.648  0.017829876 
      40    202.66462   -7197.0001   -7174.3926   -1813.5571    24681.648  0.032805386 
      50    235.34035   -7200.6482   -7174.3956    -1646.813    24681.648   0.04588816 
      60    247.94168    -7202.052   -7174.3938   -1842.2959    24681.648   0.05765331 
      70    253.09642   -7202.6277   -7174.3944   -2064.7915    24681.648  0.069436765 
      80    250.99467   -7202.3926   -7174.3937   -2200.0016    24681.648  0.082900901 
      90    246.12852   -7201.8494   -7174.3934   -2173.7127    24681.648  0.099028065 
     100    244.92959   -7201.7179   -7174.3956   -1978.8699    24681.648   0.11746343 
     110    242.28341    -7201.419   -7174.3919   -1729.6413    24681.648   0.13557848 
     120    255.22195   -7202.8655   -7174.3951   -1848.0783    24681.648   0.15075494 
     130    256.29683   -7202.9842   -7174.3939     -2007.52    24681.648   0.16545013 
     140    255.59143   -7202.9057   -7174.3941   -2078.8051    24681.648   0.17976362 
     150    254.71653    -7202.809    -7174.395   -2143.2247    24681.648   0.19317961 
     160    251.90206   -7202.4945   -7174.3944   -2001.6951    24681.648   0.20534635 
     170    250.97219   -7202.3902   -7174.3939   -1889.6105    24681.648   0.21663825 
     180     257.3806   -7203.1055   -7174.3943   -1934.6918    24681.648    0.2288925 
     190     260.3621   -7203.4402   -7174.3964   -1958.2977    24681.648   0.24328518 
     200    252.18366   -7202.5243   -7174.3928   -1925.8316    24681.648   0.25702409 
     210    258.35994    -7203.215   -7174.3946   -1990.3907    24681.648   0.26669152 
     220    260.53492   -7203.4573   -7174.3943   -1988.9024    24681.648    0.2748492 
     230    258.23338   -7203.2005   -7174.3942   -1795.6857    24681.648   0.28332799 
     240    252.93197   -7202.6085   -7174.3936   -1566.3378    24681.648   0.29247854 
     250    254.73094   -7202.8097   -7174.3941   -1512.6013    24681.648   0.30118823 
     260    260.13921   -7203.4133   -7174.3944   -1595.4355    24681.648   0.30980823 
     270    263.33316   -7203.7692    -7174.394   -1672.2968    24681.648    0.3193726 
     280    266.81067   -7204.1584   -7174.3953   -1641.3932    24681.648   0.32972958 
     290    262.39696   -7203.6654   -7174.3946   -1516.4449    24681.648   0.34016636 
     300    261.07623   -7203.5192   -7174.3957   -1490.2694    24681.648   0.34870802 
     310    256.60645    -7203.019   -7174.3942   -1424.9004    24681.648   0.35616095 
     320    255.12221   -7202.8537   -7174.3944   -1431.1943    24681.648   0.36426417 
     330    257.21766   -7203.0875   -7174.3944   -1535.2284    24681.648   0.37294434 
     340    260.71445   -7203.4781    -7174.395   -1738.4386    24681.648   0.38207588 
     350    260.87542   -7203.4955   -7174.3944   -1787.8195    24681.648   0.39203939 
     360    259.24296   -7203.3137   -7174.3948   -1801.5109    24681.648   0.40305256 
     370     256.8045   -7203.0415   -7174.3946    -1871.197    24681.648   0.41474987 
     380    253.74937   -7202.7006   -7174.3945   -2006.2935    24681.648   0.42675018 
     390     250.3984   -7202.3262   -7174.3939   -2133.6916    24681.648    0.4387225 
     400    253.59482   -7202.6831   -7174.3942   -2227.7267    24681.648   0.44925493 
     410    258.62293   -7203.2446   -7174.3948   -2242.4151    24681.648   0.45744528 
     420    260.59152   -7203.4634   -7174.3941   -2202.0252    24681.648   0.46381779 
     430    265.56276   -7204.0186   -7174.3947   -2285.5748    24681.648   0.46928077 
     440    267.29796   -7204.2122   -7174.3947   -2340.4066    24681.648   0.47466356 
     450     263.7688   -7203.8177   -7174.3939   -2324.3833    24681.648   0.47995391 
     460    263.97331    -7203.841   -7174.3944   -2444.9636    24681.648   0.48477747 
     470    265.08715   -7203.9653   -7174.3944   -2633.9331    24681.648   0.48948207 
     480    264.24939   -7203.8716   -7174.3942   -2661.2403    24681.648   0.49464966 
     490    265.03895   -7203.9596   -7174.3941   -2483.9795    24681.648   0.50051068 
     500     268.0228   -7204.2928   -7174.3944   -2130.0039    24681.648   0.50762008 
     510    269.68559   -7204.4783   -7174.3945   -1895.8231    24681.648   0.51677182 
     520     269.3401     -7204.44   -7174.3947   -1772.5691    24681.648   0.52791571 
     530      266.526   -7204.1254    -7174.394   -1820.7728    24681.648   0.53993524 
     540    268.21801   -7204.3142   -7174.3941   -1957.9364    24681.648   0.55113406 
     550    273.27905   -7204.8799   -7174.3952   -1952.1322    24681.648   0.56047872 
     560     270.7895   -7204.6017   -7174.3947   -1784.6397    24681.648   0.56820517 
     570    267.63087   -7204.2482   -7174.3935    -1644.341    24681.648   0.57439114 
     580    274.75017   -7205.0438    -7174.395   -1642.7538    24681.648   0.57908351 
     590    278.06846    -7205.414    -7174.395   -1634.7568    24681.648   0.58273182 
     600    275.33483   -7205.1086   -7174.3946   -1546.2732    24681.648   0.58557023 
     610    272.73058   -7204.8178   -7174.3943   -1362.5514    24681.648   0.58813395 
     620     275.6395   -7205.1428   -7174.3948   -1228.8054    24681.648   0.59107932 
     630    277.82637   -7205.3871   -7174.3952    -1223.228    24681.648   0.59521422 
     640    275.21147   -7205.0945   -7174.3942   -1328.0133    24681.648   0.60059579 
     650    276.76341   -7205.2679   -7174.3945   -1587.9159    24681.648   0.60632225 
     660    280.29592   -7205.6626   -7174.3951   -1876.3308    24681.648   0.61197812 
     670    278.94874   -7205.5114   -7174.3943   -1988.9252    24681.648    0.6176124 
     680    279.62887   -7205.5876   -7174.3946    -1854.874    24681.648   0.62312175 
     690    278.35671   -7205.4465   -7174.3954     -1626.67    24681.648   0.62896185 
     700    269.37243   -7204.4429    -7174.394   -1418.2553    24681.648   0.63559784 
     710    266.45521   -7204.1181   -7174.3946   -1472.5221    24681.648   0.64215216 
     720    265.84495   -7204.0503   -7174.3949   -1709.2555    24681.648   0.64781464 
     730    263.59964   -7203.7992   -7174.3943   -1848.2285    24681.648   0.65193307 
     740    266.57701   -7204.1317   -7174.3946   -1895.4286    24681.648   0.65412735 
     750    271.76415   -7204.7106   -7174.3949   -1968.2386    24681.648   0.65547825 
     760      275.029   -7205.0755   -7174.3956   -2013.6107    24681.648   0.65726746 
     770     271.0675   -7204.6326   -7174.3946   -1846.7085    24681.648   0.65945095 
     780    271.60028    -7204.692   -7174.3946   -1756.0037    24681.648   0.66122261 
     790    276.79844    -7205.273   -7174.3957   -1802.9901    24681.648   0.66298127 
     800    272.61055    -7204.805   -7174.3949   -1872.3043    24681.648    0.6665383 
     810    266.19836   -7204.0894   -7174.3945   -1968.7863    24681.648   0.67221854 
     820    263.38752   -7203.7759   -7174.3946   -2141.6217    24681.648   0.67891951 
     830    264.77149   -7203.9298   -7174.3941   -2417.3308    24681.648   0.68520732 
     840    272.58637    -7204.803   -7174.3955   -2752.0813    24681.648   0.69025418 
     850    272.65549   -7204.8097   -7174.3946   -2928.1991    24681.648   0.69428736 
     860    273.59711   -7204.9144   -7174.3942   -2900.3005    24681.648    0.6970968 
     870    278.19824   -7205.4288   -7174.3953    -2707.162    24681.648    0.6996263 
     880    276.53864   -7205.2424   -7174.3941   -2500.9253    24681.648   0.70364771 
     890    279.23786   -7205.5442   -7174.3948   -2415.7746    24681.648   0.70924281 
     900    280.95843   -7205.7363    -7174.395    -2364.961    24681.648   0.71595523 
     910    278.43861   -7205.4551   -7174.3949   -2292.0963    24681.648   0.72276909 
     920    274.58034   -7205.0239    -7174.394   -2145.7325    24681.648    0.7279473 
     930    277.12312   -7205.3082   -7174.3947    -2157.167    24681.648   0.73037655 
     940    279.73337   -7205.5996   -7174.3949   -2169.2816    24681.648   0.73135876 
     950    279.22126   -7205.5421   -7174.3945   -2172.7349    24681.648   0.73362662 
     960    279.34211   -7205.5558   -7174.3947    -2162.325    24681.648   0.73879001 
     970    278.76831   -7205.4918   -7174.3948   -2041.5721    24681.648   0.74667297 
     980    277.67235   -7205.3697   -7174.3949   -1885.6852    24681.648   0.75580397 
     990    276.23383    -7205.209   -7174.3947   -1855.7306    24681.648   0.76364754 
    1000    276.65338   -7205.2559   -7174.3948   -1804.2694    24681.648   0.76766421 
    1010    277.15823    -7205.313   -7174.3956    -1670.983    24681.648   0.76766874 
    1020    269.42126   -7204.4494   -7174.3951   -1424.7931    24681.648   0.76610705 
    1030     260.7554   -7203.4818   -7174.3941   -1215.0065    24681.648   0.76554395 
    1040    261.30906   -7203.5441   -7174.3947   -1098.2689    24681.648   0.76665088 
    1050    265.20034   -7203.9786   -7174.3951   -1049.7855    24681.648   0.76872121 
    1060    265.37142   -7203.9979   -7174.3953     -1168.93    24681.648    0.7710414 
    1070    262.30523   -7203.6545    -7174.394   -1216.5846    24681.648   0.77312784 
    1080     269.2805   -7204.4336   -7174.3949   -1303.2806    24681.648   0.77456841 
    1090    278.21465   -7205.4311   -7174.3958   -1474.4916    24681.648   0.77578562 
    1100    279.83218   -7205.6107    -7174.395   -1575.5621    24681.648   0.77731718 
    1110    283.74367   -7206.0469   -7174.3949   -1579.9493    24681.648   0.77887111 
    1120    290.78719   -7206.8334   -7174.3957   -1573.7467    24681.648   0.78005841 
    1130    290.95381   -7206.8511   -7174.3948   -1519.3089    24681.648   0.78128493 
    1140    291.42672   -7206.9042   -7174.3951   -1587.1629    24681.648   0.78343187 
    1150    288.83961    -7206.616   -7174.3955   -1727.5352    24681.648   0.78763344 
    1160    278.98488   -7205.5156   -7174.3944   -1780.0997    24681.648   0.79353187 
    1170     274.5083   -7205.0159   -7174.3941   -1742.9948    24681.648   0.79894507 
    1180    278.08142   -7205.4157   -7174.3953   -1700.4448    24681.648   0.80276226 
    1190    278.86175    -7205.502   -7174.3946   -1575.2201    24681.648    0.8050797 
    1200    282.48118   -7205.9064   -7174.3952   -1531.0337    24681.648   0.80550341 
    1210     282.2015   -7205.8756   -7174.3956   -1582.1964    24681.648    0.8047093 
    1220    273.66019   -7204.9216   -7174.3943   -1443.9202    24681.648   0.80424724 
    1230    271.02344   -7204.6278   -7174.3947   -1294.8219    24681.648   0.80553838 
    1240    273.21828   -7204.8729    -7174.395   -1344.7406    24681.648   0.80963811 
    1250    274.53804   -7205.0205   -7174.3953   -1557.8461    24681.648   0.81626207 
    1260    273.33761   -7204.8857   -7174.3945   -1709.4029    24681.648    0.8238996 
    1270    277.03845    -7205.299   -7174.3949   -1861.8941    24681.648   0.83066888 
    1280    279.60921   -7205.5866   -7174.3958   -1776.8315    24681.648   0.83577326 
    1290     271.8553   -7204.7208   -7174.3949   -1451.3285    24681.648    0.8390946 
    1300    264.41726   -7203.8899   -7174.3937   -1174.9198    24681.648   0.84015079 
    1310    270.14381   -7204.5298   -7174.3948   -1305.4319    24681.648   0.83955817 
    1320    276.28563    -7205.216   -7174.3959   -1616.8447    24681.648    0.8394972 
    1330    269.37516    -7204.444   -7174.3948   -1792.2063    24681.648   0.84108811 
    1340    263.66565    -7203.806   -7174.3937   -1787.5686    24681.648   0.84324181 
    1350    271.75636   -7204.7105   -7174.3956   -1789.9886    24681.648   0.84491174 
    1360    274.27239   -7204.9909   -7174.3954   -1904.3466    24681.648   0.84675977 
    1370    271.14124   -7204.6406   -7174.3944   -2044.7094    24681.648   0.84884467 
    1380    273.68352    -7204.925   -7174.3952   -2173.0979    24681.648   0.85060846 
    1390    275.02452   -7205.0744    -7174.395   -2215.3954    24681.648   0.85231893 
    1400    276.25601   -7205.2118    -7174.395   -2238.0373    24681.648   0.85406463 
    1410    278.84188   -7205.4999   -7174.3947   -2167.4859    24681.648   0.85604751 
    1420    283.63171   -7206.0351   -7174.3956   -2106.7356    24681.648   0.85860197 
    1430     281.5104   -7205.7981   -7174.3952   -2039.7153    24681.648   0.86172051 
    1440    277.08643   -7205.3037   -7174.3943   -2134.4004    24681.648   0.86445233 
    1450    280.14663   -7205.6458    -7174.395   -2425.0475    24681.648   0.86616941 
    1460    284.16882   -7206.0946   -7174.3952   -2629.1536    24681.648   0.86801931 
    1470    286.02648   -7206.3014   -7174.3947   -2499.1716    24681.648   0.87115512 
    1480    288.85345   -7206.6176   -7174.3956   -2167.0023    24681.648   0.87530865 
    1490    284.31956   -7206.1114   -7174.3951   -1635.6837    24681.648   0.87953488 
    1500    278.98283   -7205.5151   -7174.3941    -1216.743    24681.648   0.88285916 
    1510    281.81212   -7205.8323   -7174.3957   -1229.4385    24681.648   0.88582692 
    1520    276.49173   -7205.2381   -7174.3951   -1562.5155    24681.648   0.89044229 
    1530    268.60167    -7204.357   -7174.3941   -1832.8137    24681.648   0.89739602 
    1540    268.44471   -7204.3404   -7174.3949   -2013.3452    24681.648   0.90578469 
    1550    268.16938   -7204.3093   -7174.3946   -2010.8653    24681.648   0.91410017 
    1560    269.46062   -7204.4535   -7174.3947   -1942.9791    24681.648   0.92102099 
    1570    272.53021   -7204.7961    -7174.395   -1895.4867    24681.648   0.92617748 
    1580    274.16463   -7204.9785   -7174.3951   -1823.6829    24681.648   0.92969488 
    1590    274.08365    -7204.969   -7174.3945   -1694.8776    24681.648   0.93183336 
    1600    276.38809   -7205.2266   -7174.3951   -1582.4042    24681.648   0.93327697 
    1610    276.47515   -7205.2358   -7174.3946    -1514.064    24681.648   0.93523754 
    1620    278.82635   -7205.4983   -7174.3948   -1527.2623    24681.648   0.93825527 
    1630    283.05477   -7205.9703   -7174.3951   -1480.4486    24681.648   0.94238563 
    1640    283.75544   -7206.0487   -7174.3953   -1428.7453    24681.648   0.94810451 
    1650    279.65577   -7205.5907   -7174.3946   -1482.0142    24681.648   0.95569667 
    1660    277.97149   -7205.4028   -7174.3947   -1644.7201    24681.648   0.96460041 
    1670    277.63235   -7205.3655   -7174.3952   -1799.5694    24681.648   0.97399532 
    1680     273.1457   -7204.8646   -7174.3948   -1807.2549    24681.648     0.982653 
    1690     269.1131   -7204.4145   -7174.3945    -1848.628    24681.648   0.98867138 
    1700    269.43844   -7204.4513    -7174.395   -2023.5742    24681.648   0.99116369 
    1710    269.78252   -7204.4896   -7174.3949   -2209.0436    24681.648    0.9917874 
    1720    270.65906   -7204.5872   -7174.3948   -2303.1156    24681.648   0.99313368 
    1730    273.04698    -7204.854   -7174.3952   -2347.4849    24681.648   0.99679692 
    1740    274.23892   -7204.9868   -7174.3951   -2237.2262    24681.648    1.0035992 
    1750    273.69441   -7204.9263   -7174.3952   -2020.2102    24681.648    1.0135583 
    1760    270.40125   -7204.5585   -7174.3949    -1788.634    24681.648    1.0251981 
    1770    270.68343   -7204.5897   -7174.3946   -1549.0244    24681.648    1.0353833 
    1780    277.90453   -7205.3964   -7174.3957    -1511.742    24681.648    1.0415834 
    1790    279.00509   -7205.5188   -7174.3954   -1597.8653    24681.648    1.0442507 
    1800    277.00732   -7205.2948   -7174.3942   -1788.7028    24681.648    1.0451598 
    1810    282.39257   -7205.8967   -7174.3954   -2040.7403    24681.648    1.0459368 
    1820    284.13814   -7206.0911   -7174.3951   -2280.9528    24681.648    1.0481335 
    1830    282.91429   -7205.9545   -7174.3949   -2430.6285    24681.648    1.0523919 
    1840     281.3318   -7205.7782   -7174.3952   -2306.2747    24681.648    1.0583276 
    1850    277.24801   -7205.3224    -7174.395   -2023.8294    24681.648    1.0646013 
    1860    275.86189   -7205.1669   -7174.3941   -1648.8281    24681.648    1.0693247 
    1870    285.01658   -7206.1898   -7174.3957   -1237.5386    24681.648    1.0720376 
    1880    287.69204   -7206.4885    -7174.396   -948.96764    24681.648    1.0743863 
    1890    280.11635   -7205.6423   -7174.3949   -885.51677    24681.648    1.0774135 
    1900    276.31656   -7205.2185    -7174.395   -989.28796    24681.648    1.0809193 
    1910      276.623   -7205.2529   -7174.3952   -1167.7604    24681.648    1.0845535 
    1920    277.67777   -7205.3704    -7174.395   -1316.9346    24681.648    1.0879417 
    1930    280.71277   -7205.7092   -7174.3953   -1469.0337    24681.648    1.0909294 
    1940    281.53928   -7205.8014   -7174.3953   -1673.5867    24681.648     1.094033 
    1950    279.58172   -7205.5827    -7174.395   -1827.7357    24681.648    1.0978665 
    1960    278.22672   -7205.4318   -7174.3952   -1824.7991    24681.648    1.1027058 
    1970    275.53555   -7205.1314    -7174.395    -1644.041    24681.648    1.1084664 
    1980    273.96064   -7204.9552   -7174.3945   -1378.9505    24681.648    1.1145371 
    1990    277.66865   -7205.3694    -7174.395   -1245.5747    24681.648    1.1207676 
    2000    280.84548   -7205.7241   -7174.3953   -1211.1794    24681.648    1.1274187 
Loop time of 1318.92 on 16 procs for 2000 steps with 864 atoms

Performance: 0.131 ns/day, 183.183 hours/ns, 1.516 timesteps/s
98.1% CPU use with 16 MPI tasks x 1 OpenMP threads

MPI task timing breakdown:
Section |  min time  |  avg time  |  max time  |%varavg| %total
---------------------------------------------------------------
Pair    | 470.54     | 1068.1     | 1307.3     | 664.0 | 80.98
Bond    | 0.00012684 | 0.00040267 | 0.0011058  |   0.0 |  0.00
Neigh   | 0.017388   | 0.027089   | 0.038878   |   3.1 |  0.00
Comm    | 11.43      | 237.09     | 826.29     |1380.1 | 17.98
Output  | 0.12345    | 6.9533     | 18.291     | 232.1 |  0.53
Modify  | 0.0082018  | 0.010145   | 0.01378    |   1.5 |  0.00
Other   |            | 6.762      |            |       |  0.51

Nlocal:        54.0000 ave          68 max          38 min
Histogram: 2 0 1 2 1 3 1 3 1 2
Nghost:        453.312 ave         541 max         363 min
Histogram: 1 1 1 3 2 1 4 1 1 1
Neighs:         0.00000 ave           0 max           0 min
Histogram: 16 0 0 0 0 0 0 0 0 0
FullNghs:      1935.12 ave        2876 max         990 min
Histogram: 2 0 2 1 4 1 2 1 2 1

Total # of neighbors = 30962
Ave neighs/atom = 35.835648
Ave special neighs/atom = 0.0000000
Neighbor list builds = 199
Dangerous builds = 198
Setting up Verlet run ...
  Unit style    : metal
  Current step  : 2000
  Time step     : 0.001
Per MPI rank memory allocation (min/avg/max) = 8.894 | 8.901 | 8.907 Mbytes
Step Temp PotEng TotEng Press Volume c_msd[4] 
    2000        337.5   -7205.7241   -7168.0754   -937.68092    24681.648    1.1274187 
    2010    326.39129   -7204.4809   -7168.0714   -890.24405    24679.529    1.1289274 
    2020    319.79022    -7203.722   -7168.0489   -818.83897    24673.364    1.1297256 
    2030    322.49637   -7203.9688   -7167.9939   -716.92799    24663.498    1.1303793 
    2040     311.7303   -7202.6738   -7167.8999   -559.37491    24650.418    1.1318488 
    2050    300.16947   -7201.2376   -7167.7533   -420.47865    24634.799    1.1330258 
    2060    305.33456   -7201.5939   -7167.5333   -333.32743    24617.261     1.132594 
    2070    312.81789   -7202.1336   -7167.2383   -323.80678    24598.178    1.1309632 
    2080    315.98831   -7202.1444   -7166.8954   -384.07371    24577.611    1.1286854 
    2090    319.80501    -7202.211   -7166.5363   -440.74505    24555.307    1.1262647 
    2100    324.16189   -7202.3503   -7166.1895   -277.06195    24531.109    1.1247219 
    2110      326.479   -7202.2953   -7165.8761    65.309113    24505.746     1.124673 
    2120    327.66045   -7202.1567   -7165.6057    313.47051    24480.624    1.1256211 
    2130    326.06027   -7201.7484   -7165.3759    395.23281    24456.841    1.1268304 
    2140    326.55836   -7201.6055   -7165.1775    320.24556    24434.745     1.127742 
    2150    329.65985   -7201.7738   -7164.9998    146.11445    24414.028     1.127824 
    2160    329.44558   -7201.5882   -7164.8381   -49.739981    24393.951    1.1275112 
    2170    327.08293   -7201.1727   -7164.6861   -119.02352    24373.697    1.1278923 
    2180    327.36413   -7201.0509    -7164.533   -7.3425202    24352.989    1.1295181 
    2190    323.78227   -7200.4891   -7164.3707    223.73259    24332.278    1.1324797 
    2200    320.50261   -7199.9434   -7164.1909    516.31122    24312.583     1.135965 
    2210      325.238   -7200.2684   -7163.9876       727.63    24295.134    1.1388834 
    2220    324.52424   -7199.9663   -7163.7651    739.56733    24280.784     1.141442 
    2230    319.54527   -7199.1769   -7163.5312    664.81941    24269.656    1.1444904 
    2240    322.80301   -7199.2903   -7163.2811    493.14888    24261.401    1.1486626 
    2250    327.99396   -7199.6039   -7163.0157    153.10008    24255.238      1.15473 
    2260    328.95053   -7199.4431   -7162.7482   -208.14439     24249.74    1.1627097 
    2270    331.63813   -7199.4815   -7162.4867   -412.50843    24243.385    1.1711208 
    2280     332.4129    -7199.315   -7162.2338   -449.36147    24235.278     1.178675 
    2290    336.17814   -7199.4944   -7161.9932   -480.69543    24225.179     1.185493 
    2300    337.78628   -7199.4471   -7161.7665   -434.67446    24213.004    1.1924489 
    2310    336.82538   -7199.1307   -7161.5573   -296.30148    24198.934     1.199364 
    2320    339.45185   -7199.2292   -7161.3629   -89.002765    24183.561    1.2054156 
    2330    342.36565   -7199.3737   -7161.1823    170.96559    24167.778    1.2102159 
    2340    342.04972   -7199.1748   -7161.0187    475.85702     24152.72    1.2134935 
    2350    346.55527   -7199.5329   -7160.8741    672.52384    24139.655    1.2153031 
    2360    346.77564   -7199.4381   -7160.7548    799.82484    24129.438     1.217222 
    2370    339.53449   -7198.5358   -7160.6602    895.66864    24122.652    1.2207691 
    2380    342.08425   -7198.7407   -7160.5806    736.11108    24119.614    1.2255793 
    2390    348.89943   -7199.4347   -7160.5144    591.24599    24119.777    1.2310896 
    2400    348.13172   -7199.3071   -7160.4725    540.18992    24122.554    1.2376443 
    2410    344.90682   -7198.9303   -7160.4555    349.43882     24127.63    1.2446838 
    2420    343.54795   -7198.7798   -7160.4565    83.226241    24134.244    1.2509963 
    2430     339.2482    -7198.313   -7160.4693   -128.22634    24141.304     1.256475 
    2440     334.3663   -7197.7863   -7160.4872   -214.75901      24147.9    1.2612759 
    2450    332.29164   -7197.5679   -7160.5002   -138.57377     24153.68    1.2653382 
    2460    338.56699   -7198.2726   -7160.5049   -30.398091    24158.926     1.268553 
    2470    347.91222   -7199.3217   -7160.5116   -75.847034    24164.021    1.2717339 
    2480    349.21292   -7199.4946   -7160.5394   -134.15851    24168.815    1.2760423 
    2490    343.23367   -7198.8796   -7160.5914   -1.9309495    24173.143    1.2813865 
    2500    342.45698   -7198.8645   -7160.6629     140.1508    24177.495    1.2870215 
    2510    347.23795   -7199.4907   -7160.7557     103.9871    24182.404    1.2931767 
    2520    348.59332   -7199.7644   -7160.8783    21.402958    24187.781    1.3003649 
    2530    346.59026   -7199.6964   -7161.0338   -69.027745    24193.278    1.3078404 
    2540     341.7114    -7199.336   -7161.2176   -194.97852    24198.493    1.3143937 
    2550    335.59898   -7198.8513   -7161.4147   -206.91139    24202.946    1.3190553 
    2560    336.30521   -7199.1326   -7161.6172   -112.95045    24206.532    1.3220588 
    2570    333.70279   -7199.0456   -7161.8205    68.403241    24209.688    1.3255802 
    2580    335.68786    -7199.469   -7162.0226    41.272169    24213.091    1.3308229 
    2590    342.33325     -7200.42   -7162.2322   -122.55183    24216.639    1.3379594 
    2600     341.3728   -7200.5362   -7162.4555   -251.68406     24219.68    1.3474537 
    2610    336.58409   -7200.2283   -7162.6818   -355.68062    24221.656    1.3593504 
    2620    335.31394   -7200.3072   -7162.9024   -406.01736    24222.117    1.3726803 
    2630    332.44016   -7200.1943   -7163.1101   -321.07679    24220.873    1.3860092 
    2640    331.04592   -7200.2262   -7163.2976    -202.1502    24218.231     1.398089 
    2650     328.2723   -7200.0793   -7163.4601   -130.33961    24214.698    1.4089328 
    2660    321.89051   -7199.4963   -7163.5889   -214.19035    24210.538     1.419047 
    2670    325.21601   -7199.9601   -7163.6817   -317.14832    24205.429    1.4288904 
    2680    333.52961    -7200.952   -7163.7463   -303.02899    24198.994    1.4393036 
    2690    340.17507   -7201.7465   -7163.7995   -287.36438    24191.236    1.4502022 
    2700    341.32191   -7201.9299    -7163.855   -226.18211    24182.233    1.4602211 
    2710    336.34134   -7201.4334    -7163.914   -86.122606    24172.241    1.4678107 
    2720    331.32752   -7200.9279   -7163.9678    332.62737    24161.979    1.4726114 
    2730    328.25738   -7200.6227   -7164.0051    720.55791    24153.127    1.4754041 
    2740    327.86202    -7200.596   -7164.0225    999.38124    24147.368     1.477229 
    2750    330.71356   -7200.9136    -7164.022    1206.2183    24145.916    1.4789477 
    2760    333.55581   -7201.2174   -7164.0088     1330.762    24149.674    1.4809027 
    2770     332.7745   -7201.1111   -7163.9896    1300.4036    24159.182    1.4833016 
    2780    327.17943   -7200.4601   -7163.9627    1096.5343    24174.347    1.4862693 
    2790     321.6981   -7199.8022   -7163.9163    738.02792    24194.323    1.4898017 
    2800    325.31986   -7200.1279    -7163.838    358.63391    24217.632    1.4935639 
    2810    334.84156   -7201.0835   -7163.7314    104.90455    24242.688    1.4966653 
    2820    333.20549   -7200.7794   -7163.6098    5.6275206    24268.404     1.498005 
    2830    327.91163   -7200.0561    -7163.477    -112.5179    24294.275    1.4967576 
    2840    329.96366   -7200.1297   -7163.3218   -449.10462    24319.704    1.4936473 
    2850    335.19902   -7200.5327   -7163.1407   -860.88752    24343.263    1.4911293 
    2860    340.63983   -7200.9491   -7162.9503   -1278.0298    24363.122    1.4915249 
    2870    335.42816   -7200.1829   -7162.7654   -1542.9304    24377.464    1.4959175 
    2880    325.72677   -7198.9203    -7162.585   -1476.2178    24385.167     1.503337 
    2890    328.30109   -7199.0179   -7162.3955   -1281.5281     24386.38    1.5115533 
    2900    335.71706   -7199.6451   -7162.1954   -937.88449    24381.987    1.5194333 
    2910    339.49074   -7199.8712   -7162.0005   -567.88341    24373.434    1.5264982 
    2920    339.21554   -7199.6636   -7161.8236   -225.64866    24362.335    1.5327606 
    2930    332.68943   -7198.7788   -7161.6668   -10.996775    24350.155    1.5383547 
    2940     336.2887   -7199.0406   -7161.5271    32.529281    24337.811     1.542593 
    2950    343.20206   -7199.6932   -7161.4085    66.746726    24325.554    1.5462461 
    2960    341.73566   -7199.4419   -7161.3208    110.41217    24313.521    1.5506545 
    2970    337.74361   -7198.9357   -7161.2599     114.9825    24301.909    1.5549908 
    2980    341.68992   -7199.3358   -7161.2197   -130.41571    24290.623    1.5571107 
    2990    337.51668   -7198.8458   -7161.1953   -173.56028      24278.8    1.5575225 
    3000    328.88213   -7197.8643    -7161.177   -15.112042    24266.233    1.5587901 
    3010    326.16261   -7197.5352   -7161.1513    94.180229    24253.511    1.5623882 
    3020    323.26582   -7197.1681   -7161.1073    196.68014    24241.154    1.5680623 
    3030     332.4157   -7198.1263   -7161.0448    133.12403    24229.548    1.5749492 
    3040    340.07558   -7198.9094   -7160.9735   -14.811032    24218.441    1.5834261 
    3050    337.96204   -7198.6045   -7160.9044    87.996981    24207.342     1.592983 
    3060    340.62087   -7198.8356   -7160.8388    265.75631    24196.594    1.6013857 
    3070    339.48986   -7198.6443   -7160.7737    538.43807    24186.985    1.6077891 
    3080    340.85096   -7198.7382   -7160.7158    763.02492    24179.637    1.6126988 
    3090    342.39426   -7198.8637   -7160.6691     971.1601    24175.583    1.6176446 
    3100    345.86807   -7199.2217   -7160.6396    1035.3228    24175.697    1.6234633 
    3110     348.8269   -7199.5446   -7160.6324    862.16623    24180.246    1.6292029 
    3120    352.65614   -7199.9968   -7160.6574    622.87179    24188.582    1.6336362 
    3130    349.56632   -7199.7127    -7160.718    372.26419    24199.703    1.6368548 
    3140    344.74435   -7199.2641   -7160.8073    164.47039    24212.569    1.6393847 
    3150    348.05833   -7199.7462   -7160.9198   -9.0902435    24226.277    1.6418437 
    3160    344.75429   -7199.5149    -7161.057    -17.48212    24240.125    1.6457066 
    3170    333.83804   -7198.4492   -7161.2091    183.91489    24254.118    1.6514974 
    3180    331.87888   -7198.3785   -7161.3569    273.52976    24269.005      1.65773 
    3190    338.48562    -7199.255   -7161.4964    124.41862    24285.134    1.6632841 
    3200    337.96664   -7199.3356   -7161.6349   -34.704926    24301.961    1.6681303 
    3210    331.48708   -7198.7484   -7161.7705   -147.22687    24318.826    1.6711111 
    3220    337.58236   -7199.5593   -7161.9015   -444.63858    24335.123     1.671528 
    3230    342.78425    -7200.274   -7162.0359   -692.91787    24349.628    1.6715277 
    3240    341.63912   -7200.2963    -7162.186    -683.6117    24361.302    1.6729482 
    3250    338.18202   -7200.0749   -7162.3502   -586.02687    24370.098    1.6753247 
    3260    338.06446   -7200.2355   -7162.5239   -560.44415    24376.358    1.6774693 
    3270     341.4839      -7200.8    -7162.707    -496.7148    24380.218    1.6793942 
    3280    343.73407   -7201.2493   -7162.9052   -383.62072    24381.918    1.6817703 
    3290    338.89377   -7200.9168   -7163.1127   -286.82135    24381.933    1.6844379 
    3300    335.04083    -7200.692   -7163.3177   -321.29974    24380.626    1.6863164 
    3310    336.52354   -7201.0538   -7163.5141   -349.18577    24377.885    1.6864034 
    3320    338.30882   -7201.4429   -7163.7041   -204.42858    24373.667    1.6840941 
    3330    337.74884   -7201.5659   -7163.8895   -76.263965    24368.485    1.6792062 
    3340    337.01531   -7201.6671   -7164.0726   -84.341664    24362.855    1.6726591 
    3350    329.43523   -7200.9935   -7164.2445    -99.71982    24356.796    1.6671286 
    3360    322.76122    -7200.394   -7164.3895     55.54919    24350.293    1.6651209 
    3370    322.49185   -7200.4699   -7164.4955    267.90842    24343.981    1.6676763 
    3380    322.97245   -7200.5885   -7164.5604    401.29498    24338.759    1.6740197 
    3390    316.19108   -7199.8536    -7164.582    459.37774    24335.234    1.6814828 
    3400    312.69255     -7199.44   -7164.5587     251.6004    24333.594    1.6867682 
    3410    317.62601   -7199.9199   -7164.4882   -19.071094    24333.028    1.6883289 
    3420    319.80152   -7200.0476   -7164.3733   -51.760414     24332.47    1.6879631 
    3430    327.35538   -7200.7415   -7164.2245    -80.14661    24331.693    1.6888169 
    3440     331.7382   -7201.0591   -7164.0532   -380.94312    24330.449    1.6928717 
    3450    321.85601    -7199.774   -7163.8705   -593.60923    24327.562    1.6997548 
    3460     322.2212   -7199.6176   -7163.6733    -666.6987    24322.088    1.7070081 
    3470    331.38586   -7200.4271   -7163.4606   -721.65013    24313.622    1.7130276 
    3480    326.02468   -7199.6157   -7163.2471   -716.66274     24301.92    1.7177329 
    3490    327.12783   -7199.5339   -7163.0423   -679.10276    24286.944    1.7204213 
    3500    338.29295    -7200.582   -7162.8449   -421.05271     24268.91    1.7213943 
    3510    342.03245   -7200.8254   -7162.6712   -147.48796    24248.847     1.722855 
    3520    345.57063    -7201.087   -7162.5381   -176.19218    24227.811    1.7265974 
    3530    348.06754   -7201.2774   -7162.4499   -236.67331    24205.775    1.7329154 
    3540    340.93224   -7200.4312   -7162.3997   -43.071648    24182.576    1.7407469 
    3550    334.09449   -7199.6303   -7162.3616    213.24065    24158.981     1.748264 
    3560     344.0333   -7200.7062   -7162.3288    149.13325    24135.908    1.7538125 
    3570    342.38754    -7200.501   -7162.3072     134.1238    24113.283    1.7574767 
    3580    337.22012   -7199.9136   -7162.2962    227.88386    24091.053    1.7591671 
    3590    336.98004   -7199.8764   -7162.2858    262.29226    24069.527    1.7594869 
    3600    335.49364    -7199.697   -7162.2721    384.65269    24048.943    1.7600351 
    3610    341.73957   -7200.3795   -7162.2579    589.58351    24029.795    1.7617278 
    3620    346.33855   -7200.8875   -7162.2529    850.14189    24012.988    1.7652015 
    3630     341.7113   -7200.3809   -7162.2625     1014.688    23999.631    1.7698672 
    3640    343.25103   -7200.5775   -7162.2873    878.45956    23990.375    1.7740125 
    3650    342.62974   -7200.5454   -7162.3245    647.21383    23984.762    1.7775278 
    3660    341.19784   -7200.4375   -7162.3764    412.17923    23981.839    1.7810985 
    3670    337.32317   -7200.0654   -7162.4365    171.10758    23980.647    1.7850928 
    3680      335.959   -7199.9772   -7162.5004   -81.885427    23980.168    1.7894466 
    3690    333.79678   -7199.7965   -7162.5609   -77.439014     23979.45    1.7940638 
    3700    338.32873   -7200.3579   -7162.6168    176.64633    23978.488    1.7980148 
    3710    340.75989   -7200.6854   -7162.6731    549.99959    23978.317    1.8008856 
    3720    335.77774   -7200.1898   -7162.7333     879.7489    23980.498    1.8031094 
    3730    335.95769   -7200.2747   -7162.7981     1052.204     23986.46    1.8044688 
    3740    335.76835   -7200.3229   -7162.8674    1085.2907    23997.033    1.8052949 
    3750     330.3917    -7199.793   -7162.9373    986.63542    24012.443    1.8068164 
    3760    327.48904   -7199.5288   -7162.9969    761.14841    24032.372    1.8097627 
    3770    330.76697   -7199.9362   -7163.0386    537.25851    24055.992    1.8138259 
    3780    331.81794   -7200.0812   -7163.0664    417.08801    24082.443    1.8189328 
    3790    326.87663   -7199.5418   -7163.0783    283.30767    24111.196    1.8256072 
    3800    325.60313   -7199.3843   -7163.0628    44.464788    24141.674    1.8335673 
    3810    330.60374   -7199.8915   -7163.0122   -286.52505    24172.862    1.8416432 
    3820    335.78589   -7200.3849   -7162.9275   -619.70329    24203.327    1.8488626 
    3830    338.26168    -7200.557   -7162.8234   -676.30746    24231.719    1.8553015 
    3840    331.51964   -7199.6878   -7162.7063   -680.16959    24257.615    1.8612249 
    3850    328.55667   -7199.2148   -7162.5638     -793.517    24280.868    1.8656112 
    3860    333.63784   -7199.5959   -7162.3781   -901.26037     24300.95    1.8688859 
    3870     341.0274   -7200.1964   -7162.1542   -846.09503    24317.386    1.8739591 
    3880    342.45549   -7200.1092   -7161.9078   -638.11298    24330.348    1.8839186 
    3890    343.84244   -7200.0074   -7161.6513   -261.36731    24340.734    1.8991268 
    3900    344.78732   -7199.8498   -7161.3883   -38.162468    24349.995    1.9176994 
    3910     339.3743   -7198.9811   -7161.1234    218.35317    24359.218     1.937242 
    3920    338.20564   -7198.5878   -7160.8604    452.36118    24369.508    1.9555641 
    3930    337.86152   -7198.2883   -7160.5993    518.19056    24381.867     1.971545 
    3940    336.94067   -7197.9292   -7160.3429     349.7722    24396.552    1.9847798 
    3950    342.98711   -7198.3498    -7160.089    95.202453    24412.906    1.9958562 
    3960    345.24935   -7198.3586   -7159.8455   -161.82567    24429.841    2.0064113 
    3970    348.80759   -7198.5433   -7159.6333   -401.71125    24446.224    2.0176754 
    3980    355.14859   -7199.0772   -7159.4598   -713.43364    24460.902    2.0307203 
    3990      356.817   -7199.1358   -7159.3323   -962.66115    24472.539    2.0460635 
    4000    353.62269   -7198.7032   -7159.2561   -1286.1657    24479.936    2.0635102 
    4010      351.575   -7198.4461   -7159.2274   -1759.8082    24481.566    2.0826127 
    4020    357.03925   -7199.0746   -7159.2464   -2058.6604    24475.414    2.1026242 
    4030     358.1299   -7199.2687   -7159.3188   -2004.0111    24460.168    2.1232008 
    4040    352.46698   -7198.7608   -7159.4426   -1735.2953    24435.959    2.1442404 
    4050    343.96861   -7197.9656   -7159.5954   -1288.5885     24403.98    2.1653266 
    4060    333.27049   -7196.9214   -7159.7445   -914.38672    24366.115    2.1856811 
    4070    333.84608   -7197.1164   -7159.8754   -802.79589    24323.971     2.204924 
    4080    345.25944   -7198.5176   -7160.0034   -845.73497    24278.116    2.2246526 
    4090    347.48344   -7198.9092   -7160.1469   -712.80482    24228.551    2.2468773 
    4100    345.05378   -7198.7945   -7160.3032   -422.18635    24175.905    2.2718604 
    4110     348.7924   -7199.3746   -7160.4662   -83.182898    24121.464    2.2983974 
    4120    350.81917   -7199.7696   -7160.6352    384.49772    24066.817    2.3248217 
    4130    351.14528   -7199.9791   -7160.8083    899.48123    24014.007    2.3491577 
    4140    351.59202   -7200.2067   -7160.9861    1359.2106    23965.257    2.3700428 
    4150    348.54533   -7200.0484   -7161.1676    1620.6771    23922.479    2.3875735 
    4160    349.99815   -7200.3976   -7161.3548    1643.0423    23886.729     2.402645 
    4170    353.34537   -7200.9681   -7161.5519    1587.2429    23858.106    2.4154481 
    4180    349.48651   -7200.7379   -7161.7522    1596.8006    23836.365     2.424948 
    4190    345.53691   -7200.4868   -7161.9416    1530.0181    23821.431    2.4300789 
    4200    346.30299   -7200.7462   -7162.1155    1284.7725    23812.942    2.4313287 
    4210    341.19902   -7200.3356   -7162.2744    1074.7726    23809.925    2.4305728 
    4220    327.78891   -7198.9684    -7162.403    956.06509    23811.503    2.4290383 
    4230    327.18422   -7198.9909    -7162.493    653.69684    23817.016    2.4263286 
    4240    333.39867   -7199.7431    -7162.552    440.74955    23825.299    2.4225748 
    4250    336.24408   -7200.1051   -7162.5966    492.62028    23835.508     2.418031 
    4260    339.78444   -7200.5453   -7162.6418    572.05169    23847.756    2.4122069 
    4270    341.16398   -7200.7507   -7162.6934    502.19375     23862.32    2.4049204 
    4280    342.46169   -7200.9545   -7162.7524    201.37075     23878.88    2.3960237 
    4290    346.21697   -7201.4424   -7162.8213   -184.74161    23896.185    2.3856684 
    4300    343.87574    -7201.264   -7162.9042   -324.99663    23912.716    2.3745802 
    4310    344.94512   -7201.4782   -7162.9991   -403.19107    23927.783      2.36302 
    4320    350.96238   -7202.2592   -7163.1088    -425.3953    23941.051    2.3524531 
    4330    347.14109   -7201.9626   -7163.2385   -278.86898    23952.478    2.3452717 
    4340    341.62785    -7201.489   -7163.3799   -173.71101     23962.61    2.3417031 
    4350    334.36843   -7200.8136   -7163.5143   -310.79177    23971.791    2.3401774 
    4360    330.29321    -7200.476   -7163.6313   -678.02024    23979.434    2.3394064 
    4370     329.8651    -7200.525    -7163.728   -967.96851    23984.121    2.3390714 
    4380    334.24926   -7201.0962   -7163.8102   -1015.2351    23984.722    2.3387159 
    4390    337.30636   -7201.5174   -7163.8903   -944.57807     23981.04    2.3387484 
    4400    332.08653   -7201.0136   -7163.9689   -681.26959    23973.498    2.3405028 
    4410    332.12428   -7201.0883   -7164.0393    -364.4187    23963.215    2.3442271 
    4420    333.40632   -7201.2912   -7164.0992   -22.094804      23951.6    2.3497731 
    4430    337.55591   -7201.8114   -7164.1565    225.54079    23940.093    2.3566027 
    4440    340.40816   -7202.1953   -7164.2223    362.22285    23929.727    2.3638211 
    4450    333.31567   -7201.4781   -7164.2962    512.05287    23921.089    2.3702927 
    4460    328.23881   -7200.9833   -7164.3678    809.01215    23914.814    2.3748797 
    4470     328.1996   -7201.0374   -7164.4262    1271.8798    23912.139    2.3783291 
    4480    332.15871   -7201.5283   -7164.4755    1550.5287    23914.814    2.3824898 
    4490    334.00498   -7201.7834   -7164.5246    1560.2404    23923.916    2.3891547 
    4500    332.47893   -7201.6625    -7164.574     1375.639    23939.365    2.3990705 
    4510    331.94454    -7201.648   -7164.6191    1214.4358    23960.383    2.4111754 
    4520    337.94103    -7202.356   -7164.6582    923.99501    23986.141    2.4235108 
    4530    344.76837   -7203.1576   -7164.6982    532.73122    24015.345    2.4352298 
    4540    335.16838   -7202.1316   -7164.7431    243.61654    24046.336    2.4465287 
    4550    326.85162   -7201.2453   -7164.7845    96.750607    24077.853    2.4568181 
    4560    326.53026    -7201.231   -7164.8061    49.390392    24109.253    2.4658024 
    4570    333.19236   -7201.9733   -7164.8052   -85.806497    24140.235      2.47349 
    4580    335.23848   -7202.1835   -7164.7872   -204.14082     24170.25    2.4802298 
    4590    331.44624   -7201.7318   -7164.7585   -231.14736    24198.838    2.4859072 
    4600    327.69405   -7201.2675   -7164.7127    -377.3919    24225.796    2.4917082 
    4610    322.96002   -7200.6619   -7164.6353   -703.34988    24250.489    2.4987158 
    4620    321.28812   -7200.3533   -7164.5132    -1096.729    24271.596    2.5055674 
    4630    322.84325   -7200.3516   -7164.3379   -1260.4811    24287.582      2.51072 
    4640    332.73596   -7201.2279   -7164.1107   -1274.1098     24297.78    2.5146693 
    4650    333.94463   -7201.0926   -7163.8406   -1108.2642    24302.279    2.5190872 
    4660    332.68894   -7200.6603   -7163.5484   -771.45255    24301.912    2.5236801 
    4670    337.49048   -7200.8887   -7163.2411   -370.53407    24298.234    2.5271917 
    4680    339.27799   -7200.7813   -7162.9344   -79.218901    24292.984    2.5291058 
    4690    342.93838   -7200.9006   -7162.6453    49.896613    24287.465    2.5288986 
    4700    352.46569   -7201.7032   -7162.3851    13.576401    24282.237    2.5264551 
    4710    353.27373   -7201.5775   -7162.1692    19.697186    24277.227     2.523272 
    4720    344.06091   -7200.3837   -7162.0032  -0.22479271    24272.422    2.5215656 
    4730    340.92302   -7199.9007   -7161.8702   -322.14483    24267.598    2.5233768 
    4740    340.26759   -7199.7126   -7161.7552   -650.12056    24261.506    2.5295602 
    4750    335.65625    -7199.097    -7161.654   -870.04716    24252.785    2.5383111 
    4760    338.13031   -7199.2804   -7161.5614   -983.81786    24240.544    2.5467348 
    4770    352.41524   -7200.7937   -7161.4812   -1138.6002    24224.332    2.5530366 
    4780    362.81343   -7201.9106   -7161.4382   -1120.1022    24203.684     2.558313 
    4790    359.77291   -7201.5829   -7161.4497   -764.68978    24178.846    2.5642321 
    4800    354.25304   -7201.0233   -7161.5058   -184.54043    24151.429    2.5700701 
    4810    355.51376   -7201.2506   -7161.5925    284.32739    24123.852     2.574798 
    4820    358.38726   -7201.6949   -7161.7162    676.04625    24098.176    2.5786977 
    4830     358.3127   -7201.8567   -7161.8864    905.35746    24075.955    2.5827119 
    4840    356.73416   -7201.9027   -7162.1085    1074.4579    24058.124    2.5876308 
    4850    344.91051   -7200.8399   -7162.3646    1232.4729    24045.316    2.5936049 
    4860    338.16007   -7200.3469   -7162.6246     1159.956    24037.988    2.5992297 
    4870    340.97506   -7200.9118   -7162.8755    860.75898    24035.677    2.6028109 
    4880    342.28933   -7201.3018   -7163.1189    654.48895    24037.121    2.6042454 
    4890     339.0317   -7201.1701   -7163.3506    654.43261    24041.395    2.6046378 
    4900    335.86867   -7201.0277    -7163.561    899.47582    24048.457    2.6043934 
    4910    334.68261   -7201.0804    -7163.746    1209.2997    24059.243    2.6031631 
    4920    335.55304   -7201.3374   -7163.9059    1075.6338     24074.79    2.6013458 
    4930    341.14227   -7202.1011   -7164.0462    606.93774    24094.478    2.5993778 
    4940    341.50484    -7202.269   -7164.1736    180.43037    24116.398    2.5964181 
    4950    341.09185   -7202.3415   -7164.2922   -252.06703    24138.671    2.5912362 
    4960    340.68255   -7202.4071   -7164.4035   -627.82492     24159.46    2.5845609 
    4970    335.92563   -7201.9768   -7164.5038   -823.06359    24177.209    2.5777881 
    4980     338.0617   -7202.3045   -7164.5932   -867.25566    24191.113    2.5714457 
    4990     345.0441   -7203.1682    -7164.678   -835.04671    24201.037    2.5663198 
    5000      346.214   -7203.3894   -7164.7687   -686.64142    24207.225    2.5630505 
Loop time of 2147.24 on 16 procs for 3000 steps with 864 atoms

Performance: 0.121 ns/day, 198.819 hours/ns, 1.397 timesteps/s
98.1% CPU use with 16 MPI tasks x 1 OpenMP threads

MPI task timing breakdown:
Section |  min time  |  avg time  |  max time  |%varavg| %total
---------------------------------------------------------------
Pair    | 1192.6     | 1866.3     | 2115.2     | 530.8 | 86.91
Bond    | 0.00019169 | 0.00066122 | 0.0018163  |   0.0 |  0.00
Neigh   | 0.027972   | 0.039702   | 0.053458   |   3.2 |  0.00
Comm    | 31.576     | 211.64     | 819.45     |1397.7 |  9.86
Output  | 0.17875    | 0.18296    | 0.24497    |   3.7 |  0.01
Modify  | 0.13562    | 69.094     | 143.56     | 690.3 |  3.22
Other   |            | 0.01397    |            |       |  0.00

Nlocal:        54.0000 ave          66 max          41 min
Histogram: 1 0 3 0 3 3 2 2 1 1
Nghost:        450.938 ave         516 max         367 min
Histogram: 1 1 1 1 3 1 1 5 0 2
Neighs:         0.00000 ave           0 max           0 min
Histogram: 16 0 0 0 0 0 0 0 0 0
FullNghs:      1955.12 ave        2718 max        1170 min
Histogram: 1 2 1 1 3 1 4 0 2 1

Total # of neighbors = 31282
Ave neighs/atom = 36.206019
Ave special neighs/atom = 0.0000000
Neighbor list builds = 300
Dangerous builds = 300
Setting up Verlet run ...
  Unit style    : metal
  Current step  : 5000
  Time step     : 0.001
Per MPI rank memory allocation (min/avg/max) = 8.895 | 8.901 | 8.907 Mbytes
Step Temp PotEng TotEng Press Volume c_msd[4] 
    5000      346.214   -7203.3894   -7164.7687   -686.64142    24207.225    2.5630505 
    5010    342.85491   -7203.0229    -7164.777   -508.12122    24205.863    2.5651703 
    5020    342.40861   -7202.9965   -7164.8003   -476.72239     24202.21    2.5689654 
    5030    340.93129   -7202.8664    -7164.835   -537.49814    24196.462    2.5753203 
    5040    339.75984   -7202.7808   -7164.8801   -632.70474    24188.355    2.5834837 
    5050    340.43677   -7202.9107   -7164.9345   -648.67497    24177.511    2.5916952 
    5060    341.56111    -7203.101   -7164.9994   -645.86174    24163.855    2.5995865 
    5070    342.85453   -7203.3266   -7165.0807   -646.37037    24147.385    2.6085513 
    5080    339.18922   -7203.0172   -7165.1802   -589.04802    24128.112    2.6198688 
    5090    335.24307   -7202.6878    -7165.291   -456.58465     24106.31     2.633246 
    5100    338.21246   -7203.1383   -7165.4102   -313.14776     24082.52    2.6476648 
    5110    340.31182   -7203.5037   -7165.5414   -255.38399    24057.305    2.6627646 
    5120    340.47439   -7203.6712   -7165.6907   -92.967752    24031.033    2.6788445 
    5130    338.85513   -7203.6594   -7165.8596    86.768155    24004.373    2.6965993 
    5140    332.46617   -7203.1305   -7166.0434    277.56819    23978.101    2.7159758 
    5150    328.80274    -7202.912   -7166.2336    634.40065    23953.097    2.7355917 
    5160    325.90656   -7202.7783    -7166.423     1065.483    23930.868    2.7540794 
    5170    322.15584   -7202.5474   -7166.6104    1285.7267     23913.12    2.7706795 
    5180    318.59719   -7202.3293   -7166.7893    1333.0253    23900.805    2.7857351 
    5190    322.12541    -7202.889   -7166.9554    1248.9119    23894.134    2.7991228 
    5200    328.01367   -7203.7036   -7167.1132    1082.9602    23892.745    2.8097314 
    5210    329.24604   -7203.9962   -7167.2683    1040.2644    23896.018    2.8168384 
    5220    330.20622   -7204.2586   -7167.4236    1020.2368    23903.743    2.8201339 
    5230    333.41778   -7204.7783   -7167.5851    763.27232    23915.722    2.8198795 
    5240    328.43904   -7204.3888   -7167.7509    533.38105    23931.007    2.8172388 
    5250    325.95735   -7204.2727   -7167.9116    320.82625    23948.634    2.8126828 
    5260    329.32421   -7204.8025   -7168.0659   -1.9649714    23967.634    2.8066527 
    5270    320.84969   -7203.9998   -7168.2085   -231.72755    23986.737    2.7999217 
    5280    315.12262   -7203.4776   -7168.3252    -525.4476     24004.87    2.7918889 
    5290    321.65168   -7204.2904   -7168.4097    -852.8987    24020.798    2.7820431 
    5300    325.97826   -7204.8324    -7168.469   -1046.2843    24033.185    2.7708103 
    5310     326.3227   -7204.9137   -7168.5119   -1107.8521    24041.145    2.7588346 
    5320    324.04814   -7204.6863   -7168.5382   -971.06393    24044.428    2.7472592 
    5330     319.0306   -7204.1263   -7168.5379    -767.9926    24043.551    2.7373179 
    5340    318.82251   -7204.0622    -7168.497   -755.56035    24039.264    2.7294439 
    5350     324.1818   -7204.5729   -7168.4099   -728.87884    24031.725    2.7242815 
    5360    320.03857   -7203.9741   -7168.2733   -541.70406      24021.1    2.7225758 
    5370      312.248   -7202.9086   -7168.0768   -454.69364    24008.065    2.7230721 
    5380    316.65276   -7203.1276   -7167.8045   -599.73944    23992.918      2.72371 
    5390     323.4326   -7203.5364    -7167.457   -754.86973    23975.138    2.7245295 
    5400    323.20318   -7203.1183   -7167.0645   -717.48773    23954.147    2.7256406 
    5410    326.00816   -7203.0265   -7166.6598     -514.533    23930.066    2.7260487 
    5420    330.65155   -7203.1504   -7166.2657   -214.14987    23903.749    2.7258578 
    5430    335.67208   -7203.3548   -7165.9101    90.481796    23876.444    2.7255537 
    5440    336.41846   -7203.1331   -7165.6052    412.70566    23849.449    2.7257432 
    5450    338.91707   -7203.1562   -7165.3495    722.73186    23824.129    2.7264508 
    5460    347.11716   -7203.8596   -7165.1381    865.10551    23801.715    2.7277991 
    5470    348.92448   -7203.8983   -7164.9753     848.1631    23782.817     2.730506 
    5480    343.16357   -7203.1384    -7164.858    795.10707    23767.404    2.7334929 
    5490    343.02524   -7203.0345   -7164.7695    775.27449     23755.28    2.7357887 
    5500    351.62224    -7203.928    -7164.704    725.47517    23746.345      2.73794 
    5510    357.75227   -7204.5828    -7164.675    695.00625    23740.429    2.7409035 
    5520    354.85663   -7204.2775   -7164.6927    701.73619    23737.423    2.7451479 
    5530    346.85763    -7203.443   -7164.7505    549.15549    23737.278    2.7497391 
    5540    339.16297   -7202.6605   -7164.8263    369.34287    23739.462    2.7534591 
    5550    343.86652   -7203.2702   -7164.9113    164.74099    23743.204    2.7564629 
    5560    347.64899   -7203.7926   -7165.0119    227.72134    23747.772    2.7602491 
    5570     342.6529   -7203.3572   -7165.1338    419.59499    23753.381    2.7652706 
    5580    332.43909   -7202.3451    -7165.261    518.68365    23760.785    2.7704543 
    5590    332.17168   -7202.4345   -7165.3803    471.41549    23770.385    2.7745959 
    5600    332.74904   -7202.6091   -7165.4905    474.34916    23782.098    2.7785515 
    5610    330.74755   -7202.4876   -7165.5922    459.85818    23795.923    2.7835759 
    5620    335.89072   -7203.1541    -7165.685    205.96207    23811.723    2.7895738 
    5630    340.58007   -7203.7656   -7165.7734   -76.284462    23828.518    2.7966258 
    5640    340.94943   -7203.9013   -7165.8678   -88.622707    23845.254    2.8053132 
    5650    339.65912   -7203.8634   -7165.9739   -9.9770537    23861.796    2.8153801 
    5660     340.2787    -7204.051   -7166.0924   -10.220404    23878.411    2.8249368 
    5670    340.23411   -7204.1768   -7166.2232    33.790986    23895.168    2.8319705 
    5680    337.46257   -7204.0098   -7166.3654    35.012346    23912.208    2.8370064 
    5690    336.83016   -7204.0875   -7166.5135   -151.23101    23929.492    2.8419617 
    5700    335.88569   -7204.1305   -7166.6619   -404.33975    23946.265    2.8486967 
    5710    332.04182   -7203.8439   -7166.8041   -605.59824    23961.476    2.8581863 
    5720    331.61269   -7203.9281   -7166.9362   -801.51997    23974.213    2.8697159 
    5730    332.61689   -7204.1632   -7167.0593   -989.15298    23983.605    2.8819519 
    5740    330.98126   -7204.0981   -7167.1767   -995.53519    23988.905    2.8940211 
    5750    330.49057    -7204.154   -7167.2872   -924.58145    23989.993    2.9046579 
    5760     327.2768   -7203.8964   -7167.3882   -779.37499     23987.14    2.9126739 
    5770    322.38975   -7203.4346   -7167.4715   -645.65014    23980.901     2.918039 
    5780    326.22097   -7203.9242   -7167.5337   -524.27496    23971.839    2.9217785 
    5790    325.39425   -7203.8724   -7167.5742   -340.73471    23960.491    2.9251687 
    5800    323.46744   -7203.6761   -7167.5928   -278.74349    23947.556    2.9279994 
    5810    325.85345   -7203.9337   -7167.5842   -360.65803    23933.264    2.9302387 
    5820    328.25834   -7204.1631   -7167.5454   -345.20071    23917.358    2.9331549 
    5830     327.3498   -7203.9884    -7167.472   -124.69272    23899.934    2.9370504 
    5840    327.52414    -7203.894   -7167.3582    153.52879    23881.871    2.9407975 
    5850    333.68894   -7204.4254   -7167.2019    270.72405     23864.26     2.943631 
    5860     339.7043   -7204.9033   -7167.0088    381.60343    23847.693    2.9455088 
    5870    340.05272   -7204.7229   -7166.7895    518.81891     23832.63    2.9455254 
    5880    337.68747   -7204.2168   -7166.5472    556.65282    23819.601    2.9421009 
    5890    343.07088   -7204.5514   -7166.2813    470.66684    23808.802    2.9346773 
    5900    347.87404   -7204.8043   -7165.9984    465.78995    23799.944    2.9244172 
    5910    348.35388   -7204.5782   -7165.7188    630.20273    23793.033    2.9123943 
    5920    345.25523   -7203.9682   -7165.4545     800.2873    23788.735    2.8989013 
    5930    340.31994   -7203.1719   -7165.2087    902.44745    23787.771    2.8835827 
    5940    345.35167   -7203.5001   -7164.9756    879.16177    23790.587    2.8663035 
    5950    353.59832   -7204.2009   -7164.7565    605.19679    23797.049    2.8488944 
    5960     350.0438    -7203.617   -7164.5691    309.86891    23806.139      2.83394 
    5970    339.96779    -7202.337    -7164.413    105.78073    23816.662    2.8217927 
    5980    338.78734   -7202.0627   -7164.2705    11.656864    23827.785     2.809929 
    5990    346.06434   -7202.7398   -7164.1358   -159.98517    23839.031    2.7964822 
    6000    352.59008    -7203.353   -7164.0211   -449.51508    23849.642    2.7823022 
    6010    352.25996   -7203.2341   -7163.9389   -480.21636    23858.552    2.7696717 
    6020    349.49991   -7202.8781   -7163.8909    -413.7996    23865.538    2.7601305 
    6030     349.2899   -7202.8359   -7163.8721   -519.33382    23870.753    2.7535029 
    6040    351.33548   -7203.0777   -7163.8857   -634.61874    23873.808    2.7485213 
    6050    351.82415   -7203.1813   -7163.9348   -740.41135    23874.198    2.7442109 
    6060    355.67331   -7203.7005   -7164.0246   -890.34636    23871.429    2.7406327 
    6070    352.73932    -7203.505   -7164.1564   -948.07833    23864.883    2.7390256 
    6080    349.18663   -7203.2781   -7164.3258   -868.30764    23854.291    2.7400147 
    6090    346.12807   -7203.1393   -7164.5282   -661.72667    23839.978    2.7437458 
    6100    337.76262    -7202.425    -7164.747   -409.97854    23822.749    2.7508196 
    6110    339.74722   -7202.8687   -7164.9694   -218.44327    23803.605    2.7611461 
    6120    342.87624    -7203.445   -7165.1967   -45.630034    23783.355     2.774431 
    6130    334.74034   -7202.7649   -7165.4242    75.294567     23762.72    2.7895405 
    6140    329.81264    -7202.426   -7165.6349    72.088214    23742.194    2.8037356 
    6150    334.33271   -7203.1214   -7165.8261   -12.454351    23721.738    2.8151556 
    6160    337.36796   -7203.6327   -7165.9988     80.90132    23701.123    2.8245692 
    6170    340.79441   -7204.1741   -7166.1579    241.97477    23680.669     2.833306 
    6180    339.45723   -7204.1695   -7166.3026    511.04286    23661.081     2.841184 
    6190    340.74721   -7204.4413   -7166.4304    657.48788    23643.402     2.846701 
    6200    345.32855   -7205.0702   -7166.5483     746.8821    23628.289    2.8506133 
    6210    340.94411   -7204.6908    -7166.658    786.89629    23616.137    2.8558165 
    6220    334.90296   -7204.1106   -7166.7517    576.64008    23607.055    2.8627613 
    6230    335.06058   -7204.1992   -7166.8227     273.5391     23600.25    2.8691806 
    6240    336.03745    -7204.359   -7166.8735    243.28023    23594.624    2.8733973 
    6250    332.00371   -7203.9439   -7166.9084    353.37992    23589.964    2.8753295 
    6260    327.23318   -7203.4276   -7166.9242    486.02516    23586.711    2.8756203 
    6270    328.26111   -7203.5377   -7166.9197    605.97733    23585.425    2.8745851 
    6280    331.00297   -7203.8223   -7166.8984    761.96804    23586.666    2.8726092 
    6290    338.27205   -7204.6058    -7166.871    695.80225    23591.033    2.8700974 
    6300    343.42766   -7205.1586   -7166.8488    355.77035    23598.275     2.868277 
    6310    338.70091   -7204.6196    -7166.837    42.184908    23607.134    2.8683063 
    6320    330.77026   -7203.7246   -7166.8267   -70.140477    23616.388    2.8690114 
    6330    326.58601   -7203.2338   -7166.8026   -2.9660425    23625.568    2.8682639 
    6340    326.69258   -7203.1995   -7166.7564     106.7228    23634.903     2.865411 
    6350    327.81969    -7203.258   -7166.6892    176.23798    23644.811    2.8608808 
    6360    328.42521   -7203.2387   -7166.6024    307.08404    23655.674    2.8544001 
    6370    335.25336    -7203.897    -7166.499    263.67317    23667.942    2.8451772 
    6380    341.08436   -7204.4352   -7166.3867    171.78349    23681.524    2.8340933 
    6390    342.22033   -7204.4524   -7166.2772   0.12447974    23696.025    2.8230141 
    6400     335.4228   -7203.5882   -7166.1713    -14.24599    23710.842    2.8130469 
    6410     331.0852   -7202.9946   -7166.0616    30.727078    23725.899    2.8032434 
    6420    335.87789   -7203.4074   -7165.9397   -147.42565    23741.299    2.7935718 
    6430    335.32802   -7203.2128   -7165.8065   -471.50654    23756.312    2.7859306 
    6440    333.62645   -7202.8836   -7165.6671   -729.39113    23769.626    2.7811213 
    6450    334.24373   -7202.8044   -7165.5191   -809.76625    23780.171    2.7784651 
    6460    339.04951   -7203.1853   -7165.3638    -835.9549    23787.506     2.777868 
    6470    343.06707   -7203.4777   -7165.2081   -819.93449    23791.444    2.7799019 
    6480    340.35286   -7203.0272   -7165.0603   -724.33342    23791.998    2.7844141 
    6490    340.67405   -7202.9249   -7164.9222    -747.1511    23789.425    2.7911808 
    6500    343.28488   -7203.0854   -7164.7915   -802.60712    23783.608    2.8013126 
    6510    347.57845   -7203.4432   -7164.6703   -763.33727    23774.288    2.8165034 
    6520    353.36193   -7203.9848   -7164.5667   -519.34921    23761.617    2.8373246 
    6530    357.53123   -7204.3765   -7164.4933   -239.28305    23746.476    2.8627847 
    6540    353.60144   -7203.9025   -7164.4577   -19.938687    23730.002    2.8906279 
    6550    347.54842   -7203.2259   -7164.4564   -54.097355    23713.013     2.917852 
    6560     348.4595    -7203.354   -7164.4828   -220.12895    23695.416    2.9436116 
    6570    347.58108   -7203.3078   -7164.5346   -400.42382    23676.545    2.9700455 
    6580    345.51667   -7203.1561   -7164.6132   -432.04473    23655.678    2.9994748 
    6590    341.57118   -7202.8167   -7164.7139   -250.61855    23632.661    3.0320951 
    6600    343.31712   -7203.1338   -7164.8363    84.245037    23608.233    3.0651527 
    6610    348.96063   -7203.9203   -7164.9933    284.23602    23583.645    3.0956853 
    6620    349.93613   -7204.2415   -7165.2056    326.11768     23559.71    3.1231229 
    6630    348.23958   -7204.3319   -7165.4852    393.44152    23536.698    3.1475958 
    6640    345.48518    -7204.366   -7165.8266    554.14176    23514.942    3.1681006 
    6650    341.17571   -7204.2716   -7166.2129    753.73555    23495.088    3.1833449 
    6660    331.60167   -7203.5963   -7166.6056    1048.2732     23478.02    3.1925018 
    6670    329.84852   -7203.7624   -7166.9673    1255.6759    23464.929    3.1957286 
    6680    332.36291   -7204.3609   -7167.2853    1398.5632    23456.745    3.1959583 
    6690    328.38584   -7204.1822   -7167.5503    1483.3219    23454.147    3.1960599 
    6700    327.41575   -7204.2865   -7167.7628    1367.7425    23457.552    3.1940865 
    6710    324.94734   -7204.1776   -7167.9292    1170.4888    23466.676    3.1849899 
    6720    322.52997   -7204.0311   -7168.0524    966.50581     23480.85     3.165084 
    6730    330.24951   -7204.9773   -7168.1374    714.83258    23499.319    3.1338786 
    6740    335.18551   -7205.5785    -7168.188    418.06767    23521.135    3.0947607 
    6750    338.77427    -7206.008   -7168.2172    123.37601    23545.166     3.052919 
    6760    337.46689   -7205.8785   -7168.2335   -77.566413    23570.245    3.0134428 
    6770    336.51347   -7205.7826    -7168.244   -101.92625    23595.566    2.9792827 
    6780    333.72534   -7205.4782   -7168.2507    71.226943    23621.039    2.9505901 
    6790    328.18445   -7204.8598   -7168.2503    234.03827    23647.297    2.9246179 
    6800    333.96857   -7205.4923   -7168.2376    137.42371    23674.934    2.8978375 
    6810    341.01914   -7206.2573   -7168.2161   -53.436257    23703.618    2.8695321 
    6820    331.55303   -7205.1765   -7168.1912   -109.02082    23732.626    2.8407331 
    6830    325.23493   -7204.4342   -7168.1538    -215.7192    23761.642    2.8115198 
    6840    330.96033   -7205.0088   -7168.0896   -489.70072    23790.163    2.7825912 
    6850    334.23895    -7205.288   -7168.0031   -785.64843    23817.068    2.7554753 
    6860    329.81552   -7204.6941   -7167.9027   -1141.7769    23840.999     2.731553 
    6870    330.52725   -7204.6559   -7167.7851   -1477.9832    23860.423    2.7115075 
    6880    338.95691    -7205.465   -7167.6539    -1801.693    23873.795    2.6968761 
    6890    334.48615   -7204.8363   -7167.5239   -1891.8557    23879.749    2.6898659 
    6900    319.96552   -7203.0875   -7167.3949   -1841.7773    23877.748    2.6895173 
    6910    318.54608   -7202.7798   -7167.2455   -1819.3112    23867.837    2.6927041 
    6920      324.068    -7203.209   -7167.0588   -1718.5369    23850.075    2.6974514 
    6930     330.5506   -7203.7139   -7166.8405   -1475.9305    23824.834     2.702239 
    6940    334.33969   -7203.8992   -7166.6032   -1206.2247    23793.024    2.7066192 
    6950    330.01721   -7203.1741   -7166.3601   -953.51353    23755.727    2.7119897 
    6960    329.10968   -7202.8276   -7166.1149   -713.08968    23714.013    2.7201863 
    6970    339.42757   -7203.7328   -7165.8692   -408.20595    23668.906    2.7322007 
    6980    344.18906   -7204.0288   -7165.6339    157.94857     23621.78    2.7489002 
    6990    348.60719   -7204.3102   -7165.4225    836.98128    23574.973    2.7707117 
    7000    353.52331   -7204.6791   -7165.2431    1430.7146     23531.29    2.7966117 
    7010    354.26768   -7204.6274   -7165.1083    1891.2834     23493.19    2.8240053 
    7020    356.07048   -7204.7459   -7165.0257    2097.3873    23462.566    2.8501308 
    7030    355.12879   -7204.6122    -7164.997    2103.0935     23440.33    2.8738058 
    7040    345.63597    -7203.571   -7165.0148     2078.863    23426.586     2.895012 
    7050    334.67013   -7202.3869    -7165.054    2153.6243    23421.335    2.9130224 
    7060     335.5097   -7202.5266      -7165.1    2068.3892    23424.804    2.9270938 
    7070    332.29448   -7202.2129    -7165.145    1787.5818    23436.703    2.9379214 
    7080    334.80334   -7202.5285   -7165.1806    1298.2039    23455.953    2.9449454 
    7090    350.47094   -7204.3024   -7165.2068    709.77881    23480.639    2.9476794 
    7100    354.14332   -7204.7478   -7165.2426    344.29141    23508.485    2.9476052 
    7110    352.63619   -7204.6448   -7165.3077    157.42702    23537.977    2.9464954 
    7120    355.92965   -7205.1087   -7165.4042   -143.00327    23568.224    2.9469596 
    7130    356.85337   -7205.3431   -7165.5356   -461.51665    23598.031    2.9510591 
    7140    345.67285   -7204.2554   -7165.6951   -693.52778    23626.072    2.9578475 
    7150    333.66503   -7203.0777   -7165.8569   -861.48038    23651.347    2.9638682 
    7160    331.51575   -7202.9833   -7166.0022    -1048.965      23673.1    2.9675344 
    7170    332.37514   -7203.2005   -7166.1235    -1236.454    23690.534    2.9717507 
    7180    336.29643   -7203.7421   -7166.2277   -1473.4255    23702.816    2.9801297 
    7190    335.50308   -7203.7468   -7166.3209   -1641.5223    23708.994    2.9942357 
    7200    335.43372   -7203.8307   -7166.4126   -1626.8804    23708.384    3.0129257 
    7210    328.70513   -7203.1642   -7166.4966   -1337.9068    23701.082    3.0346657 
    7220    327.45965   -7203.0889   -7166.5602   -1100.4513    23688.172    3.0581794 
    7230    334.11129   -7203.8723   -7166.6017   -1103.3517    23670.587    3.0837056 
    7240    334.81631   -7203.9807   -7166.6314    -1102.607    23648.422    3.1124281 
    7250    330.85581   -7203.5598   -7166.6524   -956.49606    23621.762    3.1439214 
    7260    331.56442   -7203.6463   -7166.6598   -742.01165    23591.214     3.175631 
    7270    334.47686   -7203.9641   -7166.6527   -371.44378    23557.724    3.2043742 
    7280    336.32824   -7204.1507   -7166.6328    32.902272    23522.816    3.2281437 
    7290    342.36205   -7204.8009   -7166.6099    311.50939     23488.12    3.2463306 
    7300    337.64608    -7204.254   -7166.5891     700.4272     23454.89    3.2586794 
    7310    335.99317   -7204.0475   -7166.5669    963.25977    23424.619    3.2649006 
    7320     342.9777   -7204.8032   -7166.5435    1057.4917    23398.355    3.2674529 
    7330    340.79869   -7204.5405   -7166.5239    1166.6761    23376.521     3.269965 
    7340    341.62337   -7204.6233   -7166.5147    1202.1463     23359.48    3.2728992 
    7350    341.09683   -7204.5682   -7166.5183    1262.6146    23347.411     3.274296 
    7360    338.30679    -7204.276   -7166.5374    1239.5003    23340.481    3.2708191 
    7370    334.22778   -7203.8518   -7166.5681    1241.3888    23338.621    3.2602996 
    7380    328.32146   -7203.2247   -7166.5999    1297.4965    23341.823    3.2430055 
    7390    336.17341   -7204.1272   -7166.6265    1125.1394    23350.194    3.2208581 
    7400    350.86159   -7205.7993   -7166.6601    564.86021    23362.993    3.1976853 
    7410    352.21084   -7206.0151   -7166.7255   -8.5956764    23378.066    3.1781609 
    7420    347.24235   -7205.5761   -7166.8407   -233.90552    23393.205    3.1641956 
    7430    347.24052   -7205.7486   -7167.0134   -377.32932    23407.392    3.1536629 
    7440    343.67898   -7205.5884   -7167.2505   -402.83257    23420.078    3.1427458 
    7450    333.70831   -7204.7667   -7167.5411   -318.69237    23431.154    3.1278385 
    7460    326.91129   -7204.3192   -7167.8518   -343.20727    23440.895    3.1072033 
    7470    331.99417   -7205.1983   -7168.1639    -532.4007    23449.164    3.0822474 
    7480     334.1193   -7205.7438   -7168.4723   -549.62298    23455.317    3.0561963 
    7490    330.03321   -7205.5792   -7168.7635   -347.43177    23459.289    3.0307683 
    7500    329.22534   -7205.7531   -7169.0275   -21.369711     23461.88    3.0064832 
    7510    325.81833    -7205.603   -7169.2575    158.52375    23464.336     2.983866 
    7520    321.11185   -7205.2677   -7169.4472    36.301507    23467.318    2.9625032 
    7530    319.96307   -7205.2804   -7169.5881   -128.96322    23470.447    2.9420207 
    7540    330.90596   -7206.6031     -7169.69   -265.18627    23473.061    2.9223355 
    7550    333.96783   -7207.0242   -7169.7696     -229.644    23474.647    2.9040942 
    7560    328.24204   -7206.4486   -7169.8327   -63.805992    23475.346    2.8874399 
    7570    333.09071    -7207.036   -7169.8793    20.466083    23475.763    2.8715707 
    7580    336.82607   -7207.4891   -7169.9156    8.3341664    23476.236    2.8567899 
    7590    334.76718   -7207.2924   -7169.9486   -48.653975     23476.74     2.843171 
    7600     333.1888   -7207.1449   -7169.9772    -52.54702    23477.082    2.8311179 
    7610    333.73679   -7207.2279   -7169.9991   -37.312691    23477.214      2.82184 
    7620    333.62707   -7207.2314   -7170.0148    12.700672    23477.199    2.8162257 
    7630    332.18342    -7207.079   -7170.0235    305.80499    23477.331    2.8133034 
    7640    332.98058   -7207.1692   -7170.0247    666.05531     23478.74    2.8109675 
    7650    329.92396   -7206.8202   -7170.0167    861.39178    23482.826    2.8078485 
    7660    328.58028   -7206.6466    -7169.993    833.90006    23490.403    2.8032701 
    7670    333.17143   -7207.1163   -7169.9505    496.99976    23501.295    2.7982852 
    7680     324.1126   -7206.0407   -7169.8854    317.08943    23514.326    2.7949304 
    7690    320.68732   -7205.5637   -7169.7905    175.18815    23528.696    2.7927789 
    7700    327.29039   -7206.1599   -7169.6502     -25.5334    23543.818     2.791119 
    7710    327.16959   -7205.9606   -7169.4643   -174.63135    23558.892    2.7907985 
    7720     329.1128   -7205.9528   -7169.2397   -235.28501    23573.302    2.7914121 
    7730    334.31114     -7206.27   -7168.9771   -334.25474    23586.765    2.7916894 
    7740    336.89008   -7206.2706   -7168.6901   -443.93849    23598.873    2.7919977 
    7750    336.70368   -7205.9552   -7168.3954     -398.309    23609.233    2.7937771 
    7760    336.61761   -7205.6556   -7168.1054   -305.04779    23617.973    2.7977066 
    7770    338.46059   -7205.5829   -7167.8271   -319.84504    23625.422    2.8029803 
    7780    337.98632   -7205.2705   -7167.5676   -535.96774    23631.491    2.8083652 
    7790    337.66124   -7204.9996    -7167.333   -779.23596    23635.347    2.8132478 
    7800    333.34124   -7204.3078   -7167.1231   -954.32285    23635.995    2.8188023 
    7810    332.80662   -7204.0598   -7166.9347   -1029.2173    23632.708    2.8254092 
    7820    336.47701   -7204.2983   -7166.7638   -921.17678     23625.19    2.8324782 
    7830    339.78014   -7204.5171   -7166.6141   -649.98962    23613.865    2.8396532 
    7840     341.4422   -7204.5762   -7166.4878   -168.24519    23599.888    2.8458722 
    7850    341.57181   -7204.4853   -7166.3824    291.77978    23585.162    2.8486263 
    7860    346.40389    -7204.941   -7166.2991    478.59117    23571.481    2.8463505 
    7870     347.6532   -7205.0237   -7166.2424    615.35809    23559.707    2.8409386 
    7880    344.86565    -7204.682   -7166.2117     839.6911    23550.485    2.8349033 
    7890    345.61132   -7204.7551   -7166.2016    911.68756    23544.645    2.8287514 
    7900    349.44213   -7205.1943   -7166.2135    748.57805    23542.439    2.8225288 
    7910    348.67041   -7205.1467    -7166.252    619.25927    23543.335     2.816692 
    7920    341.63911   -7204.4203   -7166.3099    624.41285    23546.852    2.8106544 
    7930    339.56883   -7204.2566   -7166.3772    703.50294    23553.003    2.8030539 
    7940    335.35164    -7203.854    -7166.445    1003.5846    23562.218    2.7922575 
    7950    334.82506   -7203.8604   -7166.5102    1161.1797    23575.606    2.7765977 
    7960     340.9289   -7204.6048   -7166.5736    997.92421    23593.812    2.7559084 
    7970    346.45429   -7205.2914   -7166.6439    578.97566    23616.213    2.7316228 
    7980    344.64941   -7205.1728   -7166.7267     222.6862    23641.262    2.7060596 
    7990    337.17342   -7204.4282    -7166.816   -75.125059    23667.495    2.6802806 
    8000    333.89096   -7204.1454   -7166.8993   -556.10624    23693.569    2.6535555 
    8010    330.92942    -7203.881   -7166.9653    -922.0143    23717.585    2.6261985 
    8020    331.90349   -7204.0421   -7167.0178   -1069.3039    23737.997    2.5998959 
    8030    330.63286    -7203.942   -7167.0594   -1028.0096    23754.122    2.5777341 
    8040    326.12529   -7203.4685   -7167.0888   -718.17648    23766.153    2.5612853 
    8050    328.48312   -7203.7399   -7167.0971    -624.3398     23775.17     2.549078 
    8060    339.02323   -7204.9085   -7167.0899   -803.81878    23781.513    2.5400517 
    8070     343.4922   -7205.4026   -7167.0855   -941.16117    23784.543    2.5341725 
    8080    343.78588   -7205.4466   -7167.0968   -1020.1844    23783.647    2.5309655 
    8090    348.34222   -7205.9904   -7167.1323   -1043.8255    23778.443     2.530234 
    8100    344.65126   -7205.6465   -7167.2001   -896.72308    23768.846    2.5327448 
    8110    331.32329   -7204.2509   -7167.2913   -647.51928    23755.429    2.5387052 
    8120     330.4464   -7204.2501   -7167.3883   -526.16755    23739.093    2.5469875 
    8130    341.46016   -7205.5822   -7167.4918   -379.47173    23720.379    2.5566201 
    8140    347.09799   -7206.3438   -7167.6245   -94.728681    23699.924    2.5677362 
    8150    340.71968   -7205.8061   -7167.7983    255.16012     23678.91    2.5799071 
    8160    339.52354   -7205.8921   -7168.0177    346.95048    23658.665    2.5914258 
    8170    336.02397   -7205.7665   -7168.2825    283.78663    23639.607    2.6021597 
    8180    335.07806    -7205.962   -7168.5835    284.44766    23621.588    2.6129577 
    8190    338.65486   -7206.6923   -7168.9149    342.61525    23604.601    2.6246177 
    8200    338.57983   -7207.0394   -7169.2703    433.48873    23588.887    2.6372962 
    8210    332.49307    -7206.719   -7169.6289    438.64036    23574.797    2.6505162 
    8220    326.80508   -7206.4137   -7169.9581    377.89379    23562.377    2.6634577 
    8230    323.95876   -7206.3739   -7170.2358    216.26543    23551.358    2.6751521 
    8240    319.96036   -7206.1466   -7170.4546    142.48486     23541.16    2.6846229 
    8250    318.66847   -7206.1622   -7170.6142     95.43831    23531.476    2.6919913 
    8260    321.91759   -7206.6313   -7170.7209    -11.17645    23522.096    2.6995263 
    8270    325.02336   -7207.0378    -7170.781   -238.44499    23512.543    2.7093938 
    8280    326.86909   -7207.2712   -7170.8085   -399.44213    23501.959    2.7226598 
    8290     322.7616   -7206.8151   -7170.8106   -208.18524     23489.78    2.7396647 
    8300    319.31943   -7206.4005   -7170.7799     218.2602    23476.748    2.7586935 
    8310    327.13129   -7207.2058   -7170.7139    481.74307    23464.456    2.7767227 
    8320     331.6287   -7207.6158   -7170.6221    556.89343    23453.972    2.7923706 
    8330    330.72979   -7207.4127   -7170.5193     686.1307    23445.722    2.8051282 
    8340    331.48593    -7207.386   -7170.4082    946.98249    23440.283    2.8147368 
    8350    328.04315   -7206.8793   -7170.2856    1318.0743    23438.739    2.8208936 
    8360    325.44338   -7206.4534   -7170.1497    1536.2728    23442.526    2.8220666 
    8370    328.61123   -7206.6551    -7169.998     1591.808    23452.604    2.8178763 
    8380    334.68399   -7207.1704   -7169.8359    1610.4456    23469.332     2.809709 
    8390    336.78097   -7207.2445   -7169.6761    1566.7569    23492.839    2.7986079 
    8400    328.11635   -7206.1252   -7169.5234    1485.5894    23523.061    2.7849014 
    8410    322.27585   -7205.3129   -7169.3626    1171.3866    23559.677    2.7681033 
    8420     333.9464   -7206.4254   -7169.1732    620.35807    23601.464    2.7481377 
    8430    338.99282   -7206.7771   -7168.9619    196.65607    23646.304    2.7271466 
    8440    331.40706   -7205.7252   -7168.7563    46.220253    23692.489    2.7065849 
    8450    332.06081   -7205.5982   -7168.5563   -211.58019    23739.212    2.6850382 
    8460    336.42583   -7205.8805   -7168.3517   -712.72957    23785.319    2.6613249 
    8470    340.86698   -7206.1764   -7168.1522   -1125.7629    23828.802    2.6355189 
    8480    341.29456   -7206.0452   -7167.9733   -1414.2435    23867.847    2.6092372 
    8490    337.16761   -7205.4312   -7167.8196   -1721.2975    23901.095    2.5851651 
    8500    338.41497   -7205.4391   -7167.6884   -1914.9119    23927.243    2.5654998 
    8510    343.63314   -7205.9159   -7167.5831   -2009.8203    23945.369    2.5516396 
    8520    347.61652   -7206.2921   -7167.5149   -1908.8146    23955.055     2.544238 
    8530    341.21963   -7205.5452   -7167.4817   -1613.2138     23956.71    2.5424941 
    8540    337.86746   -7205.1583   -7167.4687    -1458.947    23951.413     2.543155 
    8550    339.41915   -7205.3292   -7167.4665   -1389.7031    23939.798    2.5433655 
    8560    334.10316   -7204.7395   -7167.4698   -1053.8728    23922.301    2.5422722 
    8570    330.21006   -7204.2995   -7167.4641    -519.3315    23900.305    2.5390707 
[...]
   22890    332.55525   -7206.5608   -7169.4637    1165.8666    23898.034    3.3373523 
   22900    337.83904   -7207.3881   -7169.7016    959.86965    23925.617    3.3439829 
   22910    333.98871   -7207.2187   -7169.9618    728.06111    23957.056    3.3491824 
   22920    335.15688   -7207.6241   -7170.2368    330.09204    23991.246    3.3509972 
   22930    337.05191   -7208.1197    -7170.521   -53.958206    24026.549    3.3502627 
   22940    330.44814   -7207.6638   -7170.8019   -358.03397    24061.299     3.349094 
   22950    329.35254   -7207.8071   -7171.0673   -559.94864    24094.186    3.3483061 
   22960    329.26517   -7208.0434   -7171.3134   -665.74147     24124.34    3.3489117 
   22970    324.45614   -7207.7265    -7171.533    -660.1921    24151.332    3.3508178 
   22980    322.94944   -7207.7407   -7171.7152    -699.6984    24175.133    3.3508656 
   22990    327.38189   -7208.3769   -7171.8569   -847.28697    24195.579    3.3452006 
   23000    337.08872   -7209.5778   -7171.9751   -945.05853    24212.126    3.3334797 
   23010    337.90296   -7209.7815   -7172.0879   -763.41874     24224.49    3.3199127 
   23020    329.68217   -7208.9699   -7172.1933   -552.23054    24233.396    3.3088409 
   23030    327.52889   -7208.8138   -7172.2775   -646.02106    24239.672    3.3020977 
   23040    329.12412   -7209.0516   -7172.3373   -864.23943    24243.017    3.2995203 
   23050    325.14576   -7208.6454   -7172.3749   -966.77986    24242.604    3.2989902 
   23060    323.97511   -7208.5279   -7172.3879   -894.84724     24238.08    3.2973324 
   23070    327.77926   -7208.9395   -7172.3752   -701.55437    24229.791    3.2936858 
   23080    329.04896   -7209.0484   -7172.3425    -573.3585    24218.539    3.2898293 
   23090    324.75743   -7208.5197   -7172.2925   -550.43379    24204.913    3.2875985 
   23100    322.27136   -7208.1701   -7172.2202   -642.92618    24189.029    3.2871823 
   23110    327.00594   -7208.6029   -7172.1249   -699.50151    24170.566    3.2882013 
   23120    328.68174   -7208.6739   -7172.0089   -490.56921    24149.423    3.2915684 
   23130    326.90579   -7208.3397   -7171.8729   -170.38892    24126.489    3.2979346 
   23140    329.89698   -7208.5168   -7171.7163   -12.302945    24103.044    3.3066369 
   23150    326.81592   -7207.9954   -7171.5386    223.37239      24079.9     3.316733 
   23160    326.55872   -7207.7671    -7171.339    622.11209    24058.109     3.326959 
   23170    333.40191   -7208.3116   -7171.1201    930.06188    24039.258    3.3370713 
   23180    337.64749   -7208.5664   -7170.9013    988.42365    24024.575     3.347798 
   23190    334.84017   -7208.0532   -7170.7013    744.21499    24014.199    3.3591303 
   23200    335.48515    -7207.947   -7170.5232    415.10926      24007.1    3.3704336 
   23210    341.17434   -7208.4254   -7170.3669    290.35547    24001.971    3.3811076 
   23220    345.87541   -7208.8277   -7170.2448    304.97984    23998.201    3.3906954 
   23230    344.75846   -7208.6202   -7170.1619    433.99903    23995.843    3.3983149 
   23240    344.81721   -7208.5787   -7170.1138    429.14373    23995.305    3.4014644 
   23250    345.46194   -7208.6316   -7170.0948    248.07924    23996.517    3.3990951 
   23260    336.58539   -7207.6393   -7170.0927    130.12517     23998.81    3.3935755 
   23270    332.60019   -7207.1924   -7170.0903   -40.449816    24001.595    3.3888803 
   23280    335.77948   -7207.5363   -7170.0796   -112.97929     24004.21    3.3890236 
   23290    334.61475   -7207.3943   -7170.0676   -25.787072    24006.392    3.3950207 
   23300    323.75177   -7206.1653   -7170.0503   -16.202732    24008.414     3.403506 
   23310    319.32382   -7205.6331    -7170.012   -105.45746    24010.306     3.407817 
   23320    323.10794   -7205.9903   -7169.9471   -61.421204    24011.793    3.4042192 
   23330    322.59681   -7205.8439   -7169.8578     224.5567    24013.118    3.3944003 
   23340    329.44789   -7206.5008   -7169.7504    386.05871     24015.33    3.3824019 
   23350    333.22091   -7206.8025   -7169.6312    475.49718    24019.148    3.3726266 
   23360    325.76899   -7205.8459   -7169.5059    413.26743    24024.881     3.364754 
   23370    326.55816   -7205.7903   -7169.3622    134.86073    24032.229    3.3550345 
   23380    344.56786   -7207.6343   -7169.1973   -357.34253    24039.956    3.3432069 
   23390    350.92127   -7208.1845   -7169.0387   -656.98311    24046.127    3.3327099 
   23400    340.97433   -7206.9464   -7168.9102   -732.01958    24049.489    3.3259191 
   23410    337.82558   -7206.4852   -7168.8002   -686.97846     24049.73    3.3231606 
   23420    342.47295   -7206.8997   -7168.6963   -592.72125    24047.055    3.3231645 
   23430    347.10595   -7207.3262   -7168.6061   -558.07015    24041.865    3.3232455 
   23440     351.9497   -7207.8024   -7168.5419   -557.70143    24034.366    3.3204637 
   23450    352.88051    -7207.875   -7168.5107   -561.02383    24024.601    3.3141093 
   23460    355.34758   -7208.1571   -7168.5175   -451.67658    24012.663    3.3065511 
   23470    354.71213   -7208.1331   -7168.5644     -207.547    23999.056    3.3012778 
   23480    347.94077    -7207.458   -7168.6446    319.59782    23984.917    3.2992658 
   23490    340.69621   -7206.7456   -7168.7404    944.84043    23972.439    3.2989612 
   23500    339.31944   -7206.6962   -7168.8446    1219.9987    23964.062    3.2988371 
   23510    338.78707   -7206.7504   -7168.9582    1147.1707    23960.905    3.2980959 
   23520    340.53068   -7207.0734   -7169.0867    874.40012    23962.608     3.295265 
   23530    339.54042   -7207.1089   -7169.2326    506.16928    23967.929    3.2887612 
   23540    334.05351   -7206.6494   -7169.3853    105.03052    23975.304    3.2785475 
   23550     339.7189   -7207.4372   -7169.5411   -418.61294    23982.944    3.2665321 
   23560    342.42662   -7207.9074   -7169.7092    -786.5263    23988.735    3.2564571 
   23570    335.29762   -7207.2979   -7169.8949   -726.45394    23991.254    3.2515344 
   23580    329.34328   -7206.8248   -7170.0861   -546.55027    23990.691     3.253525 
   23590    322.73251    -7206.269   -7170.2677   -527.38485    23987.775    3.2621451 
   23600    318.91053   -7206.0017   -7170.4267   -753.95679    23982.578    3.2731186 
   23610      320.767   -7206.3425   -7170.5604   -1028.4827    23974.268    3.2821753 
   23620     321.7643   -7206.5634   -7170.6701   -1114.8289    23961.819    3.2885951 
   23630    323.90795    -7206.892   -7170.7596   -947.95777    23944.946    3.2933519 
   23640    322.09427    -7206.755   -7170.8249   -430.89262    23924.512    3.2977028 
   23650    317.24602   -7206.2415   -7170.8522    150.96913    23902.652    3.3030028 
   23660    322.05501   -7206.7559   -7170.8302    556.76894    23881.765     3.309299 
   23670    333.59306   -7207.9759   -7170.7631    664.57259    23863.498    3.3148728 
   23680    339.33059    -7208.521   -7170.6682     579.7285    23848.302    3.3177256 
   23690     339.0197   -7208.3749   -7170.5567    424.59428    23835.784    3.3175723 
   23700      333.574   -7207.6325   -7170.4218    393.81498    23825.311    3.3162443 
   23710    331.93177   -7207.2739   -7170.2464    483.24896    23816.715    3.3158794 
   23720    337.92269    -7207.711   -7170.0152    607.40965    23810.307    3.3178161 
   23730    347.34877   -7208.4796   -7169.7324    666.88484    23806.536    3.3230074 
   23740    348.75224   -7208.3257   -7169.4219    617.22251    23805.588    3.3305616 
   23750     350.3485   -7208.1911   -7169.1092    517.71906    23807.234     3.337057 
   23760    353.59279   -7208.2536   -7168.8098    401.14671    23811.008    3.3405815 
   23770    351.06422   -7207.7014   -7168.5396    291.43121    23816.418    3.3416315 
   23780    349.55753    -7207.296   -7168.3023    39.966831    23822.915    3.3398074 
   23790    352.21884   -7207.3861   -7168.0956   -156.02148     23829.51    3.3344143 
   23800    355.42644   -7207.5741   -7167.9257   -148.78411    23835.425    3.3252305 
   23810    354.77321   -7207.3768   -7167.8013   -24.905835    23840.653    3.3139065 
   23820    350.95001   -7206.8685   -7167.7195    191.99563    23845.737    3.3039552 
   23830    349.44379   -7206.6528   -7167.6718    351.77803    23851.536    3.2977333 
   23840    345.90386   -7206.2338   -7167.6477    265.98456    23858.622    3.2948666 
   23850    342.53707   -7205.8502   -7167.6396    153.80794    23866.718    3.2939912 
   23860    342.42064   -7205.8415   -7167.6439     256.8976    23875.424    3.2945728 
   23870    338.38811   -7205.4085   -7167.6608    565.65004     23885.16     3.296833 
   23880    331.24912   -7204.6335   -7167.6822    877.61032    23897.171    3.3006316 
   23890    335.54576   -7205.1306   -7167.6999    896.35398    23912.604     3.304809 
   23900    342.13557   -7205.8824   -7167.7167    833.14479    23931.592    3.3077256 
   23910    342.86971   -7205.9923   -7167.7447    775.70947    23953.856    3.3079876 
   23920    339.76079   -7205.6863   -7167.7855    669.47679    23979.107    3.3053433 
   23930    342.89839   -7206.0859   -7167.8351    443.00326    24006.848    3.3000256 
   23940    350.30381   -7206.9752   -7167.8983    145.29489      24036.1     3.293095 
   23950    351.35605   -7207.1867   -7167.9924   -152.19964    24065.609    3.2868887 
   23960    343.94711   -7206.4915   -7168.1237   -448.56736    24094.105    3.2826239 
   23970    341.67867   -7206.4018    -7168.287   -721.60537    24120.329    3.2799605 
   23980    338.96811   -7206.2948   -7168.4824   -851.59456    24143.164     3.278694 
   23990    329.93033   -7205.5033   -7168.6991   -959.55211    24162.021     3.277279 
   24000    331.22695   -7205.8746   -7168.9257   -1146.5948    24176.453    3.2733021 
   24010    333.11699   -7206.3228   -7169.1631   -1258.7453    24185.785    3.2670295 
   24020    330.16915     -7206.24   -7169.4091   -1312.8109    24189.577     3.260265 
   24030     331.0308   -7206.5836   -7169.6566   -1401.6366    24187.629    3.2547757 
   24040    336.85856   -7207.4859   -7169.9088   -1511.7189    24179.639    3.2509941 
   24050    341.34068   -7208.2533   -7170.1762   -1459.6119    24165.283    3.2476887 
   24060    340.09006    -7208.395   -7170.4575   -1201.0764    24144.918    3.2443351 
   24070      334.526   -7208.0533   -7170.7364   -957.23977     24119.64    3.2410869 
   24080    328.58716   -7207.6444   -7170.9901   -689.66888    24090.614    3.2379545 
   24090    327.04062   -7207.6848    -7171.203   -523.48725    24059.003    3.2358166 
   24100    326.37248   -7207.7764    -7171.369   -439.93606    24025.607    3.2360143 
   24110    330.99018   -7208.4204   -7171.4979   -528.88924    23990.772    3.2375471 
   24120    337.48098   -7209.2527   -7171.6061   -433.91534    23954.316     3.238573 
   24130    341.49714   -7209.7965    -7171.702    1.8429041    23916.743    3.2392003 
   24140    343.90413   -7210.1528   -7171.7898     524.6018    23879.827     3.241558 
   24150    339.08578   -7209.6992   -7171.8736    916.58271    23845.679    3.2475867 
   24160    327.74001   -7208.5035   -7171.9436    1229.9037    23815.944     3.256104 
   24170    327.92636   -7208.5699   -7171.9893    1311.2837    23791.768    3.2639975 
   24180    337.53984   -7209.6714   -7172.0183    1265.4069    23773.433    3.2699635 
   24190    338.76369   -7209.8358   -7172.0462    1223.7695     23760.68    3.2745181 
   24200    332.38976   -7209.1521   -7172.0735    1308.0205    23753.304    3.2772258 
   24210    336.92989   -7209.6802   -7172.0951     1260.511    23751.436    3.2772685 
   24220    342.23446   -7210.2942   -7172.1175    1196.1153    23754.843    3.2770349 
   24230    337.72593   -7209.8221   -7172.1483    1161.3338    23763.223    3.2799143 
   24240     335.6068   -7209.6191   -7172.1817    1028.2883    23776.317    3.2861773 
   24250    339.17864    -7210.049   -7172.2131    790.27487    23793.513    3.2938585 
   24260    337.56454   -7209.8987   -7172.2429    435.49507    23813.763    3.3016244 
   24270    331.67672   -7209.2639   -7172.2649    169.11231    23835.633     3.309112 
   24280     332.1749   -7209.3283   -7172.2737    108.45698     23858.03    3.3165144 
   24290    334.20407   -7209.5515   -7172.2706    146.56741    23880.657    3.3241047 
   24300    333.31624   -7209.4416   -7172.2597    32.849541    23903.583    3.3309106 
   24310    331.00415   -7209.1618   -7172.2378   -198.90804     23926.35    3.3358938 
   24320    329.00344   -7208.9022   -7172.2013   -415.17344    23948.018    3.3383729 
   24330    325.78809   -7208.4888   -7172.1467   -557.39476    23967.702    3.3380852 
   24340    325.20232   -7208.3503   -7172.0734   -429.07256    23984.912    3.3364396 
   24350    327.71529   -7208.5403   -7171.9831   -184.26757    24000.155    3.3364929 
   24360    329.62427   -7208.6514   -7171.8813   -126.60244    24014.391    3.3403901 
   24370    328.76039   -7208.4448   -7171.7711   -179.94498    24027.928    3.3475243 
   24380    329.19737   -7208.3785    -7171.656   -248.14913    24040.553    3.3556601 
   24390    326.33065   -7207.9397    -7171.537   -342.10067    24051.971    3.3621408 
   24400    324.15289   -7207.5722   -7171.4124   -568.82889    24061.767    3.3645988 
   24410    325.97506   -7207.6396   -7171.2766   -758.50473    24069.051    3.3628194 
   24420    335.41323   -7208.5542   -7171.1384   -751.58653    24073.081    3.3586409 
   24430    340.51377   -7208.9978   -7171.0129   -528.86677    24073.936    3.3556873 
   24440    339.83561   -7208.8213   -7170.9122   -249.26802    24072.539    3.3564508 
   24450    338.55181   -7208.5986   -7170.8327   -163.30359    24069.995    3.3610035 
   24460    340.67747   -7208.7743   -7170.7713   -241.29565    24066.711    3.3683107 
   24470    339.35353   -7208.5817   -7170.7263   -256.02151     24062.47    3.3776519 
   24480    333.51006   -7207.8947   -7170.6911    -58.92291    24057.271      3.38897 
   24490    328.05979   -7207.2479   -7170.6524    131.10186    24051.849    3.4012198 
   24500    326.35018   -7207.0053   -7170.6005    193.75161    24047.016    3.4116841 
   24510    330.38495   -7207.3928   -7170.5379    -7.713151    24042.938    3.4176891 
   24520    330.34655   -7207.3178   -7170.4672   -140.37191     24038.89     3.419393 
   24530    335.06078   -7207.7689   -7170.3923   -185.35703    24034.311    3.4194356 
   24540    338.68647   -7208.0988   -7170.3178    -181.1205    24028.976    3.4218773 
   24550    334.84469   -7207.5989   -7170.2464   -107.78501    24022.925    3.4305666 
   24560     339.7142   -7208.0741   -7170.1785   -123.38378    24016.389    3.4473342 
   24570    339.32353   -7207.9673   -7170.1153   -109.85825    24009.367    3.4716304 
   24580    336.89637   -7207.6417   -7170.0604   -122.76575    24001.911    3.4988893 
   24590    342.93665   -7208.2669   -7170.0118   -209.89538    23993.937    3.5230275 
   24600    345.08267   -7208.4646   -7169.9701   -96.120287    23985.197    3.5409526 
   24610    342.67319   -7208.1609   -7169.9352    92.470576    23976.133    3.5524691 
   24620    345.34618   -7208.4321   -7169.9083    123.64182    23967.451    3.5598431 
   24630      345.748   -7208.4643   -7169.8956    153.18515    23959.338    3.5666456 
   24640    344.21356   -7208.2984   -7169.9009    354.75564    23952.006    3.5751574 
   24650    345.19331   -7208.4318    -7169.925    369.42121    23946.124    3.5859611 
   24660    342.58779   -7208.1842    -7169.968    307.57175     23941.83     3.598639 
   24670     341.1447    -7208.082   -7170.0268    274.95032    23938.876    3.6120526 
   24680    341.64861   -7208.2082   -7170.0968    320.61986    23937.126    3.6247457 
   24690    336.82704   -7207.7502   -7170.1766    518.91808    23936.821    3.6344431 
   24700    332.24973   -7207.3274   -7170.2644    784.82668    23938.769    3.6386378 
   24710    334.34043   -7207.6526   -7170.3564    783.57631    23943.969    3.6372645 
   24720     338.2236   -7208.1861   -7170.4568    541.33405    23952.405     3.633416 
   24730    337.29682   -7208.1983   -7170.5723    340.10218    23963.141      3.63056 
   24740    338.71308   -7208.4937   -7170.7098    210.93335     23975.31    3.6308533 
   24750    333.06044   -7208.0214    -7170.868      307.547     23988.44    3.6353065 
   24760    323.03829   -7207.0667   -7171.0313    313.73126    24002.813     3.642088 
   24770    325.57244   -7207.5047   -7171.1866    70.720073    24018.396    3.6480151 
   24780    325.74359   -7207.6708   -7171.3336    -169.6982    24034.264    3.6518558 
   24790    320.21117   -7207.1891   -7171.4691   -359.46592    24049.416    3.6534132 
   24800    321.90264   -7207.4972   -7171.5885   -572.32447    24062.977    3.6528826 
   24810    324.55494   -7207.8952   -7171.6906   -638.58246    24074.115    3.6517493 
   24820    330.70463   -7208.6726    -7171.782   -685.48956    24082.488    3.6520249 
   24830    331.23446     -7208.82   -7171.8703   -599.53034    24087.926    3.6558975 
   24840    318.91546   -7207.5273   -7171.9518   -318.57183    24090.832    3.6633271 
   24850    308.72843   -7206.4447   -7172.0056    8.1737828    24092.374    3.6712358 
   24860    311.77862   -7206.7897   -7172.0103    188.28267    24093.893    3.6766208 
   24870    326.34518   -7208.3683    -7171.964    127.09665    24096.135     3.678412 
   24880    334.45295   -7209.1913   -7171.8826   -165.18483    24098.825     3.677368 
   24890    326.51073   -7208.2016   -7171.7788   -329.81773    24100.856    3.6735003 
   24900    326.91995   -7208.1152   -7171.6468   -406.75794    24101.486    3.6657979 
   24910     336.2306    -7208.983    -7171.476   -486.54382    24100.349    3.6566255 
   24920    335.08254   -7208.6545   -7171.2755   -432.58898    24097.156    3.6503358 
   24930    326.79463   -7207.5073   -7171.0529   -286.48738    24092.144    3.6480382 
   24940    320.67325   -7206.5726    -7170.801   -262.19403    24085.859    3.6470581 
   24950    324.89115   -7206.7538   -7170.5117   -436.92114    24078.369    3.6440835 
   24960    336.49248   -7207.7294   -7170.1932   -603.23439     24069.01    3.6377041 
   24970    337.58948   -7207.5319   -7169.8733     -657.446    24057.095    3.6284813 
   24980    338.67736   -7207.3587   -7169.5788   -638.85357    24042.386    3.6169218 
   24990    347.00817   -7208.0248   -7169.3156   -594.13186    24024.942    3.6043567 
   25000    346.47991   -7207.7433   -7169.0929   -260.59852    24005.107    3.5936888 
Loop time of 14972.9 on 16 procs for 20000 steps with 864 atoms

Performance: 0.115 ns/day, 207.957 hours/ns, 1.336 timesteps/s
97.9% CPU use with 16 MPI tasks x 1 OpenMP threads

MPI task timing breakdown:
Section |  min time  |  avg time  |  max time  |%varavg| %total
---------------------------------------------------------------
Pair    | 10093      | 13206      | 14838      |1087.9 | 88.20
Bond    | 0.003129   | 0.0079822  | 0.02397    |   5.8 |  0.00
Neigh   | 0.28456    | 0.346      | 0.40223    |   5.7 |  0.00
Comm    | 59.437     | 1442       | 3951.1     |2954.9 |  9.63
Output  | 1.4169     | 1.4487     | 1.9142     |  10.0 |  0.01
Modify  | 10.266     | 322.66     | 926.8      |1599.3 |  2.15
Other   |            | 0.2771     |            |       |  0.00

Nlocal:        54.0000 ave          65 max          42 min
Histogram: 1 1 1 3 0 3 4 1 0 2
Nghost:        460.812 ave         534 max         383 min
Histogram: 1 1 1 2 3 1 4 1 1 1
Neighs:         0.00000 ave           0 max           0 min
Histogram: 16 0 0 0 0 0 0 0 0 0
FullNghs:      1956.75 ave        2681 max        1288 min
Histogram: 2 1 2 0 3 4 0 1 2 1

Total # of neighbors = 31308
Ave neighs/atom = 36.236111
Ave special neighs/atom = 0.0000000
Neighbor list builds = 2000
Dangerous builds = 2000
Total wall time: 5:07:24
