LAMMPS (29 Sep 2021 - Update 3)
OMP_NUM_THREADS environment is not set. Defaulting to 1 thread. (src/comm.cpp:98)
  using 1 OpenMP thread(s) per MPI task
units	metal
atom_style	full

read_data	mixed.data
Reading data file ...
  orthogonal box = (0.0000000 0.0000000 0.0000000) to (16.534670 17.767358 74.594796)
  1 by 2 by 8 MPI processor grid
  reading atoms ...
  864 atoms
Finding 1-2 1-3 1-4 neighbors ...
  special bond factors lj:    0        0        0       
  special bond factors coul:  0        0        0       
     0 = max # of 1-2 neighbors
     0 = max # of 1-3 neighbors
     0 = max # of 1-4 neighbors
     1 = max # of special neighbors
  special bonds CPU = 0.005 seconds
  read_data CPU = 0.033 seconds

pair_style	quip
pair_coeff	* * /ocean/projects/cts180021p/wuziqi/clease/mint-PD/PhaseDiagram-Clease/Liquid/GAP_potential/gap_LiKCl.xml "Potential xml_label=GAP_2021_9_27_0_1_17_37_618" 17 19 3

neighbor	0.3 bin
neigh_modify	delay 10

timestep	0.001
compute	msd all msd
thermo_style	custom step temp pe etotal press vol c_msd[4]
thermo	10
dump	1 all custom 10 xyz-mix.dump type id x y z
dump	2 all custom 10 force-mix.dump type id fx fy fz

fix     1 all nve
run     2000
Neighbor list info ...
  update every 1 steps, delay 10 steps, check yes
  max neighbors/atom: 2000, page size: 100000
  master list distance cutoff = 6.22
  ghost atom cutoff = 6.22
  binsize = 3.11, bins = 6 6 24
  1 neighbor lists, perpetual/occasional/extra = 1 0 0
  (1) pair quip, perpetual
      attributes: full, newton on
      pair build: full/bin
      stencil: full/bin/3d
      bin: standard
Per MPI rank memory allocation (min/avg/max) = 8.894 | 8.906 | 8.915 Mbytes
Step Temp PotEng TotEng Press Volume c_msd[4] 
       0            0   -8413.4292   -8413.4292   -12531.916    21914.265            0 
      10    63.367096   -8420.5059   -8413.4372   -13062.757    21914.265 0.00028900792 
      20    162.23389   -8431.5423   -8413.4448   -13580.932    21914.265 0.0035442006 
      30    203.76318   -8436.1707   -8413.4406   -13263.999    21914.265  0.011998633 
      40     225.5427      -8438.6   -8413.4404   -13091.981    21914.265  0.023619499 
      50    238.39464   -8440.0352   -8413.4419   -13192.953    21914.265  0.036411648 
      60    237.91747   -8439.9798   -8413.4397    -13151.82    21914.265  0.049420327 
      70    242.25882   -8440.4649   -8413.4405   -12986.142    21914.265  0.062561747 
      80    243.33226   -8440.5825   -8413.4384   -12841.846    21914.265  0.075987004 
      90     256.1439    -8442.014   -8413.4408   -12985.089    21914.265  0.088683986 
     100    260.92723   -8442.5467   -8413.4399   -13129.532    21914.265   0.10092572 
     110    263.36735   -8442.8185   -8413.4395   -13314.209    21914.265   0.11296329 
     120    267.45703   -8443.2754   -8413.4402   -13403.997    21914.265   0.12509928 
     130    267.20277   -8443.2463   -8413.4395   -13198.457    21914.265   0.13819283 
     140    269.21359   -8443.4705   -8413.4393   -12839.711    21914.265   0.15259322 
     150     276.3754   -8444.2699   -8413.4398   -12564.061    21914.265   0.16775295 
     160    282.09052   -8444.9077   -8413.4401   -12400.914    21914.265   0.18315323 
     170    283.74907   -8445.0928   -8413.4402     -12430.3    21914.265    0.1989762 
     180    279.57367   -8444.6271   -8413.4402   -12727.353    21914.265   0.21536827 
     190    272.01519   -8443.7829   -8413.4391   -12943.608    21914.265   0.23180139 
     200    272.98877   -8443.8921   -8413.4397   -13066.814    21914.265    0.2476891 
     210    278.28656   -8444.4833     -8413.44   -13119.162    21914.265   0.26290373 
     220    281.61115   -8444.8543   -8413.4402    -13052.65    21914.265   0.27743582 
     230    283.45537   -8445.0589    -8413.439   -12948.839    21914.265   0.29133107 
     240    292.81696   -8446.1046   -8413.4404   -13016.029    21914.265    0.3048675 
     250    295.20203   -8446.3705   -8413.4402   -13077.887    21914.265   0.31931215 
     260    290.46684   -8445.8415   -8413.4394   -13040.528    21914.265   0.33532684 
     270    290.61991    -8445.858   -8413.4389   -13235.455    21914.265   0.35239777 
     280    301.25443   -8447.0456   -8413.4402   -13515.282    21914.265   0.36952956 
     290    308.28623   -8447.8304   -8413.4406   -13611.572    21914.265   0.38667041 
     300    309.20907   -8447.9319   -8413.4392   -13455.868    21914.265    0.4041006 
     310     314.5316   -8448.5273   -8413.4408   -13198.597    21914.265   0.42152557 
     320    312.09261   -8448.2546   -8413.4402   -12968.083    21914.265   0.43866959 
     330    305.84421   -8447.5573   -8413.4399   -12657.381    21914.265   0.45536472 
     340    303.20988   -8447.2632   -8413.4397   -12498.026    21914.265   0.47172581 
     350    307.13857   -8447.7018     -8413.44   -12492.368    21914.265   0.48754232 
     360    312.15901   -8448.2619   -8413.4401   -12369.505    21914.265   0.50223919 
     370     318.6847   -8448.9898     -8413.44   -12195.898    21914.265   0.51545083 
     380    326.66636   -8449.8808   -8413.4407   -12030.164    21914.265   0.52751087 
     390    328.67292   -8450.1043   -8413.4403   -11786.931    21914.265   0.53983918 
     400    329.42172   -8450.1875     -8413.44   -11529.418    21914.265   0.55338123 
     410    329.12824   -8450.1558   -8413.4411   -11363.621    21914.265   0.56856317 
     420    321.17839   -8449.2675   -8413.4396   -11329.503    21914.265   0.58578319 
     430    319.73313   -8449.1067     -8413.44   -11645.546    21914.265   0.60460993 
     440    321.87014   -8449.3455   -8413.4404   -12168.872    21914.265   0.62482739 
     450    321.69175   -8449.3257   -8413.4405   -12517.526    21914.265   0.64605131 
     460    321.58625   -8449.3131   -8413.4397   -12738.117    21914.265   0.66602281 
     470    327.73765   -8450.0009   -8413.4413    -13118.13    21914.265   0.68222539 
     480    325.78012   -8449.7811   -8413.4399   -13518.975    21914.265   0.69547134 
     490    325.26696   -8449.7242   -8413.4402   -13912.333    21914.265   0.70709849 
     500    326.02809   -8449.8096   -8413.4407    -14245.82    21914.265    0.7181905 
     510     321.8067   -8449.3384   -8413.4404   -14358.421    21914.265   0.73031831 
     520    314.82643   -8448.5595   -8413.4401   -14393.561    21914.265   0.74493886 
     530    311.55922   -8448.1945   -8413.4396    -14504.26    21914.265   0.76206346 
     540    316.52181   -8448.7487   -8413.4402   -14692.451    21914.265   0.78048733 
     550    323.45997   -8449.5224     -8413.44   -14675.954    21914.265   0.79880458 
     560    332.20295   -8450.4987   -8413.4409    -14432.97    21914.265   0.81596428 
     570    332.37528   -8450.5179   -8413.4409   -14008.452    21914.265   0.83234674 
     580    324.44532    -8449.632   -8413.4397   -13682.622    21914.265   0.84880328 
     590    322.54654   -8449.4211   -8413.4405   -13611.186    21914.265   0.86493346 
     600    320.03229     -8449.14   -8413.4399   -13618.158    21914.265   0.88136827 
     610     322.0694   -8449.3667   -8413.4393   -13770.866    21914.265   0.89972436 
     620    332.97088   -8450.5844    -8413.441   -14040.679    21914.265   0.91979176 
     630    336.52886   -8450.9806   -8413.4403   -14106.634    21914.265    0.9400978 
     640    340.63169   -8451.4378   -8413.4399   -14084.373    21914.265   0.95883362 
     650     349.6267   -8452.4431   -8413.4417   -14126.089    21914.265   0.97518253 
     660     345.3101   -8451.9607   -8413.4408    -13925.09    21914.265   0.98949595 
     670    335.30236   -8450.8431   -8413.4396   -13541.064    21914.265    1.0025057 
     680    335.35657   -8450.8495     -8413.44   -13120.509    21914.265    1.0157598 
     690    342.86707   -8451.6878   -8413.4405   -12807.122    21914.265    1.0306556 
     700    350.61517   -8452.5527    -8413.441   -12613.893    21914.265    1.0481195 
     710    351.61871   -8452.6647   -8413.4411    -12558.63    21914.265     1.067876 
     720    346.37378   -8452.0785     -8413.44   -12478.274    21914.265    1.0873947 
     730    347.79156   -8452.2373   -8413.4406   -12593.955    21914.265    1.1041491 
     740    351.02442    -8452.599   -8413.4417   -12781.856    21914.265    1.1188548 
     750    344.89782   -8451.9145   -8413.4406   -12888.282    21914.265     1.133643 
     760      340.342   -8451.4064   -8413.4407   -13050.736    21914.265    1.1491825 
     770    340.04955   -8451.3737   -8413.4407   -13326.749    21914.265    1.1643304 
     780      345.357   -8451.9656   -8413.4405   -13558.373    21914.265    1.1777023 
     790    357.12317   -8453.2788   -8413.4411   -13831.043    21914.265    1.1886997 
     800    366.64045   -8454.3407   -8413.4414   -14129.874    21914.265    1.1976392 
     810    368.68447   -8454.5688   -8413.4415   -14063.484    21914.265    1.2056605 
     820    366.60174   -8454.3361   -8413.4411   -13908.726    21914.265    1.2141717 
     830    365.85586   -8454.2531   -8413.4413   -13853.131    21914.265    1.2243585 
     840     368.4524   -8454.5423   -8413.4409   -13972.673    21914.265    1.2365636 
     850    371.87492   -8454.9262    -8413.443    -14131.16    21914.265    1.2503596 
     860     358.1746   -8453.3954   -8413.4405     -13818.7    21914.265    1.2649975 
     870    354.45705   -8452.9806   -8413.4404   -13465.958    21914.265     1.278191 
     880    366.65296   -8454.3425   -8413.4418   -13399.092    21914.265    1.2880847 
     890    376.93995   -8455.4909   -8413.4426    -13274.53    21914.265    1.2959326 
     900    375.96913   -8455.3817   -8413.4418   -13062.805    21914.265    1.3041818 
     910    374.01489   -8455.1632   -8413.4413   -12824.206    21914.265    1.3130528 
     920    378.94842   -8455.7136   -8413.4414   -12747.174    21914.265    1.3222121 
     930    388.54983   -8456.7859   -8413.4426   -12880.601    21914.265    1.3329508 
     940    389.80019   -8456.9258    -8413.443   -12981.003    21914.265    1.3457299 
     950    382.52604   -8456.1127   -8413.4413   -12918.004    21914.265    1.3587946 
     960    381.75271   -8456.0275   -8413.4424   -13120.356    21914.265    1.3710856 
     970    380.20365    -8455.854   -8413.4417   -13297.868    21914.265    1.3835601 
     980    384.06597   -8456.2848   -8413.4416    -13360.21    21914.265    1.3967998 
     990    391.39252    -8457.104   -8413.4436    -13319.56    21914.265    1.4114384 
    1000    385.55287   -8456.4508   -8413.4418   -13032.957    21914.265    1.4285977 
    1010    381.98963   -8456.0536   -8413.4421   -12900.345    21914.265    1.4480597 
    1020    382.08452   -8456.0644   -8413.4423   -12891.786    21914.265    1.4678099 
    1030    380.66666   -8455.9065   -8413.4425   -12820.478    21914.265    1.4859085 
    1040    378.02017   -8455.6107    -8413.442   -12814.774    21914.265    1.5012686 
    1050    381.70997   -8456.0224   -8413.4421   -12925.622    21914.265    1.5119118 
    1060    391.42566   -8457.1073   -8413.4432    -13146.33    21914.265    1.5173209 
    1070    396.24192   -8457.6441   -8413.4428   -13102.084    21914.265    1.5196151 
    1080    397.63032   -8457.7993    -8413.443   -12889.784    21914.265    1.5211703 
    1090    396.12759   -8457.6308   -8413.4422   -12537.537    21914.265    1.5231683 
    1100    400.33119   -8458.1002   -8413.4426   -12299.668    21914.265    1.5256834 
    1110    407.17314   -8458.8635   -8413.4428   -12099.612    21914.265    1.5296348 
    1120    413.19804   -8459.5369    -8413.444   -11926.861    21914.265    1.5369315 
    1130    409.94165   -8459.1721   -8413.4425   -11927.354    21914.265    1.5487344 
    1140    411.69689   -8459.3679   -8413.4425   -12274.932    21914.265    1.5644715 
    1150    417.92932   -8460.0654   -8413.4448   -12599.199    21914.265    1.5822789 
    1160    409.45399   -8459.1175   -8413.4423   -12608.558    21914.265    1.6004412 
    1170    405.75202   -8458.7057   -8413.4435   -12496.116    21914.265    1.6169469 
    1180    399.97271   -8458.0606    -8413.443   -12466.412    21914.265    1.6317671 
    1190    393.04741   -8457.2883   -8413.4433   -12618.331    21914.265    1.6460138 
    1200    381.93867   -8456.0489   -8413.4431   -12576.103    21914.265    1.6602667 
    1210    376.72969   -8455.4667   -8413.4419   -12745.258    21914.265    1.6726433 
    1220     387.4652   -8456.6661   -8413.4437   -13270.317    21914.265    1.6819979 
    1230    392.11995   -8457.1848   -8413.4433   -13698.725    21914.265    1.6894908 
    1240    392.35374   -8457.2109   -8413.4432   -14054.078    21914.265    1.6958816 
    1250    387.63167   -8456.6848   -8413.4439   -14383.659    21914.265    1.7022745 
    1260    377.01437   -8455.4984   -8413.4419   -14780.957    21914.265    1.7098627 
    1270    380.16106   -8455.8505   -8413.4429    -15291.91    21914.265    1.7186286 
    1280    386.65141    -8456.575   -8413.4435   -15684.863    21914.265    1.7280931 
    1290    386.45138   -8456.5524   -8413.4431   -15669.118    21914.265    1.7377267 
    1300    384.49318   -8456.3333   -8413.4425   -15192.167    21914.265    1.7465203 
    1310    389.16883   -8456.8559   -8413.4435   -14748.802    21914.265    1.7543822 
    1320    395.91985   -8457.6092   -8413.4437   -14540.669    21914.265    1.7626209 
    1330    402.24128   -8458.3144   -8413.4438   -14482.176    21914.265    1.7719127 
    1340    406.72312   -8458.8138   -8413.4433   -14593.779    21914.265    1.7822942 
    1350    413.88937   -8459.6138   -8413.4438   -14633.206    21914.265    1.7929881 
    1360    418.26368   -8460.1021   -8413.4441   -14272.723    21914.265    1.8043383 
    1370    412.53709   -8459.4628   -8413.4437   -13640.472    21914.265    1.8173742 
    1380    404.03017    -8458.513   -8413.4428   -13053.663    21914.265    1.8314414 
    1390    402.11865   -8458.3013   -8413.4444   -12796.252    21914.265    1.8446224 
    1400    396.75786   -8457.7017   -8413.4428   -12890.081    21914.265    1.8555613 
    1410     401.1626   -8458.1945   -8413.4442   -13251.623    21914.265    1.8625402 
    1420    405.53922    -8458.683   -8413.4445   -13540.901    21914.265    1.8651673 
    1430    404.12534   -8458.5245   -8413.4437   -13662.885    21914.265    1.8648977 
    1440    405.72045   -8458.7027    -8413.444   -13771.634    21914.265    1.8643414 
    1450    406.67484   -8458.8092    -8413.444   -13873.149    21914.265    1.8661066 
    1460    406.94702   -8458.8395   -8413.4439   -13898.845    21914.265    1.8707341 
    1470    405.99802   -8458.7335   -8413.4438    -13583.81    21914.265    1.8783175 
    1480    405.25435   -8458.6503   -8413.4436   -13097.342    21914.265    1.8881067 
    1490    408.19865    -8458.979   -8413.4439   -12662.726    21914.265    1.8977467 
    1500    414.56579   -8459.6887   -8413.4433   -12296.863    21914.265    1.9065246 
    1510    429.03716   -8461.3044   -8413.4447   -11735.577    21914.265    1.9156573 
    1520    435.43303   -8462.0188   -8413.4456   -11140.275    21914.265    1.9269758 
    1530    420.46896   -8460.3486   -8413.4446     -10759.3    21914.265    1.9420002 
    1540    404.55727   -8458.5707   -8413.4417   -10562.297    21914.265    1.9594173 
    1550     414.5371   -8459.6878   -8413.4456   -10873.945    21914.265    1.9756145 
    1560    415.64167   -8459.8093   -8413.4438    -11180.84    21914.265    1.9896674 
    1570    417.51903   -8460.0192   -8413.4444   -11574.862    21914.265      2.00287 
    1580    420.71133   -8460.3754   -8413.4444   -12084.028    21914.265    2.0173903 
    1590    422.23753   -8460.5459   -8413.4446   -12650.323    21914.265    2.0354221 
    1600    420.26548   -8460.3254   -8413.4441   -13157.964    21914.265    2.0567995 
    1610    418.97614   -8460.1816   -8413.4442   -13379.664    21914.265    2.0784503 
    1620    422.99101    -8460.629   -8413.4437   -13476.483    21914.265    2.0978277 
    1630    431.41255   -8461.5707    -8413.446   -13473.665    21914.265     2.115193 
    1640    426.28653   -8460.9963   -8413.4434   -13430.412    21914.265    2.1338075 
    1650    431.13487   -8461.5387    -8413.445   -13658.596    21914.265       2.1559 
    1660    436.17822   -8462.1019   -8413.4456   -13638.641    21914.265    2.1797337 
    1670    428.12023   -8461.2022   -8413.4447   -13252.346    21914.265    2.2035441 
    1680    422.66155   -8460.5919   -8413.4434   -13022.696    21914.265    2.2262152 
    1690    430.34848   -8461.4521    -8413.446   -12966.155    21914.265    2.2464937 
    1700    426.21611   -8460.9896   -8413.4446   -12849.343    21914.265    2.2649593 
    1710    421.63281   -8460.4781   -8413.4443    -12902.06    21914.265    2.2822078 
    1720    425.52952   -8460.9136   -8413.4451   -13254.993    21914.265    2.2992296 
    1730    433.21398   -8461.7705   -8413.4448   -13760.925    21914.265    2.3170264 
    1740    441.86781   -8462.7372   -8413.4461   -14050.542    21914.265    2.3352522 
    1750    438.27813    -8462.336   -8413.4454   -13921.401    21914.265    2.3528289 
    1760    429.17186   -8461.3192   -8413.4444   -13408.002    21914.265    2.3694072 
    1770    428.81898   -8461.2807   -8413.4453    -12917.73    21914.265    2.3858611 
    1780    433.34916   -8461.7857    -8413.445   -12638.931    21914.265    2.4026666 
    1790     441.0669   -8462.6474   -8413.4457   -12705.172    21914.265     2.419074 
    1800    447.24535   -8463.3359    -8413.445   -12842.309    21914.265    2.4345236 
    1810    451.04914   -8463.7611   -8413.4459   -13058.485    21914.265    2.4502124 
    1820    445.08252   -8463.0941   -8413.4445   -13035.825    21914.265    2.4671851 
    1830    441.70858   -8462.7187   -8413.4454   -12922.342    21914.265    2.4853863 
    1840    432.65555   -8461.7082   -8413.4449   -13058.866    21914.265    2.5046773 
    1850    428.24526   -8461.2146   -8413.4432   -13494.155    21914.265    2.5239509 
    1860    442.70809   -8462.8312   -8413.4464     -14052.9    21914.265    2.5417036 
    1870    445.34398   -8463.1238   -8413.4451   -14177.248    21914.265    2.5577578 
    1880    449.56383   -8463.5931   -8413.4436   -14088.107    21914.265    2.5732932 
    1890    469.70151   -8465.8424   -8413.4465   -13965.821    21914.265    2.5900107 
    1900    475.61979   -8466.5029   -8413.4468   -13338.709    21914.265    2.6092547 
    1910    460.77113   -8464.8444   -8413.4447   -12266.897    21914.265    2.6300063 
    1920    453.29076   -8464.0097   -8413.4444   -11600.031    21914.265    2.6488623 
    1930    455.01355   -8464.2038   -8413.4464   -11532.276    21914.265     2.664581 
    1940    446.57627   -8463.2611   -8413.4448   -11610.068    21914.265    2.6787843 
    1950    442.24787   -8462.7779   -8413.4445    -12067.88    21914.265     2.691974 
    1960    445.34565   -8463.1243   -8413.4453   -12574.104    21914.265    2.7033659 
    1970     445.3849   -8463.1293   -8413.4459   -12683.518    21914.265    2.7130116 
    1980    438.45896   -8462.3558    -8413.445   -12521.804    21914.265    2.7223802 
    1990    435.82997    -8462.062   -8413.4445   -12590.151    21914.265    2.7312795 
    2000    445.20858   -8463.1089   -8413.4452   -13039.215    21914.265    2.7384799 
Loop time of 1133.22 on 16 procs for 2000 steps with 864 atoms

Performance: 0.152 ns/day, 157.392 hours/ns, 1.765 timesteps/s
97.0% CPU use with 16 MPI tasks x 1 OpenMP threads

MPI task timing breakdown:
Section |  min time  |  avg time  |  max time  |%varavg| %total
---------------------------------------------------------------
Pair    | 353.36     | 619.22     | 1114       | 890.1 | 54.64
Bond    | 0.00012827 | 0.00022574 | 0.00035071 |   0.0 |  0.00
Neigh   | 0.017383   | 0.029549   | 0.054219   |   6.5 |  0.00
Comm    | 18.963     | 451.92     | 671.76     | 958.3 | 39.88
Output  | 0.13285    | 42.381     | 95.698     | 551.0 |  3.74
Modify  | 0.0081763  | 0.0092358  | 0.010349   |   0.6 |  0.00
Other   |            | 19.67      |            |       |  1.74

Nlocal:        54.0000 ave          84 max          36 min
Histogram: 3 3 4 0 0 2 1 0 1 2
Nghost:        477.750 ave         592 max         348 min
Histogram: 2 0 2 1 3 3 1 0 0 4
Neighs:         0.00000 ave           0 max           0 min
Histogram: 16 0 0 0 0 0 0 0 0 0
FullNghs:      2234.12 ave        4892 max        1038 min
Histogram: 5 5 0 0 2 0 2 0 0 2

Total # of neighbors = 35746
Ave neighs/atom = 41.372685
Ave special neighs/atom = 0.0000000
Neighbor list builds = 199
Dangerous builds = 198
unfix   1

velocity    all create 1087.5 1312343 dist gaussian
fix     2 all npt temp 1087.5 1087.5 $(100.0*dt) aniso 0.0 1.01325 $(1000.0*dt)
fix     2 all npt temp 1087.5 1087.5 0.10000000000000000555 aniso 0.0 1.01325 $(1000.0*dt)
fix     2 all npt temp 1087.5 1087.5 0.10000000000000000555 aniso 0.0 1.01325 1
run     3000
Per MPI rank memory allocation (min/avg/max) = 8.894 | 8.907 | 8.916 Mbytes
Step Temp PotEng TotEng Press Volume c_msd[4] 
    2000       1087.5   -8463.1089   -8341.7967     -9547.01    21914.265    2.7384799 
    2010    965.72226   -8449.5496   -8341.8218   -8041.4159    21909.072    2.7422258 
    2020    809.09271   -8431.9868   -8341.7313   -5893.1188    21895.015    2.7493097 
    2030    787.78739   -8429.1925   -8341.3137   -5745.5788    21874.235    2.7528292 
    2040    779.29942   -8427.4083   -8340.4763   -5373.3092    21847.194    2.7525811 
    2050    777.86519   -8426.1214   -8339.3494    -4889.168    21814.325    2.7511221 
    2060    795.23964   -8426.8642    -8338.154    -4677.317    21776.208    2.7513569 
    2070    793.04609   -8425.5445    -8337.079     -3586.19    21733.359    2.7554106 
    2080    793.61632   -8424.6268   -8336.0977   -2187.1057    21687.077    2.7630527 
    2090    803.16767   -8424.6706    -8335.076   -1442.0188    21638.992    2.7729472 
    2100    808.74866   -8424.1616   -8333.9445   -1406.6935     21590.13    2.7808638 
    2110    828.17167   -8425.0908    -8332.707   -1895.9246    21540.768    2.7838273 
    2120    847.49889   -8425.9152   -8331.3754   -2411.9977    21490.682    2.7855276 
    2130    854.13463   -8425.2866   -8330.0066   -2814.9898    21439.592    2.7913959 
    2140    851.97148   -8423.6477    -8328.609   -3182.7707    21387.369    2.8038524 
    2150    854.18578   -8422.4691   -8327.1834   -3351.5838    21333.974    2.8213178 
    2160     865.8692   -8422.3081   -8325.7191   -3164.4392    21279.591    2.8388237 
    2170    877.67041   -8422.0922   -8324.1867   -2262.4155    21224.792    2.8529416 
    2180    894.00606   -8422.2802   -8322.5525   -775.31345    21170.793    2.8645007 
    2190    927.09776   -8424.2331    -8320.814    421.57638    21119.217     2.876696 
    2200    953.70427   -8425.4213   -8319.0342    1278.5895    21071.303    2.8916595 
    2210    949.26334   -8423.1921   -8317.3003    2142.4015    21027.846    2.9124406 
    2220    933.15711   -8419.7229   -8315.6278    2574.3743    20989.449    2.9400157 
    2230    948.46823   -8419.7663   -8313.9632    1985.0721    20956.184    2.9673027 
    2240    969.18581   -8420.3774   -8312.2633    1152.7309    20927.203    2.9881823 
    2250    968.05397   -8418.5292   -8310.5413    886.17872     20901.45    3.0060024 
    2260     974.3752   -8417.4982   -8308.8052    1221.6117    20878.445    3.0270342 
    2270    998.19719   -8418.3847   -8307.0343    1500.3671    20858.238    3.0528414 
    2280    1024.9577   -8419.6082   -8305.2727    1341.4759    20840.837     3.082028 
    2290    1036.1073   -8419.1592   -8303.5799    874.91508    20825.861    3.1137029 
    2300    1028.6592   -8416.7362   -8301.9878    996.98437    20812.743    3.1491679 
    2310    1036.4925   -8416.0683    -8300.446    1660.1822    20801.446    3.1862891 
    2320    1058.3567    -8416.963   -8298.9018    2525.0529    20792.448     3.223409 
    2330    1064.1303   -8416.0962   -8297.3909    3143.6459    20786.403    3.2616583 
    2340    1068.7739   -8415.1765   -8295.9532     3175.482    20783.703     3.303009 
    2350    1073.4362   -8414.3287   -8294.5852    2447.8148    20784.178    3.3496424 
    2360    1101.3825   -8416.1386   -8293.2778    1063.3366    20786.955     3.403311 
    2370    1103.9535   -8415.2007    -8292.053    402.01634    20790.722    3.4634359 
    2380     1085.693   -8412.0429   -8290.9322    314.42145    20794.782    3.5273406 
    2390     1080.704   -8410.4249   -8289.8708    155.73582    20798.978    3.5916563 
    2400    1122.5377   -8414.0733   -8288.8526     338.8893    20803.192    3.6510806 
    2410    1114.9129   -8412.2778   -8287.9076     1178.901    20807.657    3.7074897 
    2420    1102.8788   -8410.1069   -8287.0792    1552.6485    20813.094    3.7679745 
    2430     1107.106   -8409.8112   -8286.3118    1305.0899    20819.828    3.8363124 
    2440    1122.2405   -8410.7839   -8285.5963    1347.8279    20827.654    3.9105202 
    2450    1138.4247   -8411.9665   -8284.9735    2097.1161     20836.63     3.986398 
    2460    1129.0635   -8410.4219   -8284.4731    3102.5582    20847.432    4.0606744 
    2470    1138.7902   -8411.1308    -8284.097    3740.1753    20860.938    4.1326215 
    2480    1160.8275   -8413.3446   -8283.8526    4134.5845    20877.713    4.2025677 
    2490    1151.0145   -8412.1853   -8283.7879     4807.408    20898.124    4.2723055 
    2500    1153.7222    -8412.604   -8283.9045    5229.7875    20922.688    4.3437915 
    2510    1132.5116   -8410.5147   -8284.1813    5311.0245    20951.683    4.4197395 
    2520    1108.3999   -8408.2202   -8284.5765    4949.9224    20985.075    4.4997683 
    2530    1125.5892   -8410.5907   -8285.0295    3538.6401    21022.279    4.5808678 
    2540    1122.9158   -8410.7875   -8285.5246    2825.3932    21061.912    4.6637445 
    2550    1129.3623   -8412.0663   -8286.0842     2009.262    21103.055    4.7492857 
    2560    1138.6028   -8413.7353   -8286.7224    1092.3771    21144.801    4.8402052 
    2570    1146.7484   -8415.3893   -8287.4678   -71.713434    21186.143    4.9431168 
    2580    1166.2397   -8418.4039   -8288.3081   -2055.4019    21225.769    5.0577508 
    2590    1175.0671   -8420.3879   -8289.3074   -3107.6642    21261.858    5.1748869 
    2600    1142.5059   -8417.9188   -8290.4705   -3329.4633    21293.418    5.2909058 
    2610    1112.0369   -8415.7511   -8291.7017   -3872.5709    21320.234    5.4012605 
    2620    1101.8979   -8415.8569   -8292.9385   -3876.0056    21342.018    5.5034942 
    2630    1080.2369   -8414.6525   -8294.1504   -3419.1736    21358.934    5.6016188 
    2640    1067.6938   -8414.4181   -8295.3152   -3031.8046    21371.594    5.7003416 
    2650    1032.3845   -8411.5269   -8296.3629   -2087.9954    21380.637    5.7993344 
    2660    1030.6661   -8412.2249   -8297.2526   -1258.5804    21387.126    5.8976802 
    2670    1063.4023    -8416.652   -8298.0279   -869.93702    21391.984    5.9954302 
    2680    1058.6885   -8416.8225   -8298.7242   -180.24557    21395.758    6.0923834 
    2690    1050.2973   -8416.4985   -8299.3363   -132.67315    21399.117    6.1892023 
    2700    1070.8865   -8419.3068   -8299.8478    -964.6858    21402.115    6.2837886 
    2710    1092.0344   -8422.1128   -8300.2947   -1567.7982    21403.992    6.3742966 
    2720    1060.7661   -8419.0136   -8300.6836   -953.34198     21404.28    6.4631207 
    2730    1051.7812   -8418.3384   -8301.0106   -453.50384    21403.552    6.5535663 
    2740    1048.2722   -8418.1976   -8301.2612    103.94303    21402.401    6.6452404 
    2750    1034.7344   -8416.8447   -8301.4186    990.66185    21401.451    6.7326724 
    2760    1045.5957   -8418.1187   -8301.4809      994.865    21401.479    6.8125773 
    2770     1047.371   -8418.2986   -8301.4627    638.88941     21402.52    6.8865103 
    2780    1043.0589   -8417.7163   -8301.3615    295.34275    21404.204    6.9576443 
    2790    1089.1164   -8422.6849   -8301.1923   -729.87737    21406.058    7.0275901 
    2800    1107.7002   -8424.5731   -8301.0075   -1429.0708    21407.111    7.0978921 
    2810    1096.5865   -8423.1875   -8300.8616   -1441.0567     21406.72    7.1691847 
    2820    1095.3817   -8422.9255   -8300.7341   -1473.0408    21404.874    7.2403978 
    2830    1112.7663   -8424.7577   -8300.6269   -1850.0326    21401.543    7.3106333 
    2840    1107.1201   -8424.0584   -8300.5575   -1698.6445    21396.508    7.3787977 
    2850    1108.4573   -8424.1949   -8300.5448   -1673.0092    21389.911    7.4438247 
    2860    1109.7874   -8424.4062   -8300.6077   -2150.9902    21381.799    7.5048045 
    2870    1099.4134    -8423.386   -8300.7447   -2744.0974    21371.787    7.5626933 
    2880    1110.2624   -8424.8043   -8300.9528   -3293.1924    21359.334    7.6210467 
    2890     1096.425    -8423.523   -8301.2151   -3286.3546    21344.037    7.6859131 
    2900    1112.2717   -8425.6041   -8301.5285   -3508.2229    21325.926    7.7571948 
    2910    1119.3004   -8426.7683   -8301.9087    -2845.382    21305.001    7.8322157 
    2920    1057.9162   -8420.3071    -8302.295   -790.93508    21282.147    7.9097838 
    2930    1068.1161   -8421.7796   -8302.6297    338.28453    21259.325    7.9901621 
    2940    1104.5345   -8426.1404   -8302.9279    671.74759    21237.721    8.0722007 
    2950    1117.5275   -8427.9059    -8303.244    1140.5507    21217.705    8.1537449 
    2960    1147.2739   -8431.6313   -8303.6512    1255.3405    21199.614    8.2385606 
    2970     1127.268   -8429.9041   -8304.1557    2420.9347    21183.679    8.3286929 
    2980     1136.271   -8431.5201   -8304.7674     3185.951    21170.832    8.4219757 
    2990    1173.5655   -8436.4367   -8305.5237    2807.5718    21161.684    8.5165261 
    3000    1186.2889   -8438.8472   -8306.5149    2130.9091     21155.74    8.6183024 
    3010    1157.2017    -8436.799   -8307.7114     2218.223     21152.28    8.7327084 
    3020    1137.8191   -8435.9153   -8308.9899    2301.1141    21151.202    8.8525676 
    3030    1121.0666   -8435.3389   -8310.2822    2081.6836    21152.471    8.9724897 
    3040    1097.6049    -8433.984   -8311.5445    1656.4256    21155.801    9.0959948 
    3050     1107.308   -8436.2971   -8312.7753     451.4976    21160.603    9.2254824 
    3060    1136.1125   -8440.7446   -8314.0096   -749.51679    21165.649    9.3599106 
    3070    1140.6284   -8442.5191   -8315.2802   -916.25023    21169.798    9.4966937 
    3080    1112.0936   -8440.5764   -8316.5207   -678.82808    21172.859    9.6319543 
    3090     1106.776   -8441.1687   -8317.7062   -737.31561    21175.073     9.762765 
    3100    1081.8295    -8439.508   -8318.8283    -464.2105     21176.52     9.892865 
    3110    1086.5887   -8441.0855   -8319.8749   -1118.9449     21177.34    10.026656 
    3120    1100.0591   -8443.5875   -8320.8742   -1952.8269    21176.979    10.163782 
    3130    1107.0617   -8445.3353   -8321.8409   -2400.9001    21174.685    10.301753 
    3140    1093.3369   -8444.7143   -8322.7509   -1832.1642    21170.167    10.439279 
    3150    1082.6008    -8444.346   -8323.5803   -566.50118    21164.102    10.575847 
    3160    1091.7004   -8446.1449   -8324.3641     102.9175    21157.722    10.712235 
    3170    1099.4573   -8447.8072   -8325.1611   -414.82966    21151.654    10.847489 
    3180    1096.3394   -8448.2755   -8325.9772   -1375.3876    21145.441    10.981862 
    3190    1107.4539   -8450.3525   -8326.8143   -2325.0332    21138.162    11.117531 
    3200    1115.4083    -8452.106   -8327.6805   -2899.6634    21128.944    11.255403 
    3210    1113.7173   -8452.8058   -8328.5689   -2942.9071    21117.316    11.393993 
    3220     1124.852   -8454.9594   -8329.4804   -2457.1202    21103.374    11.527533 
    3230    1143.6551   -8458.0568   -8330.4803   -1634.1238    21087.702    11.652226 
    3240    1126.1406   -8457.1896    -8331.567   -451.99063    21071.235    11.775331 
    3250    1095.0854   -8454.8056   -8332.6472    217.44834    21055.098    11.903846 
    3260    1072.3347   -8453.2456    -8333.625   -19.546513     21039.92    12.034944 
    3270    1097.1586   -8456.8856   -8334.4959   -1003.2218    21025.423    12.161315 
    3280    1118.4565   -8460.1126   -8335.3471   -1923.6081    21010.653    12.281777 
    3290    1098.6991   -8458.7753   -8336.2138    -2070.573    20994.797    12.399397 
    3300    1089.7145   -8458.6257   -8337.0664   -1935.0678      20977.7    12.512967 
    3310    1076.3883   -8457.9387    -8337.866   -1002.0684     20959.63     12.62466 
    3320    1062.2951   -8457.0822   -8338.5816   -325.16708    20941.437    12.734837 
    3330     1077.349   -8459.3956   -8339.2157   -35.663282    20923.779    12.838644 
    3340    1078.9672   -8460.1555   -8339.7951    588.28079    20906.975    12.932331 
    3350    1058.7497   -8458.4209   -8340.3157    1323.5074    20891.553     13.01855 
    3360    1060.7931   -8459.1013   -8340.7682     2034.458    20878.167    13.103498 
    3370    1083.5211   -8462.0326   -8341.1642    2308.5538    20867.366    13.190027 
    3380    1086.5264   -8462.7487   -8341.5451    2372.0041    20859.326    13.278053 
    3390    1064.9347   -8460.7054   -8341.9103    2340.8731    20853.981    13.368165 
    3400    1056.9364   -8460.1382   -8342.2354    1605.8137    20851.116    13.462162 
    3410    1098.6406    -8465.083    -8342.528    416.59125    20849.922    13.560856 
    3420    1130.3669   -8468.9553   -8342.8611   -271.88163    20849.243      13.6649 
    3430    1089.0702   -8464.7506   -8343.2632   -27.957038    20848.411    13.777516 
    3440    1078.0793   -8463.9409   -8343.6795   -275.30877    20847.523      13.9015 
    3450    1116.2793   -8468.6227   -8344.1001   -1299.1989    20846.333    14.027969 
    3460    1146.9523   -8472.5492   -8344.6049   -2045.5823    20843.946    14.147806 
    3470    1115.2623   -8469.6437   -8345.2345   -1461.8348    20839.757    14.263552 
    3480    1073.1157   -8465.5948   -8345.8871   -255.43817    20834.385    14.381308 
    3490    1085.1778   -8467.5642    -8346.511   -568.37643    20828.843     14.50317 
    3500     1114.676   -8471.4798    -8347.136   -1806.1367    20822.885    14.627148 
    3510    1126.5865   -8473.5105   -8347.8381    -2539.277     20815.43    14.748475 
    3520    1087.0497   -8469.8429   -8348.5808   -1960.4732    20805.881    14.861842 
    3530    1083.2959   -8470.1479   -8349.3046   -1129.3674    20794.762    14.966373 
    3540    1094.2417   -8472.0614   -8349.9971   -44.199081    20782.962    15.064682 
    3550    1105.4441   -8474.0112   -8350.6973    649.86206    20771.499    15.162745 
    3560    1103.6621     -8474.52   -8351.4049    727.86109    20761.048    15.265828 
    3570    1110.8383   -8476.0489   -8352.1333   -164.94275    20751.577    15.367943 
    3580    1091.9707     -8474.69   -8352.8791   -268.17054    20742.345    15.467797 
    3590    1055.0052   -8471.2508   -8353.5633    1003.2268    20733.302    15.575366 
    3600     1066.766   -8473.1419   -8354.1426    1701.2236    20725.495    15.696578 
    3610    1088.9585   -8476.1322   -8354.6572    2087.8998     20719.61     15.82793 
    3620    1076.0239   -8475.1664   -8355.1343    2478.1478    20715.963    15.963431 
    3630    1065.6554   -8474.4437   -8355.5682    2671.9945    20714.824    16.098312 
    3640    1071.7446   -8475.5042   -8355.9495    2860.9046    20716.347    16.233642 
    3650    1077.5395   -8476.4783   -8356.2771    2583.8999    20720.602    16.377085 
    3660    1109.5357   -8480.3726   -8356.6023    1803.2277    20727.186    16.534269 
    3670    1103.2819   -8480.0385   -8356.9658     1834.088    20735.387    16.703208 
    3680    1108.2648   -8481.0033   -8357.3747    1445.7466     20745.08    16.875472 
    3690    1117.8556   -8482.5289   -8357.8304    429.89709    20755.823    17.043875 
    3700    1063.9478   -8476.9719   -8358.2869    518.48638    20766.759    17.201256 
    3710    1055.2557   -8476.3991   -8358.6837     848.0682    20777.852     17.34517 
    3720    1093.0159   -8480.9574   -8359.0299    1059.1789    20789.414    17.487942 
    3730    1099.7532   -8482.0669   -8359.3877    1386.7822    20801.671    17.640284 
    3740    1099.2837   -8482.4038   -8359.7771    997.70943    20814.829    17.798741 
    3750    1128.0684   -8486.0636   -8360.2259    251.49925    20828.519    17.956148 
    3760    1130.1904   -8486.8427   -8360.7682   -60.913991    20842.068    18.107656 
    3770    1145.9638   -8489.2726   -8361.4386   -489.90233    20855.114    18.250358 
    3780    1131.1551   -8488.4268   -8362.2447   -796.19016    20867.261     18.39142 
    3790    1084.8187   -8484.1132   -8363.1001   -799.33761    20878.283    18.535843 
    3800    1106.0473   -8487.3241   -8363.9428   -2040.1578    20888.028    18.680968 
    3810    1110.2874   -8488.6242   -8364.7699   -2857.9393    20895.487    18.828138 
    3820      1103.86   -8488.7156   -8365.5783   -3285.9118    20899.906    18.983275 
    3830    1100.2552    -8489.096   -8366.3609   -3453.1969    20900.931    19.140817 
    3840    1059.5462   -8485.2492   -8367.0553   -2505.6987    20898.614    19.291573 
    3850    1063.9398   -8486.3153   -8367.6312   -1864.0804    20893.855    19.433697 
    3860    1077.5134   -8488.2987   -8368.1005   -1380.3264    20887.401     19.56808 
    3870    1086.0396   -8489.6444   -8368.4951   -582.98777    20879.814    19.696743 
    3880    1102.6189   -8491.8236   -8368.8248    351.76159    20871.898    19.821087 
    3890    1117.9421   -8493.8449   -8369.1368    1115.3568    20864.578    19.945043 
    3900    1099.2547   -8492.0666   -8369.4431    1458.4631    20858.558    20.079221 
    3910    1101.8315   -8492.6516   -8369.7406    1530.0789    20854.149     20.22794 
    3920    1105.3894    -8493.346   -8370.0381    1611.4559    20851.399    20.385029 
    3930    1094.8837   -8492.4679   -8370.3319    2051.8646    20850.388    20.546537 
    3940    1127.1716   -8496.3696   -8370.6319     1511.713    20851.328    20.715291 
    3950    1132.5299   -8497.3282   -8370.9928    1826.3741    20853.815    20.897137 
    3960     1079.557   -8491.8018   -8371.3756    2556.3152    20858.063    21.090844 
    3970    1110.2589   -8495.6124   -8371.7614    2078.5181     20864.58    21.289132 
    3980    1111.4077   -8496.1396   -8372.1604    2109.9083     20873.02    21.482572 
    3990    1107.6102   -8496.1345   -8372.5789    1912.9191    20883.259    21.670532 
    4000    1154.7716   -8501.8778   -8373.0613    1411.4521    20895.031     21.86066 
    4010    1130.6832   -8499.7433   -8373.6139    1440.4726    20907.868    22.055085 
    4020    1134.3388    -8500.776   -8374.2388      826.142    20921.648    22.249696 
    4030    1125.3164   -8500.4548   -8374.9241   -61.571011    20935.801    22.438244 
    4040    1115.0552   -8500.0261   -8375.6401   -870.60879    20949.458    22.615501 
    4050    1118.3054   -8501.1075   -8376.3589   -1782.7008    20961.785    22.774882 
    4060    1102.3342   -8500.0207   -8377.0537   -2738.5918    20971.944    22.917084 
    4070    1093.6843   -8499.7038   -8377.7017   -3809.3655    20979.023    23.050436 
    4080     1090.185   -8499.9014   -8378.2897   -3601.9196    20982.186    23.175024 
    4090     1087.072   -8500.0847   -8378.8202   -2213.1264    20981.757    23.286046 
    4100    1076.2366    -8499.332   -8379.2762   -681.41228     20979.16    23.383637 
    4110    1098.0254   -8502.1662   -8379.6798   -159.15758    20975.866    23.477916 
    4120    1107.4435   -8503.6064   -8380.0694     27.31673    20972.511    23.576211 
    4130    1104.6534   -8503.6904   -8380.4647   -74.187563    20969.285    23.679651 
    4140    1113.0682   -8505.0368   -8380.8724   -983.04188    20966.005    23.785569 
    4150    1101.8552   -8504.2063   -8381.2927   -1035.6245    20961.957    23.889098 
    4160    1084.9721   -8502.7205   -8381.6903   -267.04451    20957.103      23.9938 
    4170    1091.9306   -8503.8556   -8382.0491     233.1624    20952.109    24.101585 
    4180    1118.2157   -8507.1343   -8382.3957    788.55678    20947.515    24.208674 
    4190    1121.7375   -8507.9203   -8382.7888    990.82528    20943.807    24.310508 
    4200    1092.6606   -8505.0901   -8383.2022    682.73214    20941.159    24.406171 
    4210    1127.3772   -8509.4053   -8383.6447   -456.60447    20939.184    24.501103 
    4220    1140.9681   -8511.4234   -8384.1467   -777.02166    20936.905     24.59998 
    4230    1138.2518   -8511.7224   -8384.7486   -351.49845    20933.996    24.704682 
    4240    1103.4215   -8508.5018   -8385.4134     353.0327    20930.863    24.813634 
    4250    1069.6855   -8505.3658   -8386.0408    1056.2589    20928.206    24.929494 
    4260    1100.8523   -8509.4143   -8386.6125    647.81751    20926.571    25.049816 
    4270    1114.2821   -8511.4453   -8387.1455    47.352952    20925.635    25.163849 
    4280    1113.0116   -8511.8378   -8387.6797    164.94454    20924.846    25.268358 
    4290    1069.6898   -8507.4899   -8388.1643    925.89566    20924.313    25.368629 
    4300    1078.8062    -8508.911   -8388.5686    456.43742    20924.592    25.467066 
    4310    1123.7917   -8514.3084   -8388.9477    -1095.199    20925.194    25.565127 
    4320    1111.0727   -8513.2994   -8389.3576   -1546.6353    20924.823    25.671535 
    4330    1093.9297   -8511.8111   -8389.7816   -1924.0018    20922.915    25.784879 
    4340    1091.8092   -8511.9841   -8390.1912   -1942.4066     20919.15    25.894702 
    4350    1071.3967   -8510.0747   -8390.5588   -1270.6555    20913.603    25.993961 
    4360    1061.6845   -8509.2979   -8390.8654   -638.97854    20906.928    26.079299 
    4370     1048.703   -8508.0581   -8391.0737   -437.55665    20899.749    26.155074 
    4380    1073.0132   -8510.8964   -8391.2001   -491.52233    20892.304    26.228349 
    4390      1099.21   -8513.9045    -8391.286   -873.00825    20884.507    26.299217 
    4400     1095.973   -8513.6336   -8391.3762   -263.86399    20876.141    26.359529 
    4410    1085.0995   -8512.5198   -8391.4754    876.44823    20867.769     26.40382 
    4420     1083.566   -8512.4248   -8391.5514    1560.3573    20860.453    26.438364 
    4430    1114.9686   -8516.0165   -8391.6401    997.36947    20854.729    26.475475 
    4440    1112.1268   -8515.8283   -8391.7689    685.78392    20850.173    26.529424 
    4450    1119.8111   -8516.8821   -8391.9655    580.03343    20846.416    26.599858 
    4460    1113.3381   -8516.4121   -8392.2176    753.54437    20843.344    26.673152 
    4470    1120.2302   -8517.4903   -8392.5269     265.3503    20841.021    26.747358 
    4480    1129.5352   -8518.9117   -8392.9104   -438.35564    20839.013    26.822484 
    4490    1095.2252   -8515.5357   -8393.3616   -306.01944    20836.704    26.893219 
    4500    1049.5486   -8510.8707    -8393.792   -209.32328    20834.144    26.948037 
    4510    1057.2762   -8512.0866   -8394.1458   -330.85084    20831.415    26.976656 
    4520    1076.8575   -8514.5513   -8394.4262    2.5401349    20828.462    26.978948 
    4530    1092.0296   -8516.5013   -8394.6837    700.06846    20825.614    26.967501 
    4540     1089.749   -8516.5047   -8394.9415    1126.2713    20823.495    26.960635 
    4550     1089.559   -8516.7496   -8395.2076    915.36722    20822.494    26.967429 
    4560    1092.4056   -8517.3427   -8395.4832   -10.889387    20822.371    26.979383 
    4570    1100.3971   -8518.5283   -8395.7774   -934.67057    20822.254    26.982708 
    4580    1090.3964   -8517.7289   -8396.0935   -991.47166    20821.286    26.964399 
    4590     1077.733   -8516.6287    -8396.406   -20.609015    20819.445      26.9186 
    4600    1085.1472   -8517.7589   -8396.7091    1299.3057    20817.662    26.858439 
    4610    1084.0813   -8517.9387   -8397.0078    2414.9931    20817.186    26.803375 
    4620    1100.2036   -8520.0552   -8397.3259    2894.1863    20819.053    26.759398 
    4630    1110.5653   -8521.5757   -8397.6905    2867.1079    20823.741    26.725053 
    4640    1120.2866   -8523.1138   -8398.1442    2001.1231    20831.126    26.704396 
    4650    1127.8832   -8524.5412   -8398.7242    614.29647    20840.335    26.695777 
    4660    1116.2379    -8523.984    -8399.466   -181.15704    20850.086    26.692566 
    4670    1093.0691   -8522.3165    -8400.383   -538.11594    20859.523    26.690971 
    4680    1069.4347   -8520.7359   -8401.4388   -609.48816    20868.306    26.695357 
    4690    1082.1468   -8523.3514   -8402.6363   -738.35988    20876.337    26.718144 
    4700    1066.7804   -8522.9467   -8403.9458   -70.431277    20883.593    26.767064 
    4710    1051.5731   -8522.5827   -8405.2782    224.51204    20890.637    26.833326 
    4720     1039.419   -8522.4586   -8406.5098   -334.90318    20897.749    26.904836 
    4730    1063.4056    -8526.196   -8407.5715    -1970.936    20904.328    26.968276 
    4740    1082.8483   -8529.2632   -8408.4699   -3291.0399    20908.877    27.010636 
    4750    1072.9356   -8528.8792   -8409.1916   -3962.1383    20910.123    27.033481 
    4760    1065.0893   -8528.5415   -8409.7292   -4116.2686    20907.413    27.041488 
    4770    1056.8066   -8527.9818   -8410.0935   -3744.2667     20900.66    27.032095 
    4780    1057.2527   -8528.2555   -8410.3174    -3670.833    20890.222    27.007252 
    4790    1078.6016   -8530.7736   -8410.4539   -3497.5441    20876.271    26.972647 
    4800    1108.1382   -8534.1742   -8410.5598   -3146.7064    20859.022    26.931005 
    4810     1113.246   -8534.8723    -8410.688   -2151.3791    20838.925    26.884326 
    4820    1087.7584   -8532.1635   -8410.8224    -557.7503    20817.035    26.837036 
    4830    1078.7026   -8531.2616   -8410.9307    755.19873    20794.888     26.79403 
    4840    1063.4007   -8529.6118   -8410.9878     1482.881    20773.752    26.759556 
    4850    1070.9608   -8530.4701   -8411.0028    1543.2354    20754.338    26.728609 
    4860    1091.8989   -8532.7962   -8410.9932    858.64377    20736.671    26.698146 
    4870    1108.4501   -8534.6692   -8411.0199    60.833398    20720.087    26.679029 
    4880    1069.6138   -8530.3785   -8411.0615   -277.49629    20703.858    26.679907 
    4890    1091.8768   -8532.9004   -8411.0999   -1361.4036    20687.521    26.696551 
    4900    1103.1468   -8534.2003   -8411.1426   -1718.6665    20670.152    26.721976 
    4910     1083.169    -8532.029   -8411.1998   -849.91441    20651.451    26.747384 
    4920     1096.937   -8533.6255   -8411.2605    195.39904    20632.177    26.763074 
    4930    1073.9184    -8531.088   -8411.2907    1545.1617    20613.408    26.769796 
    4940    1101.2108   -8534.1618     -8411.32    1321.7247    20596.264    26.777379 
    4950    1103.5733   -8534.4844   -8411.3791    967.67651    20580.645    26.793072 
    4960    1081.2394   -8532.0888   -8411.4749    1372.4701    20566.252    26.818711 
    4970    1088.1515   -8532.9726   -8411.5876    2135.0828    20553.409    26.852645 
    4980    1059.6468   -8529.8863   -8411.6811    4124.8273    20542.936    26.890291 
    4990    1047.1721    -8528.532   -8411.7183    5207.9942    20536.518    26.931938 
    5000    1072.8909   -8531.3689   -8411.6863    4906.4804    20535.114    26.976922 
Loop time of 1934.26 on 16 procs for 3000 steps with 864 atoms

Performance: 0.134 ns/day, 179.098 hours/ns, 1.551 timesteps/s
96.1% CPU use with 16 MPI tasks x 1 OpenMP threads

MPI task timing breakdown:
Section |  min time  |  avg time  |  max time  |%varavg| %total
---------------------------------------------------------------
Pair    | 821.93     | 1189.1     | 1898.9     |1005.7 | 61.47
Bond    | 0.00017715 | 0.00054653 | 0.0013015  |   0.0 |  0.00
Neigh   | 0.027536   | 0.04576    | 0.087891   |   9.3 |  0.00
Comm    | 1.9984     | 442.76     | 1075.7     |1424.3 | 22.89
Output  | 0.19516    | 0.19804    | 0.23966    |   2.4 |  0.01
Modify  | 0.58896    | 302.16     | 787.5      |1517.6 | 15.62
Other   |            | 0.01228    |            |       |  0.00

Nlocal:        54.0000 ave          93 max          35 min
Histogram: 5 3 0 2 2 2 0 0 0 2
Nghost:        487.812 ave         668 max         356 min
Histogram: 4 2 0 0 5 1 0 2 0 2
Neighs:         0.00000 ave           0 max           0 min
Histogram: 16 0 0 0 0 0 0 0 0 0
FullNghs:      2498.38 ave        6081 max        1045 min
Histogram: 8 0 2 0 3 1 0 0 0 2

Total # of neighbors = 39974
Ave neighs/atom = 46.266204
Ave special neighs/atom = 0.0000000
Neighbor list builds = 300
Dangerous builds = 300
unfix   2

fix     3 all npt temp 1087.5 1087.5 $(100.0*dt) aniso 1.01325 1.01325 $(1000.0*dt)
fix     3 all npt temp 1087.5 1087.5 0.10000000000000000555 aniso 1.01325 1.01325 $(1000.0*dt)
fix     3 all npt temp 1087.5 1087.5 0.10000000000000000555 aniso 1.01325 1.01325 1
run     20000
Per MPI rank memory allocation (min/avg/max) = 8.895 | 8.909 | 8.923 Mbytes
Step Temp PotEng TotEng Press Volume c_msd[4] 
    5000    1072.8909   -8531.3689   -8411.6863    4906.4804    20535.114    26.976922 
    5010    1083.0013   -8532.4922   -8411.6818    4677.5507     20537.46    27.014105 
    5020    1082.3755   -8532.4159   -8411.6752    4114.3331    20544.339    27.057343 
    5030    1105.6798   -8535.0089   -8411.6686    2962.7397    20555.209    27.114619 
    5040    1143.2464   -8539.2382   -8411.7073     1454.384    20568.948    27.189783 
    5050     1114.665   -8536.1921   -8411.8496    1706.5028    20584.315    27.287232 
    5060    1099.3367   -8534.7025   -8412.0699    1684.5679    20601.371    27.408436 
    5070    1145.0797      -8540.1   -8412.3647     426.2032    20619.996    27.547677 
    5080    1121.3921    -8537.876    -8412.783    471.34911    20639.235      27.7011 
    5090    1098.0886   -8535.8161   -8413.3227    415.46503    20658.978    27.870157 
    5100    1083.6065   -8534.8132   -8413.9353    317.25638    20679.192    28.057192 
    5110    1065.4684   -8533.4325   -8414.5779   -170.25637    20699.741    28.260201 
    5120    1067.2011   -8534.2733   -8415.2254   -1431.2081    20720.108    28.471759 
    5130    1064.2319    -8534.562   -8415.8453   -2481.4731    20739.127      28.6882 
    5140    1114.4232   -8540.8146   -8416.4991    -4077.179    20755.631    28.906501 
    5150    1116.6817   -8541.8385   -8417.2709   -4978.9052    20768.153    29.120272 
    5160    1058.4764   -8536.1932   -8418.1185   -4640.9617    20775.841    29.318976 
    5170     1053.201   -8536.4323   -8418.9461   -4590.7331    20778.879    29.491151 
    5180    1068.8095   -8538.9614   -8419.7341   -4794.3845    20777.323    29.628653 
    5190    1071.6428   -8540.0556   -8420.5122   -4483.2921    20771.053     29.72695 
    5200    1068.2033   -8540.4365   -8421.2768   -3981.4523    20760.338    29.794514 
    5210     1066.679   -8540.9963   -8422.0066   -3701.7542    20745.645    29.856299 
    5220    1093.8103   -8544.7207   -8422.7046     -2923.28    20727.354    29.923879 
    5230    1074.6857   -8543.2363   -8423.3535   -1411.6117    20706.274    29.991519 
    5240    1033.2897   -8539.1383   -8423.8733    284.71972    20683.911    30.052194 
    5250    1069.5156    -8543.578    -8424.272    405.61248     20661.76    30.098278 
    5260    1061.5666   -8542.9938   -8424.5744    615.29191    20640.121    30.127573 
    5270      1059.98   -8543.0219   -8424.7795    1212.9556    20619.231    30.141831 
    5280    1096.4528   -8547.2395   -8424.9285    1899.6291     20599.64    30.152204 
    5290    1068.3412   -8544.2262   -8425.0511    3626.4241    20582.118     30.17893 
    5300    1054.5491   -8542.7644   -8425.1279    4642.0781    20568.159    30.234773 
    5310    1088.3395   -8546.5618   -8425.1558    3941.1726    20558.648    30.310819 
    5320    1126.6872   -8550.8771   -8425.1934    2626.3825    20552.984     30.39069 
    5330    1146.9957   -8553.2762   -8425.3271     2096.689    20549.988    30.471544 
    5340    1127.7667   -8551.3676   -8425.5635    3028.7605    20549.193    30.561915 
    5350    1116.4398   -8550.4194   -8425.8789    4387.5375      20551.4    30.671171 
    5360    1089.4469   -8547.7397   -8426.2102    5074.6362    20557.848    30.807723 
    5370    1110.5557   -8550.4154   -8426.5312    3559.2533    20569.026    30.973853 
    5380    1112.3234   -8550.9232   -8426.8418    1902.0083    20583.638    31.162655 
    5390    1077.6212   -8547.3258   -8427.1155    1772.4357    20600.202     31.36878 
    5400    1083.5615   -8548.2124   -8427.3395    1378.6617    20618.418    31.589417 
    5410    1100.5911   -8550.2987   -8427.5261    226.85133    20637.872    31.822123 
    5420    1097.9434   -8550.1696   -8427.6924   -865.63678    20657.458    32.062651 
    5430    1083.3806   -8548.6881   -8427.8354   -956.68277    20676.192    32.297276 
    5440    1096.5247   -8550.2632   -8427.9442   -1325.4253    20693.851     32.51145 
    5450    1116.8913   -8552.6424   -8428.0515   -1511.4551    20710.112    32.695713 
    5460    1093.8121   -8550.2133   -8428.1969    -1353.605    20724.812    32.853472 
    5470     1066.102   -8547.2687   -8428.3434   -1511.0605     20738.05    32.999084 
    5480     1090.811    -8550.136   -8428.4544   -2206.2564    20749.646    33.138804 
    5490    1095.3602   -8550.7282   -8428.5391   -2784.5793    20758.976    33.265056 
    5500    1094.6545   -8550.7522   -8428.6418   -3452.6085    20765.453     33.37664 
    5510    1104.9724   -8552.0352   -8428.7739   -4218.9118    20768.448    33.479595 
    5520    1106.1366   -8552.3481   -8428.9569   -4529.3518    20767.281    33.575954 
    5530    1114.7146   -8553.5454   -8429.1973   -4633.0781    20761.653     33.65876 
    5540    1104.0653   -8552.6739   -8429.5137   -4507.5672    20751.495    33.724565 
    5550    1046.0881   -8546.5235   -8429.8308   -3414.2793    20737.089    33.776948 
    5560     1067.054   -8549.1285    -8430.097   -3138.8994     20719.35     33.81999 
    5570    1085.2401    -8551.381   -8430.3209   -2871.8873    20698.699    33.854408 
    5580    1083.3955   -8551.3831   -8430.5287   -2238.6733    20675.469    33.878304 
    5590    1097.4859   -8553.1618   -8430.7356   -1488.9337    20650.311    33.889582 
    5600    1098.4216   -8553.4854   -8430.9548   -404.17434    20624.002    33.893085 
    5610    1105.1644   -8554.4851   -8431.2023    789.19127    20597.577    33.894089 
    5620    1086.4013   -8552.6619   -8431.4722    2453.4218    20572.265    33.887616 
    5630    1085.4967   -8552.8379   -8431.7491    3948.0549    20549.625    33.866981 
    5640    1121.6077   -8557.1947   -8432.0776    4852.5807    20531.021    33.835217 
    5650    1137.9328   -8559.4696   -8432.5315    5900.7764    20517.348    33.802334 
    5660    1154.9622   -8562.0361   -8433.1983    5675.5466    20509.398    33.784593 
    5670    1130.8932   -8560.2576   -8434.1048    5021.7639    20506.992    33.798342 
    5680    1073.6175    -8554.916   -8435.1524    4603.9974    20509.497    33.855245 
    5690    1070.3955   -8555.6254   -8436.2212    3813.0402    20516.405    33.952351 
    5700    1106.9068   -8560.7853   -8437.3082    2662.5148    20526.922    34.068401 
    5710    1115.5388   -8562.8562   -8438.4162    2030.8354    20539.971    34.183437 
    5720    1120.3162   -8564.4861   -8439.5132    1653.5606    20554.877    34.286658 
    5730    1120.0511   -8565.5144    -8440.571    1845.7352    20571.316    34.380627 
    5740    1099.3119   -8564.1537   -8441.5238     1884.262    20589.376    34.470769 
    5750    1092.3779    -8564.184   -8442.3276    1614.0017    20609.094    34.558633 
    5760    1107.9437   -8566.5742   -8442.9814    1204.5471    20630.199    34.644656 
    5770    1111.6333   -8567.5545   -8443.5501    1425.8794    20652.348    34.725366 
    5780    1080.5578   -8564.5599    -8444.022    1751.4743     20675.71    34.803114 
    5790    1126.5751   -8570.1051    -8444.434    864.23976    20700.485    34.879355 
    5800    1140.5376   -8572.0668   -8444.8381   -196.79734    20725.896      34.9533 
    5810    1143.6965   -8572.8702   -8445.2891   -1056.3604    20750.895     35.02644 
    5820    1136.5142    -8572.582   -8445.8021   -1168.6225    20774.679     35.10481 
    5830    1122.8677   -8571.6223   -8446.3648   -1381.1394    20797.051     35.19283 
    5840     1125.139   -8572.4815   -8446.9706    -1989.072    20817.778    35.286679 
    5850    1063.2361    -8566.151   -8447.5454   -1327.7117    20836.439    35.380417 
    5860    1060.7904   -8566.3601   -8448.0273   -1053.0367    20853.542      35.4685 
    5870    1099.5923   -8571.0921   -8448.4309   -2091.0017    20869.277    35.550933 
    5880    1084.3589   -8569.7828   -8448.8209    -2137.882     20882.85      35.6392 
    5890    1062.9707    -8567.758    -8449.182   -1813.7422    20894.165     35.74779 
    5900    1092.8804   -8571.4277   -8449.5152   -2068.1737    20903.477    35.874628 
    5910    1103.6098   -8572.9499   -8449.8406   -2381.7771    20910.618     35.99757 
    5920    1126.6369   -8575.8946   -8450.2166   -3356.8025    20915.237    36.099171 
    5930     1107.569   -8574.2289   -8450.6779   -4126.5711    20916.453    36.175642 
    5940    1058.7986   -8569.2637   -8451.1532    -4345.157    20913.571    36.229456 
    5950    1107.9179   -8575.2123   -8451.6224   -6099.9411    20906.204    36.267744 
    5960    1130.4439   -8578.2761   -8452.1734   -6873.2277    20892.895     36.29492 
    5970    1054.5595   -8570.4173   -8452.7796   -4795.3826    20873.117     36.31023 
    5980    1040.0425   -8569.3153    -8453.297   -3096.1614    20848.729    36.314923 
    5990    1064.2652   -8572.4227   -8453.7023    -1721.806    20821.548    36.305535 
    6000    1085.4505   -8575.1369   -8454.0532    -104.9555    20793.022    36.283445 
    6010    1097.6404   -8576.8454    -8454.402    1436.3334    20764.781    36.261714 
    6020    1086.1292    -8575.926   -8454.7666    2546.0361    20738.337    36.262145 
    6030    1077.3882    -8575.303   -8455.1187    2982.6053    20714.725    36.304084 
    6040    1105.0742   -8578.7147    -8455.442    3074.0758     20694.38    36.394185 
    6050     1134.726   -8582.3871   -8455.8067    2926.0315    20677.347     36.52301 
    6060    1120.9174   -8581.3013   -8456.2613    2600.9205    20663.411    36.665668 
    6070    1092.4807    -8578.657   -8456.7891    2624.7246     20652.28    36.805904 
    6080    1070.4789   -8576.7368   -8457.3233    2748.9664    20643.919    36.935339 
    6090    1089.5304   -8579.3831   -8457.8443    2366.7401    20638.337    37.050835 
    6100    1122.1314   -8583.5937   -8458.4183    2385.0885     20635.21    37.158422 
    6110    1103.0242   -8582.1126   -8459.0686    2987.3726    20634.542    37.273706 
    6120    1113.8639   -8584.0337   -8459.7805    2448.0333    20636.705    37.404485 
    6130    1133.2083   -8586.9898   -8460.5787     1120.689    20641.149    37.542345 
    6140    1082.5296   -8582.1663   -8461.4085    311.87274     20646.68    37.677162 
    6150    1073.8545   -8581.9698   -8462.1797   -345.93332    20652.446    37.800396 
    6160    1087.3695   -8584.1689   -8462.8712   -656.30089    20657.824    37.907852 
    6170    1069.2932   -8582.7708   -8463.4895   -396.23705    20662.536    38.001441 
    6180    1061.9349   -8582.4593   -8463.9988   -221.63921    20666.806    38.090389 
    6190    1094.4541   -8586.5069   -8464.4189   -1097.1139    20670.711    38.173999 
    6200    1115.3156   -8589.2183   -8464.8031   -2375.4619    20673.462    38.244353 
    6210     1111.523    -8589.187    -8465.195   -3024.8157    20673.895    38.299743 
    6220    1103.0115   -8588.6135   -8465.5709   -2321.0549    20671.514    38.345794 
    6230    1117.4355   -8590.5968   -8465.9451   -1868.2164    20666.864    38.390169 
    6240     1087.566   -8587.6155   -8466.2959   -851.87179    20660.536    38.437249 
    6250    1092.5801   -8588.4948   -8466.6159   -700.27725    20653.373    38.491581 
    6260    1082.4055    -8587.641   -8466.8971   -127.77249    20645.683    38.561132 
    6270    1065.3916   -8585.9665   -8467.1205    1135.9923    20638.053      38.6483 
    6280     1103.366   -8590.3804   -8467.2982    1618.1317    20631.563    38.746315 
    6290    1122.4834   -8592.6987    -8467.484      2033.12    20626.734    38.847617 
    6300     1116.041   -8592.2126   -8467.7166    3076.6322    20624.035    38.955016 
    6310    1118.2007   -8592.7567   -8468.0197    2988.9646    20624.244    39.087861 
    6320    1073.6392   -8588.1192   -8468.3531     2904.436    20627.392      39.2611 
    6330    1073.9019   -8588.4456   -8468.6502    1601.2385    20633.231    39.477415 
    6340    1103.1494   -8591.9483   -8468.8903   -589.05598    20640.503    39.720304 
    6350    1094.1508    -8591.146   -8469.0919    -2025.362    20647.194    39.965009 
    6360    1125.0797   -8594.8007   -8469.2964   -3388.8445    20651.798    40.184148 
    6370    1154.7014   -8598.4059   -8469.5973   -3301.9339    20653.135    40.365563 
    6380    1075.5538    -8589.975   -8469.9954   -734.58978    20651.459     40.52035 
    6390    1050.7759   -8587.5847   -8470.3691     468.3456    20648.975    40.669147 
    6400    1122.8955   -8595.9709   -8470.7103   -869.44492    20646.767      40.8205 
    6410    1137.8596    -8598.048   -8471.1181   -1596.6538    20643.821    40.969832 
    6420    1129.7693   -8597.6515   -8471.6241   -1507.2672    20639.449    41.111551 
    6430    1127.9528   -8598.0415   -8472.2167   -1753.2588    20633.617    41.246218 
    6440    1064.6662   -8591.5796   -8472.8145   -788.74677    20626.292    41.377299 
    6450    1065.3615   -8592.1891   -8473.3465   -103.94057    20618.289    41.505386 
    6460     1090.388   -8595.4527   -8473.8183    301.05264    20610.295    41.628077 
    6470    1081.6696   -8594.9167   -8474.2548    938.25534    20602.765     41.73892 
    6480    1089.7282   -8596.2336   -8474.6727    597.23951    20596.178    41.839373 
    6490     1089.188   -8596.5838   -8475.0833    337.06721    20590.287    41.935886 
    6500    1071.6676   -8595.0152    -8475.469    882.63786    20584.886    42.036955 
    6510    1051.3642   -8593.0556   -8475.7744    2162.9254    20580.508    42.145687 
    6520    1054.8974   -8593.6525   -8475.9771    2859.0663     20578.25     42.25255 
    6530    1082.9513   -8596.9239   -8476.1191    2198.8167    20578.677    42.346436 
    6540    1109.1846   -8599.9861   -8476.2549     811.3142    20581.174    42.419362 
    6550     1124.375   -8601.8664   -8476.4407     68.70896    20584.494    42.469937 
    6560     1104.078   -8599.8522   -8476.6907    872.72153    20587.981    42.509675 
    6570     1082.448   -8597.7105   -8476.9618    2384.2688    20592.364    42.555272 
    6580    1090.2805   -8598.8526   -8477.2301    2784.1938    20598.919    42.613104 
    6590    1095.3822   -8599.6855    -8477.494    1997.0266    20608.017     42.67862 
    6600    1104.2341   -8600.9387   -8477.7597    354.89363    20618.874    42.742312 
    6610    1102.4808   -8601.0191   -8478.0357   -1395.1226    20629.904    42.799079 
    6620    1080.8232   -8598.8661   -8478.2987   -1887.9008    20639.561    42.845028 
    6630    1108.1951   -8602.1836   -8478.5627   -1965.9259    20647.299    42.876425 
    6640    1097.9173   -8601.3214   -8478.8471   -1593.8588    20653.074    42.903301 
    6650    1055.7806   -8596.8886   -8479.1147   -595.80376    20657.301    42.938647 
    6660    1059.8455   -8597.5432   -8479.3159    -313.8922    20660.821    42.986194 
    6670    1063.9701   -8598.1197   -8479.4323    197.34852    20664.037    43.043512 
    6680     1072.989   -8599.1811   -8479.4875    634.82465    20667.419    43.107461 
    6690     1091.953   -8601.3265   -8479.5175    409.07087    20671.322    43.175758 
    6700    1084.9975   -8600.5728   -8479.5397    706.03579    20675.652    43.243796 
    6710    1108.5375   -8603.2271    -8479.568    181.73128    20680.547    43.307855 
    6720    1149.4635   -8607.8725   -8479.6481   -1041.8268    20685.515    43.369678 
    6730    1129.2636   -8605.7903   -8479.8192   -1131.5666    20689.535    43.422545 
    6740    1107.2526   -8603.5639   -8480.0482   -709.87524    20692.455    43.456428 
    6750    1112.9669   -8604.4314   -8480.2783   -924.39054    20694.595    43.488274 
    6760    1123.9937   -8605.9183   -8480.5351   -941.51359    20695.819     43.54212 
    6770    1085.9878   -8601.9264   -8480.7829   -78.575623    20696.196    43.626667 
    6780    1125.4311   -8606.5562   -8481.0126   -158.92642    20696.384     43.73615 
    6790    1156.8297   -8610.3352   -8481.2891   -312.62504    20696.409    43.857813 
    6800    1115.4227   -8606.0628   -8481.6358    41.339617    20696.184     43.98535 
    6810    1101.7164   -8604.9068   -8482.0087   -70.751989    20695.941    44.113654 
    6820    1082.4182   -8603.0874    -8482.342    59.264427    20695.675    44.240381 
    6830    1110.5881   -8606.5378     -8482.65   -414.87556    20695.418    44.374654 
    6840    1117.1695   -8607.6022   -8482.9803    -851.4371     20694.76    44.523036 
    6850    1062.2888   -8601.8062   -8483.3063   -458.97373     20693.36    44.678347 
    6860    1065.3268   -8602.4277   -8483.5889   -841.66228    20691.436    44.822821 
    6870    1081.1917   -8604.4268   -8483.8183   -1093.4245    20688.727    44.945636 
    6880    1113.1094   -8608.2218   -8484.0528   -1364.4489    20684.943    45.056441 
    6890    1126.2057   -8609.9816   -8484.3516   -786.40444    20679.941    45.174426 
    6900     1105.749     -8608.06    -8484.712    -12.80141    20674.224    45.312604 
    6910    1118.7288   -8609.9313   -8485.1354    328.53641      20668.5    45.470754 
    6920    1107.6811   -8609.1583   -8485.5948    862.50857    20663.197     45.63908 
    6930     1101.902   -8608.9928   -8486.0739    665.58615    20658.723     45.80785 
    6940    1111.8152   -8610.5953   -8486.5706   -222.75141    20654.875    45.966388 
    6950    1102.7438   -8610.1057   -8487.0929   -661.13786    20650.887    46.110098 
    6960    1082.3944   -8608.3695   -8487.6268    -813.3401    20646.316    46.248351 
    6970    1087.0143   -8609.4191    -8488.161   -1321.2727    20640.965    46.387657 
    6980    1098.9012   -8611.2912   -8488.7072   -1268.0689    20634.419    46.512934 
    6990    1087.6017   -8610.5799   -8489.2562   -525.72847    20626.759    46.611442 
    7000    1111.2323     -8613.78   -8489.8204   -456.44733    20618.585    46.697383 
    7010    1124.3352   -8615.8601   -8490.4388    -305.6527    20610.049    46.793979 
    7020    1094.1555   -8613.1481   -8491.0934    472.25324    20601.334    46.907573 
    7030    1081.0871   -8612.3165   -8491.7196    1207.9658    20593.155    47.031924 
    7040    1115.2535   -8616.7357   -8492.3275    1689.8983    20586.218    47.154395 
    7050    1122.0142   -8618.1225   -8492.9601    2206.7429    20580.994    47.268826 
    7060    1092.6162   -8615.4964   -8493.6135    2822.6519    20577.999    47.382781 
    7070     1083.633   -8615.1211   -8494.2402    2175.5716    20577.657     47.51476 
    7080    1081.7151    -8615.502    -8494.835    850.37502    20579.386    47.672799 
    7090    1030.1953   -8610.2569    -8495.337   -1.7556325    20581.994    47.857028 
    7100    1043.1395   -8612.0737   -8495.7099   -975.00112    20584.581    48.068476 
    7110    1075.4663   -8615.9199     -8495.95   -1523.7122     20586.25    48.297665 
    7120    1071.4284   -8615.6143   -8496.0949   -768.62182    20586.559    48.526965 
    7130    1079.0485   -8616.5491   -8496.1796   -382.58867    20586.066    48.747259 
    7140    1073.0687   -8615.9116   -8496.2092   -185.82942    20585.207    48.963424 
    7150    1083.7353    -8617.103   -8496.2107   -973.72332    20584.072    49.168765 
    7160    1094.0247   -8618.2502   -8496.2101   -1679.5854    20582.017    49.346478 
    7170    1075.5515   -8616.1893   -8496.2099    -1460.557    20578.439    49.503392 
    7180    1069.7708     -8615.51   -8496.1755   -1168.2427    20573.494    49.652621 
    7190    1094.3895   -8618.1949   -8496.1141   -1612.8844    20567.392    49.795696 
    7200     1093.554   -8618.0634   -8496.0758   -1107.8154    20559.873    49.939204 
    7210     1066.337   -8614.9981   -8496.0466    532.74044    20551.473     50.09297 
    7220     1099.926     -8618.71   -8496.0116    980.42836    20543.564    50.257799 
    7230    1101.3672   -8618.8409   -8495.9817    933.65361     20536.68     50.42484 
    7240    1079.5456   -8616.3835   -8495.9585    1041.2331     20530.81    50.575165 
    7250    1108.7829   -8619.6277   -8495.9413    393.01395    20525.934    50.699259 
    7260     1115.495   -8620.4011   -8495.9659     474.9594    20521.593    50.801641 
    7270    1090.1912   -8617.6539   -8496.0414    1156.8124     20517.81    50.893074 
    7280    1080.3276   -8616.6377   -8496.1255    1302.0262    20515.152    50.980335 
    7290     1105.057   -8619.4784   -8496.2076    117.96833    20513.689    51.068237 
    7300    1124.2201   -8621.7423   -8496.3338   -1696.5854    20512.317    51.161147 
    7310      1120.55   -8621.5354   -8496.5363   -3306.0335    20509.351      51.2619 
    7320    1125.1039   -8622.3438   -8496.8367   -4225.8047    20503.273     51.36187 
    7330    1099.7585   -8619.8986   -8497.2189   -3361.3977    20493.334    51.444118 
    7340    1089.4188   -8619.1607   -8497.6344   -1656.7887    20480.354     51.50826 
    7350     1108.848   -8621.7733   -8498.0796   -1147.1752    20465.808    51.565565 
    7360    1084.5976   -8619.5438   -8498.5553   -801.37375    20450.336    51.620597 
    7370    1080.5176   -8619.5724    -8499.039   -347.98721    20434.301    51.677816 
    7380     1096.955   -8621.8746   -8499.5076    22.484748    20418.115    51.744507 
    7390    1103.6948   -8623.1181   -8499.9992    725.04724    20402.184    51.819213 
    7400    1085.3586   -8621.5956   -8500.5222    1843.4203    20387.177     51.89419 
    7410     1067.163   -8620.0959   -8501.0523    3019.9671    20374.111    51.957946 
    7420    1080.4352   -8622.1043   -8501.5801     3619.042    20364.037    52.009428 
    7430    1123.5599   -8627.5245   -8502.1897    3803.0362    20357.507    52.056568 
    7440    1095.9388   -8625.1903   -8502.9367    4619.9356    20354.733    52.105178 
    7450    1071.8788   -8623.3596   -8503.7899    4972.1839    20356.348    52.161123 
    7460     1104.787    -8627.994   -8504.7534    3806.1026    20362.539    52.228906 
    7470    1115.8021   -8630.3625   -8505.8931     2913.433    20372.349    52.309069 
    7480    1094.7301   -8629.3152   -8507.1964    2485.8841    20384.903     52.40116 
    7490    1077.5042   -8628.7699   -8508.5727    1670.6969    20399.666     52.49627 
    7500    1070.9235   -8629.3687   -8509.9056    846.59711    20415.913    52.581812 
    7510    1062.6449   -8629.6156   -8511.0759    135.92639    20432.819    52.659745 
    7520    1076.9632   -8632.1686   -8512.0317    142.28677    20449.763    52.743321 
    7530    1091.4035   -8634.5364   -8512.7887    162.18435    20466.682    52.846232 
    7540    1044.9718   -8629.8964   -8513.3282    459.21209    20483.624    52.970863 
    7550    1027.1706   -8628.2072   -8513.6248   -251.53491    20500.754    53.107635 
    7560    1068.8855   -8632.9771   -8513.7413   -1874.8941    20517.365     53.24219 
    7570    1059.6951   -8631.9615   -8513.7509    -2112.969     20532.11    53.362357 
    7580    1053.8752   -8631.2688   -8513.7074   -2584.4887    20544.601    53.469696 
    7590    1062.9457   -8632.1749   -8513.6017   -4361.2031    20554.302    53.569091 
    7600     1049.164   -8630.4839   -8513.4481     -5389.24    20559.731    53.657395 
    7610    1032.7135   -8628.4286   -8513.2278   -5302.1162    20559.982    53.731888 
    7620    1076.9086   -8633.0773   -8512.9466   -5186.6389    20555.105    53.799996 
    7630    1089.1965   -8634.1519   -8512.6503   -4690.4119    20545.311    53.869869 
    7640     1055.639   -8630.1188   -8512.3607   -3939.8598    20531.149     53.92961 
    7650    1029.5064   -8626.8654   -8512.0224   -3963.1603    20513.314     53.95585 
    7660    1024.5293   -8625.8786   -8511.5908   -4539.6336    20491.882    53.935148 
    7670    1032.9981   -8626.2925     -8511.06   -4844.7615    20466.438    53.867889 
    7680    1029.2472   -8625.2417   -8510.4276   -4298.0765    20436.814    53.771723 
    7690    1057.7067   -8627.6898    -8509.701   -3213.6361    20403.588    53.674488 
    7700    1093.2025   -8630.8419   -8508.8935   -1609.4555    20367.905    53.589368 
    7710    1127.8103   -8633.9014   -8508.0925     6.383159    20331.307    53.509041 
    7720    1123.4406   -8632.6839   -8507.3625     1653.428    20295.387    53.433634 
    7730     1130.973   -8632.9053   -8506.7435    2936.3752    20261.675    53.368317 
    7740     1148.795   -8634.3868    -8506.237    4173.5883    20231.397    53.320914 
    7750    1128.7802   -8631.7927   -8505.8756    5140.2943    20205.602    53.307887 
    7760    1105.0776   -8628.9045   -8505.6314    5776.7443    20185.097    53.345004 
    7770    1136.0517    -8632.209   -8505.4807    5838.0452    20170.335    53.429147 
    7780    1149.6954   -8633.6823    -8505.432    5441.2055    20161.262    53.542696 
    7790    1161.6794   -8635.1183   -8505.5312    4451.0527    20157.375    53.672522 
    7800    1172.0581   -8636.5409   -8505.7961    2966.9221    20157.673    53.806338 
    7810    1184.7127   -8638.4533   -8506.2968    1690.7511    20160.735    53.941791 
    7820    1132.8413   -8633.3703   -8507.0002    1309.8747    20165.392    54.077116 
    7830    1113.3052   -8632.0061   -8507.8152     419.1964    20171.144    54.198603 
    7840    1132.4179   -8635.0086   -8508.6857   -1011.8231    20177.155    54.294827 
    7850    1143.8275    -8637.227   -8509.6313   -2395.8432    20182.125    54.383578 
    7860    1112.1601   -8634.6846   -8510.6215   -2974.1564    20184.859    54.474709 
    7870    1089.0793   -8633.0541   -8511.5657   -3573.2081    20184.766    54.556422 
    7880    1102.9365   -8635.4865   -8512.4523   -3623.2537      20181.4    54.619535 
    7890    1070.7011   -8632.6806   -8513.2423   -2695.6098    20174.821    54.668022 
    7900    1074.5009   -8633.7573   -8513.8951   -2230.9338    20165.821    54.707993 
    7910    1122.0475   -8639.6418   -8514.4757   -2166.8811    20154.874    54.741347 
    7920    1120.1898   -8639.9975   -8515.0387   -2037.5288    20142.134    54.765163 
    7930    1115.0184   -8640.0072   -8515.6252   -2275.3699    20127.728    54.779496 
    7940    1105.5162   -8639.5337   -8516.2117   -2231.4698    20111.523     54.78754 
    7950    1115.0527    -8641.172   -8516.7862   -1839.9204    20093.625    54.794315 
    7960    1128.7602    -8643.289   -8517.3741   -1324.5423    20074.394    54.797944 
    7970     1129.878   -8644.0159   -8517.9763   -741.26655    20054.322    54.796493 
    7980    1146.3729   -8646.5094   -8518.6298   -468.87208    20033.923    54.794949 
    7990    1134.8264   -8645.9352   -8519.3436    972.28297    20013.618    54.801216 
    8000    1119.6137   -8644.9638   -8520.0692    2315.9743    19994.588    54.822987 
    8010    1131.3939   -8647.0217    -8520.813    2920.3549     19977.99    54.859892 
    8020    1108.3226   -8645.1902   -8521.5551    3899.2875    19964.446    54.905916 
    8030    1091.7869   -8644.0376   -8522.2471    4443.1039     19954.69    54.962151 
    8040    1117.1342   -8647.5174   -8522.8994     3748.464    19949.078    55.033169 
    8050    1110.2609    -8647.389   -8523.5377    3151.7973        19947    55.114299 
    8060    1103.6135   -8647.2703   -8524.1605    2965.8276     19947.85    55.198062 
    8070    1104.2088   -8647.9505   -8524.7743    2867.4055    19951.398    55.282558 
    8080    1077.7889   -8645.5699   -8525.3409    3106.6208    19957.542    55.373363 
    8090    1115.9023   -8650.3546    -8525.874    2676.9746    19966.365    55.477141 
    8100    1143.0747   -8653.9531   -8526.4414    1579.7688    19977.418    55.601072 
    8110    1094.3452   -8649.1263   -8527.0505    1673.0775    19989.849    55.746613 
    8120    1062.2007   -8646.1004   -8527.6103    1325.6931    20003.589    55.909556 
    8130    1094.4375    -8650.184   -8528.0979   -330.38315    20018.232     56.07381 
    8140    1089.9225   -8650.1278   -8528.5453   -796.64383    20032.484    56.221341 
    8150    1089.2692   -8650.4798   -8528.9701    -1224.447      20045.8    56.349928 
    8160    1119.7986   -8654.3165   -8529.4013   -1735.8102    20057.784    56.461889 
    8170    1087.7811   -8651.1867   -8529.8431   -1007.5411    20068.115    56.562355 
    8180    1080.3264   -8650.7784   -8530.2664   -993.19409    20077.301    56.658893 
    8190    1094.2975   -8652.7382   -8530.6677   -1853.4382    20085.381    56.760015 
    8200    1070.3137    -8650.447   -8531.0519    -2599.873    20091.652    56.869453 
    8210    1048.4108   -8648.3342   -8531.3824   -3496.5052    20095.416    56.973054 
    8220    1073.3555   -8651.3724    -8531.638   -4620.0006    20095.875    57.050102 
    8230    1108.0435   -8655.4812   -8531.8772   -4845.5151    20092.129    57.083688 
    8240    1108.0541   -8655.7592   -8532.1541    -3316.664    20084.105    57.069659 
    8250    1116.1694   -8656.9792   -8532.4688   -1516.3503    20073.123    57.026992 
    8260    1130.6878   -8658.9827   -8532.8527     -179.395     20060.84    56.977181 
    8270    1093.7498   -8655.3164    -8533.307    1201.4441     20048.57    56.928508 
    8280     1060.418    -8652.046   -8533.7548    1927.5074     20037.54    56.881681 
    8290    1083.4634   -8655.0394   -8534.1774     1063.245    20028.296    56.840885 
    8300    1085.4623   -8655.6855   -8534.6005    468.99806    20020.194     56.80097 
    8310    1074.7326   -8654.9156   -8535.0275   -100.98892    20012.631    56.765572 
    8320    1066.3808   -8654.3801   -8535.4237   -801.14717    20005.049    56.745562 
    8330    1077.8537   -8656.0095   -8535.7733   -1112.1581    19996.854     56.73615 
    8340    1112.1074   -8660.1873     -8536.13   -1437.3905    19987.708    56.716125 
    8350    1098.4184   -8659.0701   -8536.5399   -1215.3963    19977.401    56.674464 
    8360     1053.362   -8654.4684   -8536.9643   -596.56597    19966.141    56.623491 
    8370    1048.2351   -8654.2627   -8537.3305    -463.6939    19954.418    56.580451 
    8380     1095.133   -8659.8353   -8537.6716   -1069.6493    19942.324      56.5536 
    8390    1107.0128   -8661.5463   -8538.0573   -187.32033    19929.499    56.538119 
    8400    1088.8243   -8659.9488   -8538.4888    1578.1263    19916.706    56.520328 
    8410    1109.0115   -8662.6837   -8538.9718    2666.1747    19905.426    56.505424 
    8420    1126.8609    -8665.262   -8539.5589    3424.2565    19896.666    56.509081 
    8430    1141.0445    -8667.619   -8540.3338    3522.6061    19891.059    56.533639 
    8440    1145.3006   -8669.1376   -8541.3776    3076.4703    19888.645    56.581095 
    8450    1103.6421   -8665.7493   -8542.6364    3724.2636    19889.175      56.6529 
    8460    1098.8372   -8666.5922   -8544.0153    3557.6388     19893.02    56.746403 
    8470    1083.6908   -8666.2863    -8545.399    2445.0605    19900.007    56.855381 
[...]
   22890    1153.6448   -8772.9729   -8644.2821    2679.8895    19412.318    110.14847 
   22900    1149.5945   -8772.8254   -8644.5864    2947.1925    19415.359    110.01017 
   22910    1127.1258   -8770.7904   -8645.0578     2295.187    19420.999    109.94634 
   22920    1134.6733   -8772.2796   -8645.7051    798.86604     19428.75    109.94422 
   22930    1119.5585   -8771.4184     -8646.53   -77.647202    19437.468    109.99283 
   22940     1110.771   -8771.4325   -8647.5244   -766.73764    19446.344      110.074 
   22950    1093.9138   -8770.6917    -8648.664   -835.31081    19454.827    110.15858 
   22960    1048.5957   -8766.7978   -8649.8254   -355.87487    19462.849     110.2445 
   22970    1034.8091   -8766.3323   -8650.8977   -334.43749    19470.713    110.34317 
   22980    1033.7802   -8767.1192   -8651.7994   -587.25151    19478.476    110.44383 
   22990    1065.7622   -8771.4292   -8652.5418   -1564.4929    19485.855    110.51306 
   23000    1063.8428   -8771.8158   -8653.1426   -2117.7862    19492.066    110.53911 
   23010    1047.7322   -8770.4793   -8653.6032   -1950.0615    19496.606    110.54099 
   23020     1068.871   -8773.1794   -8653.9453    -2085.698    19499.485     110.5367 
   23030    1087.2731   -8775.4936   -8654.2067   -2063.9815    19500.612    110.52861 
   23040    1087.2233   -8775.7237   -8654.4423    -2170.708    19499.925    110.52879 
   23050    1054.6975   -8772.2845   -8654.6314   -1532.8127    19497.383     110.5601 
   23060    1055.8161   -8772.5207   -8654.7428   -1041.8336      19493.4     110.6267 
   23070    1079.2685   -8775.1797   -8654.7857   -1096.8471    19488.359    110.71803 
   23080    1106.7288   -8778.2757   -8654.8185   -911.97076    19482.244    110.82067 
   23090    1107.7772   -8778.4485   -8654.8743    -345.6492    19475.212    110.93018 
   23100    1069.4491   -8774.2373   -8654.9386    234.06953    19467.718    111.05065 
   23110    1058.3998   -8773.0111   -8654.9451   -531.77972    19460.152     111.1807 
   23120    1108.4245   -8778.5577   -8654.9113   -2274.8235    19451.884    111.31113 
   23130    1106.3033   -8778.3311   -8654.9213   -3017.8936    19441.509    111.44159 
   23140    1087.0515   -8776.2438   -8654.9816   -2229.6365      19428.4    111.55624 
   23150     1092.702   -8776.9631   -8655.0705   -743.45383    19413.124     111.6309 
   23160     1049.799    -8772.221   -8655.1144    1092.8808    19396.951    111.68626 
   23170    1064.8786   -8773.8731   -8655.0843    1646.7898    19381.345    111.74844 
   23180    1095.4172   -8777.1836   -8654.9882    1650.5274    19366.896    111.82993 
   23190      1104.79   -8778.1481   -8654.9072     1656.461    19353.638    111.93556 
   23200    1053.3409   -8772.3395   -8654.8378     2643.931    19341.695    112.06305 
   23210    1043.4058    -8771.106   -8654.7126    3128.6967    19331.812    112.21939 
   23220     1072.725   -8774.1683   -8654.5043    2756.4957    19324.445    112.40388 
   23230    1079.1626   -8774.6263    -8654.244    1768.4773    19319.317    112.59183 
   23240    1084.7152   -8774.9509   -8653.9493    965.79629    19315.683    112.76296 
   23250    1081.5959   -8774.2753   -8653.6217    953.53037    19312.902    112.92023 
   23260    1080.5397   -8773.8013   -8653.2655     1564.189    19310.957      113.069 
   23270    1086.1937    -8774.048   -8652.8814    1698.5027    19310.315    113.20286 
   23280    1092.7859   -8774.4037   -8652.5018    1031.6719    19311.065    113.30103 
   23290     1055.788   -8769.8986   -8652.1238    862.30856    19312.744    113.35475 
   23300     1064.454   -8770.4468   -8651.7054    574.93658    19315.168    113.37207 
   23310    1106.0793   -8774.5849   -8651.2001   -287.43176    19318.069    113.34795 
   23320    1100.8491    -8773.458   -8650.6567   -181.76501    19320.842    113.26182 
   23330    1071.6269   -8769.6207   -8650.0791   -49.148596    19323.499    113.11761 
   23340    1090.4813   -8771.0776   -8649.4328   -820.26053    19326.087    112.94096 
   23350    1096.4508   -8771.0196   -8648.7088    -1142.569    19328.057    112.73786 
   23360     1054.384   -8765.5434   -8647.9253     -143.293    19329.208    112.50181 
   23370    1093.1762   -8768.9888   -8647.0433   -528.05085    19330.111    112.23993 
   23380    1134.1995   -8772.5784   -8646.0567   -650.80476    19330.604    111.96988 
   23390    1129.6995    -8771.137   -8645.1173    407.28032    19330.619    111.68904 
   23400    1126.8361   -8769.9733   -8644.2731    1797.3639    19331.008    111.41665 
   23410    1110.3776   -8767.3835   -8643.5192    3262.6016    19332.982    111.19991 
   23420    1122.0246   -8768.0286   -8642.8651    3950.0217    19337.747    111.07193 
   23430    1157.6511   -8771.4612   -8642.3234    3779.1148    19345.918    111.02748 
   23440     1131.771   -8768.1959   -8641.9452    3993.5739    19357.512     111.0281 
   23450    1118.6408    -8766.489   -8641.7029    3297.0435    19372.645    111.05186 
   23460    1181.7387   -8773.3931   -8641.5684    325.82421    19390.601     111.1047 
   23470    1176.8969   -8772.8787    -8641.594   -2764.2573    19409.018    111.18425 
   23480    1139.7352   -8768.9329   -8641.7937   -4764.7922    19425.278    111.25305 
   23490    1130.1315   -8768.1679      -8642.1   -5550.1816    19437.592    111.27889 
   23500    1127.8005   -8768.3032   -8642.4953   -5122.6382    19445.234    111.26951 
   23510    1099.5169   -8765.5936   -8642.9408   -4266.6764    19448.458    111.24354 
   23520    1096.5877   -8765.7076   -8643.3816   -3746.6668    19447.957    111.20822 
   23530    1117.5772   -8768.4806   -8643.8131   -3857.4366    19444.131    111.15624 
   23540     1135.944   -8770.9936   -8644.2774   -3704.4504    19436.923    111.07958 
   23550    1133.5737   -8771.2297   -8644.7778   -3285.2917    19426.446    110.98788 
   23560    1121.2723   -8770.3691   -8645.2895   -3086.9731    19412.999    110.87774 
   23570     1101.912   -8768.6892   -8645.7692   -2960.9245    19396.743    110.73039 
   23580    1107.4395   -8769.7262   -8646.1897   -2779.9737    19377.793    110.51367 
   23590    1122.0044   -8771.7416   -8646.5803   -2608.4993    19356.286    110.21036 
   23600     1108.757   -8770.6328   -8646.9493   -1877.9489    19332.412    109.83695 
   23610    1110.7284   -8771.1816   -8647.2782   -504.92968    19306.812    109.44032 
   23620    1113.1755   -8771.7389   -8647.5625    1009.0591    19280.627    109.06491 
   23630    1118.0861   -8772.5523   -8647.8281    2292.8617    19255.159    108.73631 
   23640    1137.6183   -8775.0194   -8648.1164    3029.4707    19231.509    108.44069 
   23650     1158.226   -8777.6956   -8648.4937     3331.254     19210.31    108.15558 
   23660    1142.4045   -8776.4279   -8648.9909    3647.4148    19191.866    107.89259 
   23670    1104.0118   -8772.7138   -8649.5596    4216.9226    19176.457    107.67247 
   23680    1078.6432   -8770.4393    -8650.115    5312.4497    19164.618    107.47191 
   23690    1078.1855   -8770.8963   -8650.6231    5345.5492    19157.153    107.27558 
   23700     1090.489   -8772.7417   -8651.0961    4234.5223    19154.093    107.09149 
   23710    1108.8933    -8775.265   -8651.5663     3144.437     19154.63    106.92315 
   23720    1122.6327   -8777.3151   -8652.0838    1980.6784    19157.858    106.76988 
   23730    1103.4775   -8775.7411   -8652.6465    498.04074    19162.788    106.63622 
   23740    1095.7181   -8775.4585   -8653.2294   -1199.5877    19168.172    106.51493 
   23750     1097.484   -8776.2311   -8653.8051   -2492.7485    19172.616    106.38612 
   23760     1096.063   -8776.6645    -8654.397   -2777.4125    19175.054    106.25291 
   23770    1038.4336   -8770.7827   -8654.9438   -2298.2574      19175.2    106.13755 
   23780    1009.1227   -8767.9219   -8655.3528   -1839.2694    19173.404     106.0286 
   23790    1047.4166   -8772.4472   -8655.6063   -2613.2113    19169.914    105.89009 
   23800    1057.0043   -8773.6598   -8655.7494   -2524.9284    19164.264    105.69955 
   23810    1041.2774   -8771.9586   -8655.8025   -2106.5137    19156.473    105.45483 
   23820    1063.2954   -8774.3869   -8655.7747   -2720.6511    19146.775    105.19196 
   23830    1084.4395   -8776.6727   -8655.7019   -3142.4877    19134.752    104.94695 
   23840     1086.469   -8776.8228   -8655.6255   -3138.8445    19120.031    104.74295 
   23850    1108.5112   -8779.2255   -8655.5694   -2686.3522    19102.599     104.5808 
   23860    1128.6337   -8781.4597   -8655.5589   -1021.9536    19082.906    104.42679 
   23870    1108.3532   -8779.2398   -8655.6014     1464.175    19062.315     104.2564 
   23880    1086.4725   -8776.8682   -8655.6706    3405.3115    19042.815    104.07133 
   23890    1085.4414   -8776.8164   -8655.7338    5004.0084    19026.062    103.90065 
   23900      1105.79   -8779.1598   -8655.8073    5182.9447    19013.292     103.7681 
   23910    1123.9076   -8781.3383   -8655.9647    5399.1647    19004.798    103.66319 
   23920    1096.3511   -8778.5301   -8656.2304    6618.7551    19000.854    103.58616 
   23930     1070.312   -8775.9627   -8656.5677    7270.2843    19002.391    103.55374 
   23940    1081.1909   -8777.5502   -8656.9418    6342.4676    19009.938    103.55555 
   23950    1090.9836   -8779.0628   -8657.3619    4220.8986    19022.793    103.57476 
   23960    1052.5154   -8775.2089   -8657.7992    2128.3152    19039.299    103.58885 
   23970    1053.4615   -8775.6983    -8658.183    420.16332    19057.749    103.58375 
   23980     1086.765   -8779.7668   -8658.5366   -884.17181    19076.672    103.55901 
   23990    1045.8741   -8775.5538    -8658.885   -244.93445     19095.13    103.53427 
   24000    1056.1003   -8777.0203   -8659.2108   -574.74001    19113.409    103.53448 
   24010    1080.2803   -8780.0151   -8659.5082   -1797.7088    19131.255    103.56772 
   24020    1054.2545   -8777.3936     -8659.79   -2541.4797    19147.716    103.61971 
   24030    1055.5737   -8777.8028   -8660.0519   -3639.6206    19162.055    103.69146 
   24040    1070.8466   -8779.7472   -8660.2927   -4833.6024    19173.373    103.78586 
   24050    1071.3999   -8780.0567   -8660.5405   -5524.8817    19180.663    103.87638 
   24060    1081.4166   -8781.4553   -8660.8217   -5616.5115    19183.327    103.91578 
   24070    1091.8318   -8782.9508   -8661.1553   -6048.3341    19181.183     103.8813 
   24080    1067.2978   -8780.6077    -8661.549   -5504.4818     19173.97    103.79458 
   24090    1023.7099   -8776.1264     -8661.93   -3191.5382    19162.182    103.70174 
   24100    1025.6819   -8776.6271   -8662.2107   -524.59017    19147.676    103.64016 
   24110    1043.5357   -8778.7795   -8662.3715    575.32308    19132.538    103.61371 
   24120    1052.0971   -8779.8003   -8662.4373    1222.0216    19117.812    103.59911 
   24130    1072.1011   -8782.0372   -8662.4427    1720.8537    19104.066    103.57414 
   24140    1073.1283   -8782.1215   -8662.4124    2320.0949    19091.733    103.55893 
   24150    1068.0797    -8781.518   -8662.3721    3270.4819    19081.322    103.59846 
   24160    1042.3916   -8778.5586   -8662.2782    4330.0518    19073.628    103.72456 
   24170    1052.9512   -8779.5583      -8662.1    4699.9894    19069.505    103.93932 
   24180    1064.8537   -8780.6065   -8661.8205    4136.9531    19069.256    104.22098 
   24190    1052.2058   -8778.7937   -8661.4186     4089.705    19072.571    104.54543 
   24200    1073.8578   -8780.7091   -8660.9187    3719.9522    19079.305    104.90316 
   24210    1060.5955    -8778.639    -8660.328    3378.1709    19089.238    105.30352 
   24220    1063.0514    -8778.259    -8659.674    2123.4211    19101.994    105.75723 
   24230    1041.1666   -8775.0483   -8658.9046     1746.666    19116.685    106.24375 
   24240    1049.3435   -8775.0771   -8658.0213    774.79427    19132.846    106.73814 
   24250     1094.825   -8779.1455   -8657.0161   -705.30586    19149.656    107.22696 
   24260     1063.592   -8774.6339   -8655.9886   -589.23931    19166.023    107.69229 
   24270    1034.6309   -8770.4229   -8655.0082   -418.79671    19181.907    108.14899 
   24280    1067.2256     -8773.08   -8654.0293   -1702.7317    19197.319    108.61443 
   24290    1114.0262   -8777.3536   -8653.0823   -2757.0866    19211.294    109.07056 
   24300    1114.9747   -8776.6534   -8652.2763   -2533.2131    19223.015    109.48364 
   24310    1106.1172   -8775.0581   -8651.6691   -1668.8576    19232.622    109.83734 
   24320    1072.9745   -8770.8879    -8651.196   -578.45527    19240.844    110.13738 
   24330    1087.3955   -8772.0795   -8650.7789    -1057.337    19248.462    110.39792 
   24340    1157.6737   -8779.5528   -8650.4125   -2948.4986    19255.051    110.64469 
   24350    1134.3524   -8776.7224   -8650.1836    -2754.826    19259.301    110.89433 
   24360    1090.2789    -8771.702   -8650.0798   -1514.5212    19261.264    111.15257 
   24370    1080.6457   -8770.5511   -8650.0035   -210.45715    19261.931    111.42059 
   24380    1041.8561   -8766.0913   -8649.8707    921.77697    19262.427    111.70405 
   24390    1094.9082   -8771.8237    -8649.685    589.46774    19263.615    111.97988 
   24400    1118.6691   -8774.2983   -8649.5091    972.36528    19265.366    112.21446 
   24410    1079.2767    -8769.784   -8649.3891     2594.943     19268.07    112.41127 
   24420    1103.7454   -8772.4278   -8649.3034    2268.2329    19272.833    112.58543 
   24430    1092.6738   -8771.1204    -8649.231    1402.9605    19279.504    112.73648 
   24440    1073.1908   -8768.8889   -8649.1728    1327.1864    19287.462    112.85887 
   24450    1117.2316   -8773.7541   -8649.1252    910.90567    19296.533    112.95685 
   24460    1118.0649   -8773.8357   -8649.1139    954.10634    19306.463    113.05387 
   24470    1101.8067   -8772.0892    -8649.181    757.35465    19317.199    113.15157 
   24480    1087.5352    -8770.591   -8649.2748   -143.10617     19328.53     113.2406 
   24490    1094.3978    -8771.461   -8649.3793   -1015.2949    19339.741    113.32373 
   24500    1098.7229   -8772.0583   -8649.4941   -643.18738    19350.199    113.42169 
   24510    1106.0272   -8773.0118   -8649.6328    347.23567     19360.15    113.54637 
   24520    1120.4805   -8774.8235   -8649.8322    1512.8533     19370.41    113.69288 
   24530    1110.7694   -8774.0417   -8650.1337    2408.0557    19381.982     113.8578 
   24540    1091.7315   -8772.3122    -8650.528    2036.8856    19395.579    114.04328 
   24550    1099.0113   -8773.5928   -8650.9964    491.96529    19410.884    114.22415 
   24560    1098.1931   -8774.0404   -8651.5353    -1383.907    19426.617    114.36246 
   24570    1090.8164   -8773.8431   -8652.1609   -2792.0228    19441.203    114.44767 
   24580    1055.5699   -8770.5846   -8652.8341   -3521.9285    19453.434    114.48152 
   24590    1076.6294   -8773.6327   -8653.5331   -5301.6164    19462.511    114.47238 
   24600    1109.5884   -8778.0974   -8654.3211   -6633.2432        19467    114.41391 
   24610    1066.4695    -8774.168   -8655.2017   -5805.5213    19465.872    114.30595 
   24620    1046.9532   -8772.8619   -8656.0727   -5401.7149    19459.636    114.15489 
   24630    1071.2437   -8776.4266   -8656.9278   -5271.9267    19448.651    113.95989 
   24640    1058.4622   -8775.8123   -8657.7393   -3131.7387    19433.199    113.72893 
   24650    1071.1673   -8777.9686   -8658.4783   -875.81141    19414.949    113.47652 
   24660    1068.4018   -8778.3261   -8659.1443    1424.5963    19395.933    113.20762 
   24670    1056.0895   -8777.5246   -8659.7162    2661.5746    19378.048    112.95334 
   24680    1075.6763   -8780.2113    -8660.218    3212.7594    19362.406    112.77961 
   24690    1063.6361   -8779.3066   -8660.6563    4213.1003    19349.569    112.70492 
   24700    1051.8552   -8778.3601   -8661.0241    5260.0635    19340.364    112.71967 
   24710    1049.0144   -8778.3228   -8661.3037    5851.0806    19335.658    112.82628 
   24720    1051.0818    -8778.739   -8661.4892    6197.0885    19335.997    113.00184 
   24730    1072.4644   -8781.2448   -8661.6098    5423.9289    19341.613    113.19893 
   24740    1055.9175   -8779.4716   -8661.6825    4277.3666    19351.937    113.38436 
   24750    1047.9136   -8778.5977   -8661.7013     3090.737    19365.997    113.55273 
   24760    1046.4096   -8778.3756   -8661.6471     2736.408    19382.877    113.71724 
   24770    1033.3854   -8776.7848   -8661.5091    2532.0427    19402.245    113.90971 
   24780     1050.473   -8778.4459   -8661.2641    215.34677    19423.711    114.14414 
   24790    1074.7091   -8780.7889   -8660.9035   -2641.3667    19445.431    114.38156 
   24800    1084.4774   -8781.4565   -8660.4814   -4314.9109    19465.039    114.58164 
   24810    1044.1789    -8776.521   -8660.0413   -4515.0588    19481.058    114.73993 
   24820    1027.5947   -8774.1829   -8659.5531   -5268.7695     19493.12    114.85327 
   24830    1053.7528   -8776.5205   -8658.9728   -6322.1453    19500.588    114.91087 
   24840      1085.44   -8779.4352   -8658.3528   -6044.8923    19502.611    114.90583 
   24850    1071.7463   -8777.3101   -8657.7552   -4036.1001    19499.468    114.83696 
   24860    1055.9464   -8774.9793   -8657.1869   -1831.8006    19492.785    114.71844 
   24870    1067.4186   -8775.6933   -8656.6212   -637.05915    19484.385    114.56228 
   24880    1089.3925   -8777.5965   -8656.0731    -193.3233    19475.355    114.37894 
   24890    1097.3223   -8778.0072   -8655.5992   -156.79065    19466.101    114.18734 
   24900    1093.1615   -8777.1679   -8655.2241    228.44129    19456.719    114.01202 
   24910    1084.2357   -8775.8752   -8654.9271    570.15006    19447.522     113.8718 
   24920    1079.7269   -8775.1304   -8654.6852    168.03461    19438.758     113.7741 
   24930    1111.2756   -8778.4617   -8654.4972   -445.81826    19430.095    113.73404 
   24940    1132.8706   -8780.7716   -8654.3982   -409.08538    19421.073    113.74069 
   24950    1110.4757    -8778.271   -8654.3958   -19.491697    19411.705    113.74577 
   24960    1098.4802   -8776.9984   -8654.4612    74.429351    19402.253    113.71543 
   24970    1055.7248   -8772.2864   -8654.5187    347.66397    19392.871    113.65498 
   24980    1070.8515   -8773.9986   -8654.5435   -107.38857    19383.678    113.57198 
   24990    1100.3725   -8777.2907   -8654.5425    71.121099    19374.421    113.47076 
   25000     1135.685   -8781.2784    -8654.591    610.33821    19365.216    113.37209 
Loop time of 13559.2 on 16 procs for 20000 steps with 864 atoms

Performance: 0.127 ns/day, 188.323 hours/ns, 1.475 timesteps/s
95.7% CPU use with 16 MPI tasks x 1 OpenMP threads

MPI task timing breakdown:
Section |  min time  |  avg time  |  max time  |%varavg| %total
---------------------------------------------------------------
Pair    | 3240.1     | 7145       | 13181      |4297.1 | 52.69
Bond    | 0.0014312  | 0.0021687  | 0.0031824  |   1.2 |  0.00
Neigh   | 0.14719    | 0.33025    | 0.6495     |  32.0 |  0.00
Comm    | 170.52     | 4514.2     | 9499.8     |4602.5 | 33.29
Output  | 1.2956     | 1.3229     | 1.7207     |   8.9 |  0.01
Modify  | 37.045     | 1898.3     | 6998.4     |5030.5 | 14.00
Other   |            | 0.08057    |            |       |  0.00

Nlocal:        54.0000 ave          92 max          29 min
Histogram: 5 3 1 1 0 0 0 2 2 2
Nghost:        515.625 ave         714 max         332 min
Histogram: 2 3 2 1 0 2 1 1 0 4
Neighs:         0.00000 ave           0 max           0 min
Histogram: 16 0 0 0 0 0 0 0 0 0
FullNghs:      2787.50 ave        6079 max         724 min
Histogram: 8 0 2 0 0 0 0 1 2 3

Total # of neighbors = 44600
Ave neighs/atom = 51.620370
Ave special neighs/atom = 0.0000000
Neighbor list builds = 2000
Dangerous builds = 2000
unfix   3
                
Total wall time: 4:37:21
