LiKCl-chgnet/0.90x-LiKCl-chgnet/initial-solid.data (written by ASE) 

4096 	 atoms 
3  atom types
0.0                  99.744  xlo xhi
0.0                  24.936  ylo yhi
0.0                  49.872  zlo zhi


Masses

1 35.45
2 39.0983
3 6.94


Atoms 

     1   0   3   1.0                       0                       0                       0
     2   0   3   1.0  2.4319022891177067e-32                   3.117                   3.117
     3   0   3   1.0                   3.117                       0                   3.117
     4   0   3   1.0                   3.117                   3.117 -4.4238504087137056e-32
     5   0   2   1.0                   3.117                       0 -2.2119252043568528e-32
     6   0   2   1.0                   3.117                   3.117                   3.117
     7   0   2   1.0                       0                       0                   3.117
     8   0   2   1.0  2.4319022891177067e-32                   3.117  8.0140744463076242e-33
     9   0   3   1.0                       0                       0                   6.234
    10   0   3   1.0  2.4319022891177067e-32                   3.117      9.3509999999999991
    11   0   3   1.0                   3.117                       0      9.3509999999999991
    12   0   3   1.0                   3.117                   3.117                   6.234
    13   0   1  -1.0                   3.117                       0                   6.234
    14   0   2   1.0                   3.117                   3.117      9.3509999999999991
    15   0   2   1.0                       0                       0      9.3509999999999991
    16   0   2   1.0  2.4319022891177067e-32                   3.117                   6.234
    17   0   3   1.0                       0                       0                  12.468
    18   0   3   1.0  2.4319022891177067e-32                   3.117      15.585000000000001
    19   0   3   1.0                   3.117                       0      15.585000000000001
    20   0   3   1.0                   3.117                   3.117                  12.468
    21   0   2   1.0                   3.117                       0                  12.468
    22   0   2   1.0                   3.117                   3.117      15.585000000000001
    23   0   2   1.0                       0                       0      15.585000000000001
    24   0   1  -1.0  2.4319022891177067e-32                   3.117                  12.468
    25   0   3   1.0                       0                       0      18.701999999999998
    26   0   3   1.0  2.4319022891177067e-32                   3.117      21.818999999999999
    27   0   3   1.0                   3.117                       0      21.818999999999999
    28   0   3   1.0                   3.117                   3.117      18.701999999999998
    29   0   2   1.0                   3.117                       0      18.701999999999998
    30   0   2   1.0                   3.117                   3.117      21.818999999999999
    31   0   2   1.0                       0                       0      21.818999999999999
    32   0   2   1.0  2.4319022891177067e-32                   3.117      18.701999999999998
    33   0   3   1.0                       0                       0                  24.936
    34   0   3   1.0  2.4319022891177067e-32                   3.117      28.053000000000001
    35   0   3   1.0                   3.117                       0      28.053000000000001
    36   0   3   1.0                   3.117                   3.117                  24.936
    37   0   2   1.0                   3.117                       0                  24.936
    38   0   2   1.0                   3.117                   3.117      28.053000000000001
    39   0   2   1.0                       0                       0      28.053000000000001
    40   0   2   1.0  2.4319022891177067e-32                   3.117                  24.936
    41   0   3   1.0                       0                       0      31.170000000000002
    42   0   3   1.0  2.4319022891177067e-32                   3.117      34.286999999999999
    43   0   3   1.0                   3.117                       0      34.286999999999999
    44   0   3   1.0                   3.117                   3.117      31.170000000000002
    45   0   2   1.0                   3.117                       0      31.170000000000002
    46   0   2   1.0                   3.117                   3.117      34.286999999999999
    47   0   2   1.0                       0                       0      34.286999999999999
    48   0   2   1.0  2.4319022891177067e-32                   3.117      31.170000000000002
    49   0   3   1.0                       0                       0      37.403999999999996
    50   0   3   1.0  2.4319022891177067e-32                   3.117      40.521000000000001
    51   0   3   1.0                   3.117                       0      40.521000000000001
    52   0   3   1.0                   3.117                   3.117      37.403999999999996
    53   0   2   1.0                   3.117                       0      37.403999999999996
    54   0   2   1.0                   3.117                   3.117      40.521000000000001
    55   0   2   1.0                       0                       0      40.521000000000001
    56   0   2   1.0  2.4319022891177067e-32                   3.117      37.403999999999996
    57   0   3   1.0                       0                       0      43.637999999999998
    58   0   3   1.0  2.4319022891177067e-32                   3.117      46.754999999999995
    59   0   3   1.0                   3.117                       0      46.754999999999995
    60   0   3   1.0                   3.117                   3.117      43.637999999999998
    61   0   2   1.0                   3.117                       0      43.637999999999998
    62   0   1  -1.0                   3.117                   3.117      46.754999999999995
    63   0   2   1.0                       0                       0      46.754999999999995
    64   0   2   1.0  2.4319022891177067e-32                   3.117      43.637999999999998
    65   0   3   1.0                       0                   6.234                       0
    66   0   3   1.0  2.4319022891177067e-32      9.3509999999999991                   3.117
    67   0   3   1.0                   3.117                   6.234                   3.117
    68   0   3   1.0                   3.117      9.3509999999999991 -4.4238504087137056e-32
    69   0   2   1.0                   3.117                   6.234 -2.2119252043568528e-32
    70   0   2   1.0                   3.117      9.3509999999999991                   3.117
    71   0   2   1.0                       0                   6.234                   3.117
    72   0   2   1.0  2.4319022891177067e-32      9.3509999999999991  8.0140744463076242e-33
    73   0   3   1.0                       0                   6.234                   6.234
    74   0   3   1.0  2.4319022891177067e-32      9.3509999999999991      9.3509999999999991
    75   0   3   1.0                   3.117                   6.234      9.3509999999999991
    76   0   3   1.0                   3.117      9.3509999999999991                   6.234
    77   0   2   1.0                   3.117                   6.234                   6.234
    78   0   2   1.0                   3.117      9.3509999999999991      9.3509999999999991
    79   0   2   1.0                       0                   6.234      9.3509999999999991
    80   0   2   1.0  2.4319022891177067e-32      9.3509999999999991                   6.234
    81   0   3   1.0                       0                   6.234                  12.468
    82   0   3   1.0  2.4319022891177067e-32      9.3509999999999991      15.585000000000001
    83   0   3   1.0                   3.117                   6.234      15.585000000000001
    84   0   3   1.0                   3.117      9.3509999999999991                  12.468
    85   0   2   1.0                   3.117                   6.234                  12.468
    86   0   2   1.0                   3.117      9.3509999999999991      15.585000000000001
    87   0   2   1.0                       0                   6.234      15.585000000000001
    88   0   2   1.0  2.4319022891177067e-32      9.3509999999999991                  12.468
    89   0   3   1.0                       0                   6.234      18.701999999999998
    90   0   3   1.0  2.4319022891177067e-32      9.3509999999999991      21.818999999999999
    91   0   3   1.0                   3.117                   6.234      21.818999999999999
    92   0   3   1.0                   3.117      9.3509999999999991      18.701999999999998
    93   0   2   1.0                   3.117                   6.234      18.701999999999998
    94   0   2   1.0                   3.117      9.3509999999999991      21.818999999999999
    95   0   2   1.0                       0                   6.234      21.818999999999999
    96   0   2   1.0  2.4319022891177067e-32      9.3509999999999991      18.701999999999998
    97   0   3   1.0                       0                   6.234                  24.936
    98   0   3   1.0  2.4319022891177067e-32      9.3509999999999991      28.053000000000001
    99   0   3   1.0                   3.117                   6.234      28.053000000000001
   100   0   3   1.0                   3.117      9.3509999999999991                  24.936
   101   0   2   1.0                   3.117                   6.234                  24.936
   102   0   2   1.0                   3.117      9.3509999999999991      28.053000000000001
   103   0   2   1.0                       0                   6.234      28.053000000000001
   104   0   2   1.0  2.4319022891177067e-32      9.3509999999999991                  24.936
   105   0   3   1.0                       0                   6.234      31.170000000000002
   106   0   3   1.0  2.4319022891177067e-32      9.3509999999999991      34.286999999999999
   107   0   3   1.0                   3.117                   6.234      34.286999999999999
   108   0   3   1.0                   3.117      9.3509999999999991      31.170000000000002
   109   0   2   1.0                   3.117                   6.234      31.170000000000002
   110   0   2   1.0                   3.117      9.3509999999999991      34.286999999999999
   111   0   2   1.0                       0                   6.234      34.286999999999999
   112   0   2   1.0  2.4319022891177067e-32      9.3509999999999991      31.170000000000002
   113   0   3   1.0                       0                   6.234      37.403999999999996
   114   0   3   1.0  2.4319022891177067e-32      9.3509999999999991      40.521000000000001
   115   0   3   1.0                   3.117                   6.234      40.521000000000001
   116   0   3   1.0                   3.117      9.3509999999999991      37.403999999999996
   117   0   2   1.0                   3.117                   6.234      37.403999999999996
   118   0   2   1.0                   3.117      9.3509999999999991      40.521000000000001
   119   0   2   1.0                       0                   6.234      40.521000000000001
   120   0   2   1.0  2.4319022891177067e-32      9.3509999999999991      37.403999999999996
   121   0   3   1.0                       0                   6.234      43.637999999999998
   122   0   3   1.0  2.4319022891177067e-32      9.3509999999999991      46.754999999999995
   123   0   3   1.0                   3.117                   6.234      46.754999999999995
   124   0   3   1.0                   3.117      9.3509999999999991      43.637999999999998
   125   0   2   1.0                   3.117                   6.234      43.637999999999998
   126   0   2   1.0                   3.117      9.3509999999999991      46.754999999999995
   127   0   2   1.0                       0                   6.234      46.754999999999995
   128   0   1  -1.0  2.4319022891177067e-32      9.3509999999999991      43.637999999999998
   129   0   3   1.0                       0                  12.468                       0
   130   0   3   1.0  2.4319022891177067e-32      15.585000000000001                   3.117
   131   0   3   1.0                   3.117                  12.468                   3.117
   132   0   3   1.0                   3.117      15.585000000000001 -4.4238504087137056e-32
   133   0   2   1.0                   3.117                  12.468 -2.2119252043568528e-32
   134   0   2   1.0                   3.117      15.585000000000001                   3.117
   135   0   2   1.0                       0                  12.468                   3.117
   136   0   2   1.0  2.4319022891177067e-32      15.585000000000001  8.0140744463076242e-33
   137   0   3   1.0                       0                  12.468                   6.234
   138   0   3   1.0  2.4319022891177067e-32      15.585000000000001      9.3509999999999991
   139   0   3   1.0                   3.117                  12.468      9.3509999999999991
   140   0   3   1.0                   3.117      15.585000000000001                   6.234
   141   0   2   1.0                   3.117                  12.468                   6.234
   142   0   2   1.0                   3.117      15.585000000000001      9.3509999999999991
   143   0   2   1.0                       0                  12.468      9.3509999999999991
   144   0   2   1.0  2.4319022891177067e-32      15.585000000000001                   6.234
   145   0   3   1.0                       0                  12.468                  12.468
   146   0   3   1.0  2.4319022891177067e-32      15.585000000000001      15.585000000000001
   147   0   3   1.0                   3.117                  12.468      15.585000000000001
   148   0   3   1.0                   3.117      15.585000000000001                  12.468
   149   0   2   1.0                   3.117                  12.468                  12.468
   150   0   1  -1.0                   3.117      15.585000000000001      15.585000000000001
   151   0   2   1.0                       0                  12.468      15.585000000000001
   152   0   1  -1.0  2.4319022891177067e-32      15.585000000000001                  12.468
   153   0   3   1.0                       0                  12.468      18.701999999999998
   154   0   3   1.0  2.4319022891177067e-32      15.585000000000001      21.818999999999999
   155   0   3   1.0                   3.117                  12.468      21.818999999999999
   156   0   3   1.0                   3.117      15.585000000000001      18.701999999999998
   157   0   2   1.0                   3.117                  12.468      18.701999999999998
   158   0   2   1.0                   3.117      15.585000000000001      21.818999999999999
   159   0   2   1.0                       0                  12.468      21.818999999999999
   160   0   2   1.0  2.4319022891177067e-32      15.585000000000001      18.701999999999998
   161   0   3   1.0                       0                  12.468                  24.936
   162   0   3   1.0  2.4319022891177067e-32      15.585000000000001      28.053000000000001
   163   0   3   1.0                   3.117                  12.468      28.053000000000001
   164   0   3   1.0                   3.117      15.585000000000001                  24.936
   165   0   1  -1.0                   3.117                  12.468                  24.936
   166   0   2   1.0                   3.117      15.585000000000001      28.053000000000001
   167   0   2   1.0                       0                  12.468      28.053000000000001
   168   0   2   1.0  2.4319022891177067e-32      15.585000000000001                  24.936
   169   0   3   1.0                       0                  12.468      31.170000000000002
   170   0   3   1.0  2.4319022891177067e-32      15.585000000000001      34.286999999999999
   171   0   3   1.0                   3.117                  12.468      34.286999999999999
   172   0   3   1.0                   3.117      15.585000000000001      31.170000000000002
   173   0   2   1.0                   3.117                  12.468      31.170000000000002
   174   0   2   1.0                   3.117      15.585000000000001      34.286999999999999
   175   0   1  -1.0                       0                  12.468      34.286999999999999
   176   0   2   1.0  2.4319022891177067e-32      15.585000000000001      31.170000000000002
   177   0   3   1.0                       0                  12.468      37.403999999999996
   178   0   3   1.0  2.4319022891177067e-32      15.585000000000001      40.521000000000001
   179   0   3   1.0                   3.117                  12.468      40.521000000000001
   180   0   3   1.0                   3.117      15.585000000000001      37.403999999999996
   181   0   2   1.0                   3.117                  12.468      37.403999999999996
   182   0   2   1.0                   3.117      15.585000000000001      40.521000000000001
   183   0   1  -1.0                       0                  12.468      40.521000000000001
   184   0   2   1.0  2.4319022891177067e-32      15.585000000000001      37.403999999999996
   185   0   3   1.0                       0                  12.468      43.637999999999998
   186   0   3   1.0  2.4319022891177067e-32      15.585000000000001      46.754999999999995
   187   0   3   1.0                   3.117                  12.468      46.754999999999995
   188   0   3   1.0                   3.117      15.585000000000001      43.637999999999998
   189   0   2   1.0                   3.117                  12.468      43.637999999999998
   190   0   2   1.0                   3.117      15.585000000000001      46.754999999999995
   191   0   1  -1.0                       0                  12.468      46.754999999999995
   192   0   2   1.0  2.4319022891177067e-32      15.585000000000001      43.637999999999998
   193   0   3   1.0                       0      18.701999999999998                       0
   194   0   3   1.0  2.4319022891177067e-32      21.818999999999999                   3.117
   195   0   3   1.0                   3.117      18.701999999999998                   3.117
   196   0   3   1.0                   3.117      21.818999999999999 -4.4238504087137056e-32
   197   0   2   1.0                   3.117      18.701999999999998 -2.2119252043568528e-32
   198   0   2   1.0                   3.117      21.818999999999999                   3.117
   199   0   2   1.0                       0      18.701999999999998                   3.117
   200   0   2   1.0  2.4319022891177067e-32      21.818999999999999  8.0140744463076242e-33
   201   0   3   1.0                       0      18.701999999999998                   6.234
   202   0   3   1.0  2.4319022891177067e-32      21.818999999999999      9.3509999999999991
   203   0   3   1.0                   3.117      18.701999999999998      9.3509999999999991
   204   0   3   1.0                   3.117      21.818999999999999                   6.234
   205   0   2   1.0                   3.117      18.701999999999998                   6.234
   206   0   1  -1.0                   3.117      21.818999999999999      9.3509999999999991
   207   0   2   1.0                       0      18.701999999999998      9.3509999999999991
   208   0   2   1.0  2.4319022891177067e-32      21.818999999999999                   6.234
   209   0   3   1.0                       0      18.701999999999998                  12.468
   210   0   3   1.0  2.4319022891177067e-32      21.818999999999999      15.585000000000001
   211   0   3   1.0                   3.117      18.701999999999998      15.585000000000001
   212   0   3   1.0                   3.117      21.818999999999999                  12.468
   213   0   2   1.0                   3.117      18.701999999999998                  12.468
   214   0   2   1.0                   3.117      21.818999999999999      15.585000000000001
   215   0   2   1.0                       0      18.701999999999998      15.585000000000001
   216   0   2   1.0  2.4319022891177067e-32      21.818999999999999                  12.468
   217   0   3   1.0                       0      18.701999999999998      18.701999999999998
   218   0   3   1.0  2.4319022891177067e-32      21.818999999999999      21.818999999999999
   219   0   3   1.0                   3.117      18.701999999999998      21.818999999999999
   220   0   3   1.0                   3.117      21.818999999999999      18.701999999999998
   221   0   1  -1.0                   3.117      18.701999999999998      18.701999999999998
   222   0   2   1.0                   3.117      21.818999999999999      21.818999999999999
   223   0   2   1.0                       0      18.701999999999998      21.818999999999999
   224   0   2   1.0  2.4319022891177067e-32      21.818999999999999      18.701999999999998
   225   0   3   1.0                       0      18.701999999999998                  24.936
   226   0   3   1.0  2.4319022891177067e-32      21.818999999999999      28.053000000000001
   227   0   3   1.0                   3.117      18.701999999999998      28.053000000000001
   228   0   3   1.0                   3.117      21.818999999999999                  24.936
   229   0   2   1.0                   3.117      18.701999999999998                  24.936
   230   0   2   1.0                   3.117      21.818999999999999      28.053000000000001
   231   0   1  -1.0                       0      18.701999999999998      28.053000000000001
   232   0   2   1.0  2.4319022891177067e-32      21.818999999999999                  24.936
   233   0   3   1.0                       0      18.701999999999998      31.170000000000002
   234   0   3   1.0  2.4319022891177067e-32      21.818999999999999      34.286999999999999
   235   0   3   1.0                   3.117      18.701999999999998      34.286999999999999
   236   0   3   1.0                   3.117      21.818999999999999      31.170000000000002
   237   0   2   1.0                   3.117      18.701999999999998      31.170000000000002
   238   0   2   1.0                   3.117      21.818999999999999      34.286999999999999
   239   0   2   1.0                       0      18.701999999999998      34.286999999999999
   240   0   2   1.0  2.4319022891177067e-32      21.818999999999999      31.170000000000002
   241   0   3   1.0                       0      18.701999999999998      37.403999999999996
   242   0   3   1.0  2.4319022891177067e-32      21.818999999999999      40.521000000000001
   243   0   3   1.0                   3.117      18.701999999999998      40.521000000000001
   244   0   3   1.0                   3.117      21.818999999999999      37.403999999999996
   245   0   2   1.0                   3.117      18.701999999999998      37.403999999999996
   246   0   2   1.0                   3.117      21.818999999999999      40.521000000000001
   247   0   2   1.0                       0      18.701999999999998      40.521000000000001
   248   0   1  -1.0  2.4319022891177067e-32      21.818999999999999      37.403999999999996
   249   0   3   1.0                       0      18.701999999999998      43.637999999999998
   250   0   3   1.0  2.4319022891177067e-32      21.818999999999999      46.754999999999995
   251   0   3   1.0                   3.117      18.701999999999998      46.754999999999995
   252   0   3   1.0                   3.117      21.818999999999999      43.637999999999998
   253   0   2   1.0                   3.117      18.701999999999998      43.637999999999998
   254   0   2   1.0                   3.117      21.818999999999999      46.754999999999995
   255   0   2   1.0                       0      18.701999999999998      46.754999999999995
   256   0   2   1.0  2.4319022891177067e-32      21.818999999999999      43.637999999999998
   257   0   3   1.0                   6.234                       0                       0
   258   0   3   1.0                   6.234                   3.117                   3.117
   259   0   3   1.0      9.3509999999999991                       0                   3.117
   260   0   3   1.0      9.3509999999999991                   3.117 -4.4238504087137056e-32
   261   0   2   1.0      9.3509999999999991                       0 -2.2119252043568528e-32
   262   0   2   1.0      9.3509999999999991                   3.117                   3.117
   263   0   2   1.0                   6.234                       0                   3.117
   264   0   2   1.0                   6.234                   3.117  8.0140744463076242e-33
   265   0   3   1.0                   6.234                       0                   6.234
   266   0   3   1.0                   6.234                   3.117      9.3509999999999991
   267   0   3   1.0      9.3509999999999991                       0      9.3509999999999991
   268   0   3   1.0      9.3509999999999991                   3.117                   6.234
   269   0   2   1.0      9.3509999999999991                       0                   6.234
   270   0   2   1.0      9.3509999999999991                   3.117      9.3509999999999991
   271   0   2   1.0                   6.234                       0      9.3509999999999991
   272   0   2   1.0                   6.234                   3.117                   6.234
   273   0   3   1.0                   6.234                       0                  12.468
   274   0   3   1.0                   6.234                   3.117      15.585000000000001
   275   0   3   1.0      9.3509999999999991                       0      15.585000000000001
   276   0   3   1.0      9.3509999999999991                   3.117                  12.468
   277   0   2   1.0      9.3509999999999991                       0                  12.468
   278   0   1  -1.0      9.3509999999999991                   3.117      15.585000000000001
   279   0   2   1.0                   6.234                       0      15.585000000000001
   280   0   2   1.0                   6.234                   3.117                  12.468
   281   0   3   1.0                   6.234                       0      18.701999999999998
   282   0   3   1.0                   6.234                   3.117      21.818999999999999
   283   0   3   1.0      9.3509999999999991                       0      21.818999999999999
   284   0   3   1.0      9.3509999999999991                   3.117      18.701999999999998
   285   0   2   1.0      9.3509999999999991                       0      18.701999999999998
   286   0   2   1.0      9.3509999999999991                   3.117      21.818999999999999
   287   0   2   1.0                   6.234                       0      21.818999999999999
   288   0   2   1.0                   6.234                   3.117      18.701999999999998
   289   0   3   1.0                   6.234                       0                  24.936
   290   0   3   1.0                   6.234                   3.117      28.053000000000001
   291   0   3   1.0      9.3509999999999991                       0      28.053000000000001
   292   0   3   1.0      9.3509999999999991                   3.117                  24.936
   293   0   2   1.0      9.3509999999999991                       0                  24.936
   294   0   2   1.0      9.3509999999999991                   3.117      28.053000000000001
   295   0   2   1.0                   6.234                       0      28.053000000000001
   296   0   2   1.0                   6.234                   3.117                  24.936
   297   0   3   1.0                   6.234                       0      31.170000000000002
   298   0   3   1.0                   6.234                   3.117      34.286999999999999
   299   0   3   1.0      9.3509999999999991                       0      34.286999999999999
   300   0   3   1.0      9.3509999999999991                   3.117      31.170000000000002
   301   0   2   1.0      9.3509999999999991                       0      31.170000000000002
   302   0   2   1.0      9.3509999999999991                   3.117      34.286999999999999
   303   0   2   1.0                   6.234                       0      34.286999999999999
   304   0   2   1.0                   6.234                   3.117      31.170000000000002
   305   0   3   1.0                   6.234                       0      37.403999999999996
   306   0   3   1.0                   6.234                   3.117      40.521000000000001
   307   0   3   1.0      9.3509999999999991                       0      40.521000000000001
   308   0   3   1.0      9.3509999999999991                   3.117      37.403999999999996
   309   0   2   1.0      9.3509999999999991                       0      37.403999999999996
   310   0   2   1.0      9.3509999999999991                   3.117      40.521000000000001
   311   0   2   1.0                   6.234                       0      40.521000000000001
   312   0   2   1.0                   6.234                   3.117      37.403999999999996
   313   0   3   1.0                   6.234                       0      43.637999999999998
   314   0   3   1.0                   6.234                   3.117      46.754999999999995
   315   0   3   1.0      9.3509999999999991                       0      46.754999999999995
   316   0   3   1.0      9.3509999999999991                   3.117      43.637999999999998
   317   0   1  -1.0      9.3509999999999991                       0      43.637999999999998
   318   0   2   1.0      9.3509999999999991                   3.117      46.754999999999995
   319   0   2   1.0                   6.234                       0      46.754999999999995