LAMMPS (2 Aug 2023)
OMP_NUM_THREADS environment is not set. Defaulting to 1 thread. (src/comm.cpp:98)
  using 1 OpenMP thread(s) per MPI task
units          metal
atom_style     full

read_data      initial-solid.data
Reading data file ...
  orthogonal box = (0 0 0) to (22.136226 22.136226 66.408677)
  1 by 1 by 1 MPI processor grid
  reading atoms ...
  1536 atoms
Finding 1-2 1-3 1-4 neighbors ...
  special bond factors lj:    0        0        0       
  special bond factors coul:  0        0        0       
     0 = max # of 1-2 neighbors
     0 = max # of 1-3 neighbors
     0 = max # of 1-4 neighbors
     1 = max # of special neighbors
  special bonds CPU = 0.000 seconds
  read_data CPU = 0.033 seconds
velocity       all create 300.0 1312343 dist gaussian

pair_style     chgnet/gpu /ocean/projects/cts180021p/wuziqi/clease/lammps-ASC/potentials/CHGNET
pair_coeff     * * /ocean/projects/cts180021p/wuziqi/chgnet/fine-tunning2/04-12-2024/epoch999_e52_f152_s406_mNA.pth.tar Cl K Li

variable myZlo equal zlo
variable myZhi equal zhi
variable myMid equal (${myZlo}+${myZhi})/2
variable myMid equal (0+${myZhi})/2
variable myMid equal (0+66.4086767857664)/2

region   solid block INF INF INF INF ${myZlo} ${myMid}
region   solid block INF INF INF INF 0 ${myMid}
region   solid block INF INF INF INF 0 33.2043383928832
region   liquid block INF INF INF INF ${myMid} ${myZhi}
region   liquid block INF INF INF INF 33.2043383928832 ${myZhi}
region   liquid block INF INF INF INF 33.2043383928832 66.4086767857664
group    gSolid region solid
768 atoms in group gSolid
group    gLiquid region liquid
768 atoms in group gLiquid

neighbor        0.3 bin
neigh_modify    delay 10

timestep        0.0005
compute msd all msd
thermo_style    custom step temp pe etotal press vol c_msd[4]
thermo          10
dump            1 all custom 10 xyz-npt.dump type id x y z
#dump           2 all custom 10 force-npt.dump type id fx fy fz

fix             1 all npt temp 300.0 300.0 $(100.0*dt) aniso 1.01325 1.01325 $(1000.0*dt)
fix             1 all npt temp 300.0 300.0 0.050000000000000002776 aniso 1.01325 1.01325 $(1000.0*dt)
fix             1 all npt temp 300.0 300.0 0.050000000000000002776 aniso 1.01325 1.01325 0.5
run             10000
Neighbor list info ...
  update: every = 1 steps, delay = 10 steps, check = yes
  max neighbors/atom: 2000, page size: 100000
  master list distance cutoff = 6.3
  ghost atom cutoff = 6.3
  binsize = 3.15, bins = 8 8 22
  1 neighbor lists, perpetual/occasional/extra = 1 0 0
  (1) pair chgnet/gpu, perpetual
      attributes: full, newton on
      pair build: full/bin
      stencil: full/bin/3d
      bin: standard
Per MPI rank memory allocation (min/avg/max) = 6.514 | 6.514 | 6.514 Mbytes
   Step          Temp          PotEng         TotEng         Press          Volume        c_msd[4]   
         0   300           -5648.5042     -5588.9799      47136.101      32541.081      0            
        10   303.72781     -5652.6376     -5592.3736      45678.638      32658.225      0.0018564465 
        20   313.02032     -5663.8246     -5601.7169      41300.139      33001.748      0.014918904  
        30   327.96547     -5679.4167     -5614.3437      35085.342      33528.02       0.056793888  
        40   347.95387     -5695.5784     -5626.5393      28214.34       34134.687      0.13799666   
        50   371.93098     -5709.8676     -5636.0711      22551.135      34706.314      0.24779058   
        60   398.60845     -5722.3173     -5643.2276      18380.36       35196.66       0.36956836   
        70   426.71541     -5733.7247     -5649.0583      15278.573      35624.017      0.49833804   
        80   455.89895     -5744.5693     -5654.1125      12846.116      36016.9        0.63661721   
        90   485.38668     -5754.9203     -5658.6126      10917.875      36389.744      0.78654925   
       100   512.74282     -5764.6454     -5662.9099      9415.0157      36745.013      0.9476007    
       110   535.0455      -5773.4685     -5667.3078      8253.8986      37080.151      1.1172392    
       120   550.68967     -5781.137      -5671.8722      7470.0505      37392.288      1.2922289    
       130   559.16908     -5787.4845     -5676.5373      7018.3154      37680.778      1.4699559    
       140   560.42821     -5792.4642     -5681.2673      6811.2411      37947.549      1.6491145    
       150   555.06521     -5796.175      -5686.0422      6749.4463      38196.229      1.829732     
       160   544.56639     -5798.863      -5690.8133      6700.1426      38430.997      2.0127828    
       170   530.99511     -5800.8856     -5695.5286      6614.1413      38655.529      2.1995396    
       180   516.42635     -5802.6112     -5700.1448      6399.6745      38872.492      2.3911582    
       190   502.52466     -5804.3405     -5704.6324      6029.7349      39083.129      2.5883252    
       200   489.74085     -5806.1499     -5708.9783      5540.0073      39287.36       2.7912224    
       210   478.12157     -5808.0403     -5713.1741      4952.8587      39484.206      2.9995429    
       220   467.88183     -5810.053      -5717.2185      4302.0634      39672.156      3.2125177    
       230   459.13659     -5812.2118     -5721.1125      3630.9037      39849.427      3.4288555    
       240   451.39861     -5814.4259     -5724.862       2978.6022      40014.307      3.6467783    
       250   443.65741     -5816.5005     -5728.4725      2410.3418      40165.509      3.8642935    
       260   435.57663     -5818.3616     -5731.9369      1912.9904      40302.41       4.0794316    
       270   427.81455     -5820.1351     -5735.2506      1518.8445      40424.937      4.29013      
       280   420.98613     -5821.9479     -5738.4182      1208.419       40533.635      4.4944632    
       290   415.27225     -5823.8397     -5741.4438      1003.4107      40629.474      4.6907154    
       300   410.49616     -5825.7938     -5744.3455      890.59696      40713.844      4.8776124    
       310   406.06287     -5827.7029     -5747.1342      865.82334      40788.474      5.054486     
       320   400.61762     -5829.3047     -5749.8164      936.27651      40855.333      5.2212356    
       330   393.87637     -5830.5392     -5752.3885      1029.0496      40916.605      5.3783178    
       340   386.41954     -5831.5104     -5754.8392      1140.2016      40974.253      5.5264567    
       350   378.19024     -5832.2065     -5757.1682      1280.0719      41029.988      5.6664679    
       360   368.93265     -5832.572      -5759.3705      1408.5161      41085.385      5.7992643    
       370   359.14005     -5832.6973     -5761.4387      1492.1578      41141.673      5.9257474    
       380   350.24274     -5832.869      -5763.3758      1551.5571      41199.588      6.0467699    
       390   342.9026      -5833.2297     -5765.1929      1603.4651      41259.58       6.1633619    
       400   336.44344     -5833.6571     -5766.9019      1608.4584      41321.94       6.2765483    
       410   330.62726     -5834.1101     -5768.5089      1610.9644      41386.663      6.3870795    
       420   325.55869     -5834.6221     -5770.0266      1612.1427      41453.668      6.4955744    
       430   321.20914     -5835.1981     -5771.4656      1592.961       41522.87       6.6024554    
       440   316.97802     -5835.7218     -5772.8288      1541.22        41594.074      6.7080242    
       450   312.62558     -5836.1466     -5774.1172      1454.1621      41666.848      6.812499     
       460   308.19584     -5836.4806     -5775.3301      1363.4794      41740.559      6.9160408    
       470   303.9361      -5836.7706     -5776.4654      1277.1683      41814.626      7.018916     
       480   300.21872     -5837.0903     -5777.5226      1188.8866      41888.551      7.1212196    
       490   297.05824     -5837.4423     -5778.5017      1101.7952      41961.854      7.2228912    
       500   294.31037     -5837.8008     -5779.4054      1004.9876      42034.133      7.3237585    
       510   291.72973     -5838.1168     -5780.2335      913.80148      42104.955      7.4233814    
       520   288.91179     -5838.3087     -5780.9845      839.83852      42173.962      7.5211548    
       530   285.80279     -5838.3669     -5781.6596      748.27473      42240.908      7.6164455    
       540   282.51636     -5838.3073     -5782.252       679.37437      42305.484      7.7085415    
       550   279.7585      -5838.2626     -5782.7545      616.12603      42367.561      7.7969696    
       560   277.99944     -5838.3307     -5783.1716      530.29143      42427.04       7.8815857    
       570   276.33289     -5838.3252     -5783.4968      441.18428      42483.682      7.9623611    
       580   273.68101     -5838.0308     -5783.7285      397.0261       42537.28       8.0394108    
       590   270.33448     -5837.4994     -5783.8612      358.36567      42587.88       8.1131536    
       600   267.60019     -5836.9805     -5783.8848      352.47778      42635.641      8.1839741    
       610   267.20209     -5836.8109     -5783.7942      311.23335      42680.852      8.2521691    
       620   269.54864     -5837.0676     -5783.5853      245.03078      42723.584      8.3177322    
       630   273.67777     -5837.5642     -5783.2626      151.69262      42763.604      8.3802681    
       640   278.28341     -5838.0549     -5782.8395      49.765965      42800.524      8.4390812    
       650   282.47822     -5838.3812     -5782.3335     -65.262099      42833.914      8.4933553    
       660   286.11332     -5838.5306     -5781.7617     -165.44582      42863.286      8.5422704    
       670   289.3923      -5838.5669     -5781.1473     -279.84         42888.226      8.5853925    
       680   292.0086      -5838.4409     -5780.5022     -344.76875      42908.354      8.6225796    
       690   293.8376      -5838.1432     -5779.8416     -393.01365      42923.623      8.653975     
       700   295.55772     -5837.8191     -5779.1762     -421.50644      42934.152      8.6796907    
       710   297.59591     -5837.5573     -5778.51       -438.65736      42940.179      8.6997356    
       720   300.09737     -5837.3965     -5777.8529     -441.38915      42941.986      8.7139764    
       730   302.67398     -5837.2676     -5777.2127     -402.38354      42939.981      8.7223504    
       740   304.42744     -5836.998      -5776.5953     -319.31129      42934.871      8.7251183    
       750   304.92859     -5836.5132     -5776.011      -196.12329      42927.623      8.7225951    
       760   304.72897     -5835.924      -5775.4614     -81.291429      42919.414      8.7152165    
       770   304.23345     -5835.3047     -5774.9404      25.058768      42911.297      8.7033447    
       780   303.66639     -5834.7026     -5774.4509      89.55597       42904.07       8.6874193    
       790   303.52221     -5834.2068     -5773.9836      138.5864       42898.21       8.667859     
       800   304.27178     -5833.9135     -5773.5416      160.20502      42893.976      8.6450063    
       810   305.37515     -5833.7131     -5773.1223      175.19069      42891.438      8.6189973    
       820   306.18662     -5833.4817     -5772.7299      165.62628      42890.531      8.5900208    
       830   306.62175     -5833.2034     -5772.3652      158.22423      42891.081      8.5584323    
       840   306.83881     -5832.9111     -5772.0299      147.80464      42892.916      8.524857     
       850   306.98346     -5832.6321     -5771.7222      139.16508      42895.828      8.4901872    
       860   307.35307     -5832.423      -5771.4397      124.2112       42899.628      8.4554396    
       870   308.5236      -5832.3999     -5771.1844      108.30387      42904.155      8.4214772    
       880   310.48527     -5832.5665     -5770.9618      63.953056      42909.194      8.3890675    
       890   312.78309     -5832.8372     -5770.7765      29.117805      42914.366      8.3586397    
       900   315.26213     -5833.1913     -5770.6388     -0.65822436     42919.363      8.3307233    
       910   318.20287     -5833.6981     -5770.5621     -35.297345      42923.986      8.305804     
       920   321.4003      -5834.3309     -5770.5605     -92.937416      42927.969      8.2843117    
       930   323.7731      -5834.8945     -5770.6533     -141.32487      42930.88       8.2663604    
       940   323.82028     -5835.1014     -5770.8509     -172.69088      42932.416      8.2518737    
       950   321.28978     -5834.9        -5771.1515     -191.01626      42932.41       8.2404453    
       960   317.47703     -5834.5345     -5771.5426     -217.68137      42930.783      8.231331     
       970   313.52535     -5834.2126     -5772.0047     -280.74166      42927.415      8.2237749    
       980   310.0625      -5834.0376     -5772.5168     -343.11903      42921.972      8.2169705    
       990   307.05237     -5833.9863     -5773.0627     -404.09264      42914.049      8.2102727    
      1000   304.63157     -5834.0702     -5773.6269     -451.54372      42903.32       8.2031935    
      1010   303.50384     -5834.4229     -5774.2033     -525.88518      42889.556      8.1954441    
      1020   304.02182     -5835.108      -5774.7857     -581.42868      42872.413      8.1867623    
      1030   305.76256     -5836.0441     -5775.3764     -622.32128      42851.671      8.1771       
      1040   307.79543     -5837.0548     -5775.9838     -647.37078      42827.26       8.1665103    
      1050   308.76396     -5837.8718     -5776.6086     -607.65584      42799.326      8.1550511    
      1060   308.09413     -5838.3794     -5777.2491     -550.28112      42768.428      8.1430965    
      1070   306.31086     -5838.676      -5777.8996     -478.20015      42735.283      8.131197     
      1080   304.60059     -5838.9862     -5778.5491     -397.42976      42700.689      8.1198832    
      1090   303.78258     -5839.467      -5779.1922     -357.30335      42665.417      8.1095488    
      1100   303.73446     -5840.0958     -5779.8306     -366.67125      42629.848      8.1001208    
      1110   303.81795     -5840.7488     -5780.4669     -366.87315      42594.019      8.0912605    
      1120   303.79955     -5841.3783     -5781.1001     -380.75291      42557.961      8.0827805    
      1130   302.92386     -5841.8357     -5781.7313     -365.11935      42521.631      8.0747118    
      1140   301.23054     -5842.1224     -5782.354      -331.55422      42485.155      8.0673352    
      1150   299.61878     -5842.415      -5782.9664     -284.16324      42448.82       8.0611       
      1160   298.67006     -5842.8182     -5783.5578     -230.95311      42413.008      8.056504     
      1170   298.08045     -5843.2749     -5784.1315     -189.40255      42378.102      8.0539076    
      1180   297.56234     -5843.7209     -5784.6803     -120.95586      42344.418      8.0535515    
      1190   296.94848     -5844.1274     -5785.2086     -53.149794      42312.41       8.0556768    
      1200   296.41659     -5844.5266     -5785.7133     -31.03173       42282.435      8.0604191    
      1210   296.47184     -5845.0195     -5786.1953     -3.7322077      42254.57       8.0677309    
      1220   296.84467     -5845.5571     -5786.6589     -40.408681      42228.808      8.077625     
      1230   296.71524     -5845.9812     -5787.1086     -94.576816      42204.734      8.0898248    
      1240   295.87019     -5846.246      -5787.5411     -134.69319      42181.812      8.1039855    
      1250   294.80597     -5846.4489     -5787.9551     -175.36119      42159.616      8.1196852    
      1260   294.38538     -5846.7572     -5788.3469     -194.98834      42137.786      8.1364394    
      1270   295.2786      -5847.3036     -5788.7161     -218.77569      42116.122      8.1537316    
      1280   297.10364     -5848.0129     -5789.0633     -242.49646      42094.418      8.1710404    
      1290   298.88586     -5848.7014     -5789.3982     -253.20997      42072.517      8.1878632    
      1300   300.05809     -5849.2595     -5789.7237     -255.91512      42050.351      8.2037944    
      1310   300.74955     -5849.7231     -5790.0501     -217.92959      42027.96       8.2186977    
      1320   301.03929     -5850.1073     -5790.3768     -193.57469      42005.604      8.2328192    
      1330   301.00888     -5850.4303     -5790.7058     -149.3491       41983.512      8.2464037    
      1340   300.67233     -5850.6936     -5791.0359     -109.24367      41962.015      8.259836     
      1350   299.96361     -5850.8848     -5791.3677     -87.740878      41941.386      8.2736942    
      1360   298.47692     -5850.9185     -5791.6964     -75.691616      41921.732      8.2886515    
      1370   296.10589     -5850.7668     -5792.0152     -47.23277       41903.092      8.3054107    
      1380   293.40495     -5850.5321     -5792.3164     -13.348805      41885.608      8.3245941    
      1390   291.44421     -5850.4138     -5792.5871      6.3670219      41869.454      8.3467047    
      1400   291.00994     -5850.5651     -5792.8245     -3.001776       41854.683      8.3720048    
      1410   291.9789      -5850.9624     -5793.0296     -44.412947      41841.096      8.4004699    
      1420   293.45656     -5851.4312     -5793.2052     -99.671089      41828.261      8.4317021    
      1430   294.23697     -5851.7388     -5793.3579     -175.72381      41815.67       8.4651338    
      1440   293.42295     -5851.7062     -5793.4869     -215.30985      41802.769      8.5002222    
      1450   290.91974     -5851.3147     -5793.5921     -240.50836      41789.246      8.5365895    
      1460   287.43558     -5850.6943     -5793.663      -249.49162      41774.965      8.5740877    
      1470   284.31336     -5850.0981     -5793.6863     -260.79896      41759.912      8.6125482    
      1480   283.01232     -5849.8066     -5793.6529     -259.63645      41744.094      8.6515105    
      1490   284.19508     -5849.9447     -5793.5563     -264.0369       41727.56       8.6904874    
      1500   287.30409     -5850.4036     -5793.3983     -270.5901       41710.358      8.7290361    
      1510   291.07836     -5850.9437     -5793.1896     -260.96077      41692.536      8.7666938    
      1520   294.67817     -5851.4117     -5792.9434     -231.66151      41674.212      8.8031409    
      1530   297.73516     -5851.7479     -5792.673      -170.51178      41655.667      8.8383042    
      1540   300.07003     -5851.9288     -5792.3906     -96.979728      41637.393      8.8723138    
      1550   301.7756      -5851.9812     -5792.1046     -31.758061      41619.942      8.9053159    
      1560   302.86513     -5851.916      -5791.8232      36.262359      41603.761      8.937412     
      1570   303.30759     -5851.7303     -5791.5498      95.081825      41589.25       8.9690756    
      1580   303.07542     -5851.4242     -5791.2897      154.5745       41576.746      9.0007863    
      1590   302.23227     -5851.0056     -5791.0384      206.87641      41566.54       9.0329782    
      1600   300.74537     -5850.468      -5790.7958      234.29965      41558.825      9.0660539    
      1610   299.15585     -5849.9128     -5790.556       258.79079      41553.607      9.1001698    
      1620   298.31282     -5849.5038     -5790.3142      281.94663      41550.869      9.1355005    
      1630   298.44781     -5849.2815     -5790.0652      266.42231      41550.544      9.1720949    
      1640   299.31376     -5849.1991     -5789.811       235.25978      41552.318      9.2098175    
      1650   300.94244     -5849.2676     -5789.5563      191.07543      41555.761      9.2485247    
      1660   303.60007     -5849.5433     -5789.3047      105.31547      41560.361      9.2880569    
      1670   307.10539     -5850.0022     -5789.0681      10.091826      41565.388      9.3282403    
      1680   310.65213     -5850.4999     -5788.862      -105.00232      41570.053      9.3688413    
      1690   313.27923     -5850.8566     -5788.6975     -207.01531      41573.51       9.4092909    
      1700   313.97647     -5850.8848     -5788.5873     -255.49435      41575.106      9.4489018    
      1710   312.86025     -5850.6094     -5788.5334     -295.51516      41574.573      9.4870967    
      1720   310.74535     -5850.1908     -5788.5345     -287.44653      41571.81       9.5232628    
      1730   308.43535     -5849.7751     -5788.5772     -248.88004      41567.048      9.557069     
      1740   306.12888     -5849.3936     -5788.6532     -208.59078      41560.728      9.5883227    
      1750   303.84647     -5849.0376     -5788.7501     -126.67911      41553.327      9.6168731    
      1760   301.94111     -5848.7703     -5788.8608     -42.097247      41545.517      9.6431361    
      1770   300.59324     -5848.6168     -5788.9748      81.00482       41538.035      9.6678507    
      1780   299.62456     -5848.5428     -5789.093       183.87473      41531.763      9.692068     
      1790   298.82506     -5848.4967     -5789.2055      256.12315      41527.419      9.7167313    
      1800   298.15897     -5848.4729     -5789.3139      301.4533       41525.411      9.7424501    
      1810   297.84868     -5848.5117     -5789.4143      323.31466      41525.901      9.7694867    
      1820   298.6187      -5848.7582     -5789.508       283.96355      41528.819      9.7977969    
      1830   300.88084     -5849.2958     -5789.5967      224.90222      41533.724      9.8269302    
      1840   303.81641     -5849.9729     -5789.6914      156.79885      41539.992      9.8564911    
      1850   306.203       -5850.5581     -5789.803       119.60872      41547.034      9.8862042    
      1860   307.06885     -5850.8668     -5789.94        72.548701      41554.466      9.915991     
      1870   306.12402     -5850.8434     -5790.104       79.553531      41561.965      9.9456125    
      1880   303.45953     -5850.5028     -5790.2921      96.900697      41569.531      9.9750096    
      1890   299.87651     -5849.9912     -5790.4914      128.22984      41577.334      10.004412    
      1900   297.01069     -5849.6191     -5790.688       142.80777      41585.567      10.034225    
      1910   296.51712     -5849.7067     -5790.8734      135.50898      41594.315      10.064783    
      1920   298.61108     -5850.2944     -5791.0457      60.740262      41603.432      10.096166    
      1930   301.21851     -5850.98       -5791.2139     -7.9172566      41612.384      10.127966    
      1940   302.08121     -5851.3217     -5791.3844     -59.652686      41620.644      10.159765    
      1950   300.25748     -5851.1371     -5791.5617     -17.884761      41627.951      10.191079    
      1960   297.09853     -5850.6863     -5791.7377      52.98849       41634.632      10.221673    
      1970   294.96774     -5850.4255     -5791.8997      89.341231      41641.23       10.251143    
      1980   294.56837     -5850.4907     -5792.0441      109.64532      41648.081      10.278953    
      1990   294.63857     -5850.627      -5792.1664      120.7293       41655.321      10.30465     
      2000   294.00575     -5850.6021     -5792.2671      140.2491       41663.021      10.327981    
      2010   292.22341     -5850.3274     -5792.3461      166.96206      41671.312      10.349137    
      2020   290.05441     -5849.9451     -5792.3941      212.38512      41680.403      10.368786    
      2030   288.54272     -5849.6572     -5792.4062      224.12606      41690.555      10.387924    
      2040   288.2036      -5849.5587     -5792.375       197.82415      41701.795      10.407409    
      2050   288.53303     -5849.5485     -5792.2994      169.61503      41713.867      10.427916    
      2060   288.66247     -5849.454      -5792.1792      141.21385      41726.498      10.450034    
      2070   288.57221     -5849.2734     -5792.0166      110.78218      41739.434      10.474071    
      2080   288.87737     -5849.1262     -5791.8088      71.638724      41752.416      10.499964    
      2090   290.06981     -5849.1149     -5791.5609      13.977918      41765.135      10.527453    
      2100   292.1601      -5849.2438     -5791.275      -51.005864      41777.176      10.556018    
      2110   295.09238     -5849.5093     -5790.9587     -129.28297      41788.061      10.584871    
      2120   298.5091      -5849.8502     -5790.6217     -213.14087      41797.235      10.613097    
      2130   301.33826     -5850.0699     -5790.2801     -286.88054      41804.139      10.639961    
      2140   302.88565     -5850.0403     -5789.9434     -334.61082      41808.35       10.664991    
      2150   303.24314     -5849.7891     -5789.6213     -346.61238      41809.665      10.688301    
      2160   302.80968     -5849.3961     -5789.3143     -325.74186      41808.148      10.710474    
      2170   301.97801     -5848.9406     -5789.0238     -281.54146      41804.112      10.73221     
      2180   301.30539     -5848.5264     -5788.7431     -175.72628      41798.128      10.754354    
      2190   301.74222     -5848.3396     -5788.4696     -67.706229      41791.099      10.778044    
      2200   303.45889     -5848.4154     -5788.2048      44.458372      41783.952      10.804377    
      2210   306.03179     -5848.6747     -5787.9536      139.75508      41777.57       10.834059    
      2220   308.2991      -5848.8959     -5787.7249      217.35283      41772.66       10.867367    
      2230   309.43478     -5848.9233     -5787.527       295.97675      41769.774      10.904172    
      2240   310.00762     -5848.8765     -5787.3665      348.05477      41769.388      10.944026    
      2250   311.13866     -5848.9808     -5787.2465      383.72722      41771.793      10.986315    
      2260   313.20948     -5849.3167     -5787.1714      345.76077      41777.064      11.030518    
      2270   315.70504     -5849.7931     -5787.1527      282.28271      41784.802      11.075576    
      2280   317.20941     -5850.1362     -5787.1973      192.96478      41794.334      11.120294    
      2290   316.38795     -5850.0883     -5787.3124      143.61388      41804.899      11.163613    
      2300   313.17283     -5849.6323     -5787.4943      111.59853      41816.033      11.204841    
      2310   308.72036     -5848.9812     -5787.7267      72.251892      41827.427      11.243506    
      2320   304.11642     -5848.3293     -5787.9883      35.855039      41838.753      11.279238    
      2330   300.61121     -5847.906      -5788.2604      25.14609       41849.751      11.311678    
      2340   299.23512     -5847.9042     -5788.5316     -9.9573572      41860.306      11.340737    
      2350   299.97174     -5848.3173     -5788.7986     -41.034411      41870.194      11.366264    
      2360   302.05627     -5848.9984     -5789.0661     -66.900802      41879.211      11.38827     
      2370   304.58878     -5849.7777     -5789.3429     -86.784944      41887.207      11.407015    
      2380   306.68936     -5850.4893     -5789.6377     -108.58992      41894.058      11.422962    
      2390   307.36112     -5850.9448     -5789.96       -93.560389      41899.699      11.436835    
      2400   305.99172     -5851.0236     -5790.3104     -44.501576      41904.308      11.449575    
      2410   303.31643     -5850.8577     -5790.6753      15.706629      41908.32       11.462204    
      2420   300.58971     -5850.6896     -5791.0483      92.210823      41912.269      11.475652    
      2430   298.76071     -5850.6921     -5791.4137      140.39035      41916.735      11.490541    
      2440   297.92637     -5850.8851     -5791.7723      163.84108      41922.094      11.507025    
      2450   297.52475     -5851.1495     -5792.1164      204.77068      41928.514      11.524786    
      2460   297.00868     -5851.3784     -5792.4476      225.06073      41936.224      11.54342     
      2470   296.47066     -5851.5868     -5792.7628      208.41997      41945.324      11.562314    
      2480   296.00642     -5851.7933     -5793.0614      172.5751       41955.624      11.580593    
      2490   295.68921     -5852.0094     -5793.3404      115.29221      41966.778      11.59758     
      2500   295.66675     -5852.2665     -5793.602       56.195598      41978.341      11.612741    
      2510   296.52338     -5852.6814     -5793.8469     -15.62174       41989.821      11.625574    
      2520   298.49588     -5853.3043     -5794.0785     -109.22778      42000.592      11.635206    
      2530   301.04942     -5854.0375     -5794.305      -220.3058       42009.932      11.640623    
      2540   303.17939     -5854.6945     -5794.5393     -310.93377      42017.064      11.640958    
      2550   303.82864     -5855.068      -5794.784      -368.75116      42021.364      11.635928    
      2560   302.49395     -5855.0632     -5795.0441     -392.54996      42022.51       11.625897    
      2570   299.64725     -5854.767      -5795.3127     -389.58834      42020.448      11.611702    
      2580   296.82473     -5854.4681     -5795.5739     -404.43602      42015.315      11.594413    
      2590   295.30497     -5854.4143     -5795.8216     -435.86439      42007.143      11.574674    
      2600   294.92102     -5854.5681     -5796.0516     -455.84563      41995.822      11.552574    
      2610   294.8077      -5854.756      -5796.2619     -459.39461      41981.311      11.527853    
      2620   294.92225     -5854.9706     -5796.4538     -431.24616      41963.758      11.500257    
      2630   295.66943     -5855.2896     -5796.6245     -385.05473      41943.532      11.46955     
      2640   296.66774     -5855.6418     -5796.7787     -315.00468      41921.132      11.435401    
      2650   297.21464     -5855.892      -5796.9203     -253.27141      41897.172      11.397861    
      2660   297.40479     -5856.0575     -5797.0481     -165.90284      41872.273      11.357528    
      2670   297.49653     -5856.1934     -5797.1658     -71.990966      41847.181      11.31548     
      2680   297.49295     -5856.297      -5797.2701      25.506646      41822.672      11.27294     
      2690   296.97035     -5856.2871     -5797.3639      106.13536      41799.462      11.231207    
      2700   295.67934     -5856.1106     -5797.4436      184.76135      41778.141      11.191427    
      2710   294.47602     -5855.9344     -5797.5062      247.78127      41759.246      11.154571    
      2720   294.36052     -5855.952      -5797.5467      297.13316      41743.187      11.12154     
      2730   295.48697     -5856.1945     -5797.5656      343.4041       41730.258      11.09343     
      2740   296.96111     -5856.4893     -5797.5679      368.4212       41720.643      11.071348    
      2750   297.81526     -5856.6508     -5797.5599      396.28655      41714.417      11.056201    
      2760   297.77957     -5856.6259     -5797.5421      402.41028      41711.613      11.048654    
      2770   296.5472      -5856.3567     -5797.5175      409.47673      41712.157      11.048808    
      2780   294.24803     -5855.8605     -5797.4774      417.19983      41715.975      11.056592    
      2790   291.60347     -5855.2753     -5797.417       407.6225       41722.956      11.071778    
      2800   289.59909     -5854.7878     -5797.3272      373.88308      41732.905      11.093868    
      2810   288.94383     -5854.5282     -5797.1976      307.02898      41745.404      11.12192     
      2820   289.64995     -5854.4952     -5797.0245      207.42723      41759.802      11.154675    
      2830   291.41915     -5854.6344     -5796.8127      104.98274      41775.247      11.190573    
      2840   293.71494     -5854.8398     -5796.5626      7.1964396      41790.866      11.22781     
      2850   296.00535     -5855.0211     -5796.2894     -103.49562      41805.874      11.264764    
      2860   298.00146     -5855.124      -5795.9963     -186.75775      41819.467      11.299922    
      2870   299.88899     -5855.1995     -5795.6972     -231.16138      41831.039      11.332135    
      2880   301.82387     -5855.2848     -5795.3986     -261.43884      41840.284      11.360842    
      2890   303.63895     -5855.3544     -5795.1081     -273.70573      41847.056      11.385811    
      2900   304.90266     -5855.3317     -5794.8346     -226.86458      41851.414      11.407159    
      2910   305.29216     -5855.1559     -5794.5815     -167.25868      41853.759      11.425758    
      2920   304.72835     -5854.8116     -5794.3492     -97.16997       41854.641      11.442928    
      2930   303.62206     -5854.3817     -5794.1387     -15.457006      41854.718      11.460089    
      2940   302.63781     -5853.9943     -5793.9466      38.56719       41854.644      11.478526    
      2950   302.15738     -5853.717      -5793.7647      66.66889       41854.855      11.499282    
      2960   302.15865     -5853.5446     -5793.592       82.586368      41855.593      11.523267    
      2970   302.31554     -5853.4138     -5793.4301      76.938797      41856.957      11.551232    
      2980   302.09487     -5853.2197     -5793.2798      76.551298      41858.9        11.583833    
      2990   301.39183     -5852.9381     -5793.1377      58.393004      41861.371      11.62146     
      3000   300.6496      -5852.655      -5793.0018      36.403021      41864.233      11.663765    
      3010   300.41731     -5852.4745     -5792.8674      4.2611646      41867.28       11.709702    
      3020   300.95439     -5852.4478     -5792.7341     -41.301335      41870.232      11.757866    
      3030   302.06576     -5852.536      -5792.6018     -67.927668      41872.743      11.806851    
      3040   303.92001     -5852.7792     -5792.4771     -94.760772      41874.598      11.855458    
      3050   306.58651     -5853.1967     -5792.3655     -150.1137       41875.584      11.902714    
      3060   309.17278     -5853.624      -5792.2797     -203.53541      41875.319      11.947692    
      3070   310.60072     -5853.8588     -5792.2311     -233.60259      41873.432      11.989609    
      3080   310.0658      -5853.7445     -5792.223      -210.77179      41869.762      12.027972    
      3090   308.00096     -5853.3677     -5792.2559     -158.97215      41864.533      12.062762    
      3100   305.87728     -5853.0117     -5792.3213     -82.880681      41858.232      12.094477    
      3110   304.85154     -5852.8989     -5792.412      -7.2254784      41851.47       12.124105    
      3120   305.08776     -5853.0575     -5792.5237      42.472092      41844.853      12.153073    
      3130   306.0593      -5853.3864     -5792.6598      91.516656      41838.818      12.182957    
      3140   306.59838     -5853.6552     -5792.8216      100.63208      41833.693      12.215268    
      3150   305.75389     -5853.6775     -5793.0115      108.84024      41829.551      12.25103     
      3160   303.34426     -5853.412      -5793.2241      153.55672      41826.47       12.290858    
      3170   300.11716     -5852.9949     -5793.4473      199.60082      41824.742      12.335203    
      3180   297.13981     -5852.6265     -5793.6697      227.62103      41824.656      12.384268    
      3190   295.23704     -5852.4573     -5793.878       240.46612      41826.39       12.437894    
      3200   295.20422     -5852.6411     -5794.0684      216.88299      41829.98       12.49566     
      3210   296.80244     -5853.1278     -5794.238       182.5322       41835.199      12.556525    
      3220   299.13931     -5853.7471     -5794.3935      116.75748      41841.666      12.619219    
      3230   300.67073     -5854.2023     -5794.5449      53.786163      41848.828      12.682642    
      3240   299.98182     -5854.2173     -5794.6966      0.12387018     41856.157      12.745959    
      3250   297.42455     -5853.8577     -5794.8444      1.4018252      41863.269      12.808227    
      3260   294.45041     -5853.4039     -5794.9808     -0.22880711     41870.13       12.868597    
      3270   292.28567     -5853.0868     -5795.0931      2.2362566      41876.737      12.925469    
      3280   291.31742     -5852.9744     -5795.1728     -16.771269      41883.087      12.976965    
      3290   291.8565      -5853.1296     -5795.2211     -44.03018       41889.053      13.021565    
      3300   293.62988     -5853.4988     -5795.2384     -83.215327      41894.437      13.058424    
      3310   295.5908      -5853.8829     -5795.2335     -103.83264      41898.976      13.087354    
      3320   296.97762     -5854.1334     -5795.2088     -97.885946      41902.518      13.108793    
      3330   297.99585     -5854.3015     -5795.1749     -92.99147       41905.131      13.123671    
      3340   299.30281     -5854.5183     -5795.1323     -109.78803      41906.874      13.133095    
      3350   300.94221     -5854.7992     -5795.0879     -142.82576      41907.648      13.138182    
      3360   301.92781     -5854.9552     -5795.0484     -182.41583      41907.213      13.139768    
      3370   301.55821     -5854.8486     -5795.0152     -175.67518      41905.318      13.138308    
      3380   300.15985     -5854.5447     -5794.9887     -159.81729      41902.043      13.134054    
      3390   298.7259      -5854.2345     -5794.963      -114.21439      41897.623      13.127355    
      3400   297.94259     -5854.0474     -5794.9313     -79.146482      41892.422      13.118547    
      3410   298.23424     -5854.0664     -5794.8925     -66.494076      41886.732      13.10787     
      3420   299.33794     -5854.2415     -5794.8485     -27.932482      41880.728      13.095415    
      3430   300.37181     -5854.3967     -5794.7987      2.457112       41874.683      13.081317    
      3440   300.62023     -5854.3986     -5794.7512      19.376095      41868.829      13.065611    
      3450   300.25657     -5854.2799     -5794.7047      39.01112       41863.328      13.047933    
      3460   299.88353     -5854.1624     -5794.6612      43.172055      41858.322      13.027702    
      3470   300.01416     -5854.144      -5794.6169      26.740694      41853.814      13.004238    
      3480   301.04387     -5854.3052     -5794.5738      6.1253883      41849.659      12.976697    
      3490   302.60205     -5854.5747     -5794.5341     -10.181365      41845.695      12.944634    
      3500   303.69944     -5854.7644     -5794.5061     -44.464852      41841.757      12.908071    
      3510   303.63554     -5854.7366     -5794.4909     -62.696231      41837.586      12.867315    
      3520   302.56564     -5854.5227     -5794.4893     -45.751917      41833.061      12.823042    
      3530   301.34639     -5854.2891     -5794.4976     -57.218392      41828.263      12.776309    
      3540   300.76603     -5854.1873     -5794.511      -77.241809      41823.147      12.728187    
      3550   300.7516      -5854.2001     -5794.5266     -133.01902      41817.53       12.679458    
      3560   300.77987     -5854.2261     -5794.547      -163.21277      41811.029      12.6305      
      3570   300.93787     -5854.2795     -5794.5692     -168.50179      41803.43       12.581718    
      3580   301.67137     -5854.4502     -5794.5943     -161.38516      41794.73       12.53348     
      3590   302.93587     -5854.7362     -5794.6294     -165.93482      41784.994      12.486031    
      3600   304.24646     -5855.0416     -5794.6748     -136.58451      41774.247      12.439427    
      3610   304.689       -5855.1925     -5794.7378     -86.468036      41762.734      12.393898    
      3620   304.19588     -5855.1782     -5794.8214     -35.743499      41750.846      12.349838    
      3630   303.26046     -5855.0896     -5794.9184      27.429906      41739.021      12.307619    
      3640   302.58749     -5855.0669     -5795.0292      72.275827      41727.747      12.267818    
      3650   302.50454     -5855.1727     -5795.1515      101.71633      41717.362      12.231104    
      3660   302.85837     -5855.3752     -5795.2838      95.007446      41708.062      12.197901    
      3670   302.98246     -5855.5452     -5795.4291      106.1427       41699.816      12.168263    
      3680   302.22854     -5855.551      -5795.5846      119.06168      41692.635      12.142173    
      3690   300.55775     -5855.3851     -5795.7502      171.28221      41686.638      12.119759    
      3700   298.26117     -5855.0947     -5795.9154      228.76073      41682.184      12.101365    
      3710   295.64974     -5854.7329     -5796.0718      299.22019      41679.713      12.087473    
      3720   293.36333     -5854.4176     -5796.2101      341.80634      41679.706      12.078796    
      3730   291.9813      -5854.2579     -5796.3247      369.12343      41682.464      12.075836    
      3740   291.59992     -5854.2686     -5796.411       392.32727      41688.136      12.079008    
      3750   292.14706     -5854.4323     -5796.4661      397.78029      41696.829      12.088618    
      3760   293.24378     -5854.6761     -5796.4924      397.25023      41708.538      12.104356    
      3770   294.60217     -5854.949      -5796.4957      368.60397      41723.156      12.125419    
      3780   296.07574     -5855.2233     -5796.4776      307.99172      41740.384      12.15088     
      3790   297.64257     -5855.499      -5796.4425      260.19443      41759.716      12.17969     
      3800   299.45025     -5855.8121     -5796.3969      195.97957      41780.7        12.211009    
      3810   301.51555     -5856.1729     -5796.3478      117.45945      41802.772      12.243973    
      3820   303.33634     -5856.4885     -5796.3023      56.044819      41825.293      12.277572    
      3830   304.26813     -5856.6379     -5796.2668     -17.693388      41847.722      12.310885    
      3840   304.13461     -5856.5922     -5796.2475     -65.479348      41869.495      12.343087    
      3850   303.31167     -5856.4252     -5796.2438     -111.8791       41890.212      12.373376    
      3860   302.23907     -5856.2208     -5796.2523     -145.81811      41909.536      12.40082     
      3870   300.96006     -5855.9868     -5796.272      -145.30981      41927.249      12.424647    
      3880   299.54981     -5855.729      -5796.294      -121.91444      41943.39       12.444573    
      3890   298.14124     -5855.4716     -5796.3161     -102.05022      41958.14       12.460811    
      3900   297.00441     -5855.2614     -5796.3314     -43.663021      41971.757      12.473891    
      3910   296.38598     -5855.1412     -5796.334      -32.442876      41984.648      12.48465     
      3920   296.3233      -5855.1178     -5796.323      -24.11229       41996.97       12.493768    
      3930   296.15359     -5855.0574     -5796.2963     -27.475165      42008.796      12.501815    
      3940   295.06094     -5854.7985     -5796.2541     -26.339506      42020.135      12.509098    
      3950   292.83952     -5854.296      -5796.1925     -3.884787       42031.013      12.515457    
      3960   290.27846     -5853.6976     -5796.1022     -13.382624      42041.582      12.520663    
      3970   288.55613     -5853.23       -5795.9763     -50.508096      42051.784      12.524462    
      3980   288.34143     -5853.0176     -5795.8065     -110.35982      42061.327      12.526455    
      3990   289.46129     -5853.0249     -5795.5916     -212.96888      42069.715      12.52619     
      4000   291.66832     -5853.2087     -5795.3376     -323.69358      42076.153      12.523031    
      4010   294.66983     -5853.5175     -5795.0507     -423.80965      42079.803      12.516382    
      4020   298.0515      -5853.884      -5794.7463     -507.36954      42079.897      12.505623    
      4030   301.21227     -5854.203      -5794.4382     -596.99274      42075.79       12.490001    
      4040   303.51398     -5854.3608     -5794.1393     -610.30785      42066.917      12.468643    
      4050   304.64158     -5854.3059     -5793.8607     -560.92527      42053.212      12.441453    
      4060   304.98795     -5854.1191     -5793.6052     -462.5457       42035.189      12.40911     
      4070   305.4595      -5853.98       -5793.3724     -379.75643      42013.707      12.372899    
      4080   306.58912     -5853.9939     -5793.1622     -292.51825      41989.545      12.334183    
      4090   308.25759     -5854.1415     -5792.9788     -217.87623      41963.467      12.294393    
      4100   310.21962     -5854.3802     -5792.8282     -139.98201      41936.14       12.254964    
      4110   312.33242     -5854.686      -5792.7148     -69.622577      41908.215      12.217041    
      4120   313.48956     -5854.8505     -5792.6496      12.695978      41880.308      12.181466    
      4130   312.45471     -5854.634      -5792.6385      108.49507      41853.097      12.148832    
      4140   309.45513     -5854.0745     -5792.6741      207.97174      41827.319      12.119627    
      4150   306.04987     -5853.4746     -5792.7499      312.75915      41803.748      12.094311    
      4160   303.49454     -5853.0667     -5792.849       392.09504      41783.16       12.073383    
      4170   302.18861     -5852.9235     -5792.9649      445.86138      41766.152      12.05724     
      4180   302.07604     -5853.0289     -5793.0927      469.50439      41753.092      12.046118    
      4190   302.43563     -5853.2402     -5793.2327      488.08979      41744.12       12.040099    
      4200   302.42083     -5853.3907     -5793.3861      487.31012      41739.278      12.039022    
      4210   301.90271     -5853.4523     -5793.5504      490.88476      41738.502      12.042632    
      4220   301.18874     -5853.486      -5793.7258      482.63497      41741.705      12.05078     
      4230   300.37772     -5853.505      -5793.9058      473.53855      41748.768      12.063313    
      4240   299.57121     -5853.5266     -5794.0874      450.04246      41759.564      12.079896    
      4250   298.94031     -5853.5782     -5794.2642      401.42306      41773.828      12.100151    
      4260   298.79807     -5853.7207     -5794.4349      349.68648      41791.126      12.123794    
      4270   298.96683     -5853.9185     -5794.5992      311.10974      41810.976      12.150908    
      4280   299.14991     -5854.1151     -5794.7595      274.79344      41833.008      12.181794    
      4290   299.3764      -5854.3154     -5794.9149      227.50121      41856.893      12.216715    
      4300   299.91673     -5854.5769     -5795.0691      176.32202      41882.22       12.255747    
      4310   300.58589     -5854.8651     -5795.2246      114.72327      41908.533      12.298745    
      4320   300.81096     -5855.0702     -5795.385       49.817478      41935.309      12.345407    
      4330   299.90611     -5855.0537     -5795.548      -5.1343553      41962.005      12.395146    
      4340   298.13587     -5854.8658     -5795.7114     -74.387513      41988.172      12.447164    
      4350   296.45111     -5854.6853     -5795.8652     -187.14211      42013.224      12.500343    
      4360   295.2946      -5854.597      -5796.0064     -312.67937      42036.3        12.553333    
      4370   294.6071      -5854.5824     -5796.1281     -451.9144       42056.391      12.604602    
      4380   294.54261     -5854.6718     -5796.2303     -542.125        42072.439      12.652518    
      4390   295.47659     -5854.9413     -5796.3145     -640.74599      42083.687      12.695974    
      4400   297.36658     -5855.384      -5796.3822     -745.33614      42089.412      12.733994    
      4410   299.31044     -5855.8304     -5796.443      -829.32835      42088.875      12.765786    
      4420   300.39522     -5856.1084     -5796.5057     -875.51108      42081.505      12.790777    
      4430   300.16565     -5856.1282     -5796.571      -872.11726      42067.056      12.808713    
      4440   298.89957     -5855.9454     -5796.6395     -793.84565      42045.758      12.819908    
      4450   297.18335     -5855.6689     -5796.7035     -671.8834       42018.388      12.825451    
      4460   295.57928     -5855.4009     -5796.7537     -512.82006      41986.092      12.826693    
      4470   294.56968     -5855.2324     -5796.7856     -340.30486      41950.289      12.824971    
      4480   294.92985     -5855.3101     -5796.7918     -150.79538      41912.514      12.82152     
      4490   295.99724     -5855.5009     -5796.7708      52.858572      41874.378      12.817746    
      4500   296.83216     -5855.6268     -5796.7311      271.94757      41837.565      12.815379    
      4510   297.98813     -5855.7979     -5796.6727      479.74768      41803.823      12.816349    
      4520   300.50195     -5856.2289     -5796.605       654.06475      41774.762      12.822341    
      4530   304.46233     -5856.9467     -5796.537       752.1704       41751.632      12.83442     
      4540   308.82383     -5857.7633     -5796.4882      777.13641      41735.106      12.852823    
      4550   312.21123     -5858.4265     -5796.4793      767.10468      41725.26       12.877173    
      4560   313.72283     -5858.7693     -5796.5222      720.35316      41721.829      12.906804    
      4570   313.29272     -5858.7869     -5796.6251      665.89211      41724.33       12.940751    
      4580   311.39758     -5858.5737     -5796.788       561.09032      41732.155      12.978114    
      4590   308.7389      -5858.2603     -5797.002       424.84841      41744.343      13.017578    
      4600   306.35725     -5858.0328     -5797.2472      281.12394      41759.684      13.057441    
      4610   304.82209     -5857.9984     -5797.5173      151.82696      41776.959      13.09583     
      4620   303.7665      -5858.0706     -5797.7989      37.444858      41795.126      13.130807    
      4630   302.69589     -5858.1482     -5798.089      -68.423651      41813.227      13.160796    
      4640   301.38434     -5858.179      -5798.38       -152.19926      41830.398      13.184608    
      4650   298.98479     -5857.9871     -5798.6642     -172.60294      41846.007      13.2016      
      4660   295.18086     -5857.4996     -5798.9315     -145.41969      41859.894      13.211989    
      4670   290.84873     -5856.8774     -5799.1689     -78.508089      41872.331      13.216525    
      4680   287.62123     -5856.4303     -5799.3621      2.5899623      41883.883      13.216391    
      4690   286.55703     -5856.36       -5799.503       58.593046      41895.182      13.213031    
      4700   287.60018     -5856.6573     -5799.5934      106.03059      41906.717      13.207788    
      4710   289.8045      -5857.1378     -5799.6365      131.12095      41918.858      13.202024    
      4720   292.10002     -5857.6        -5799.6431      134.36862      41931.826      13.1969      
      4730   293.76695     -5857.9039     -5799.6164      126.91478      41945.649      13.193304    
      4740   294.44594     -5857.9863     -5799.564       124.56652      41960.257      13.191529    
      4750   294.06439     -5857.8344     -5799.4878      94.333714      41975.578      13.191248    
      4760   293.31185     -5857.5835     -5799.3862      45.958816      41991.374      13.191703    
      4770   293.05447     -5857.4004     -5799.2542     -13.063111      42007.263      13.192036    
      4780   293.91941     -5857.4117     -5799.0939     -100.37936      42022.73       13.191398    
      4790   295.8751      -5857.6106     -5798.9047     -204.15454      42037.067      13.188766    
      4800   298.68964     -5857.9614     -5798.6971     -310.32366      42049.449      13.182998    
      4810   301.66314     -5858.3346     -5798.4803     -410.49988      42059.035      13.17305     
      4820   303.7728      -5858.543      -5798.2701     -472.27256      42065.062      13.157967    
      4830   304.2663      -5858.4452     -5798.0744     -460.68255      42067.114      13.137261    
      4840   303.06899     -5858.0306     -5797.8974     -392.77364      42065.351      13.111265    
      4850   301.2144      -5857.5        -5797.7347     -304.03214      42060.372      13.080825    
      4860   300.44281     -5857.1909     -5797.5788     -199.75968      42052.991      13.046931    
      4870   301.30604     -5857.2081     -5797.4247     -115.64446      42044.069      13.010313    
      4880   303.00696     -5857.3953     -5797.2743     -31.109371      42034.341      12.971277    
      4890   304.76517     -5857.6058     -5797.1361      49.923792      42024.509      12.930331    
      4900   305.93262     -5857.7164     -5797.015       145.05692      42015.266      12.888164    
      4910   306.2654      -5857.6831     -5796.9157      239.87161      42007.4        12.845634    
      4920   305.81649     -5857.5194     -5796.841       287.73397      42001.598      12.803788    
      4930   304.9106      -5857.2865     -5796.7879      321.87073      41998.247      12.763719    
      4940   304.08769     -5857.0884     -5796.753       329.53213      41997.591      12.726537    
      4950   303.73982     -5856.9998     -5796.7334      326.9643       41999.679      12.693309    
      4960   304.43694     -5857.1323     -5796.7277      282.14447      42004.389      12.665218    
      4970   306.20655     -5857.4963     -5796.7406      211.66405      42011.347      12.643409    
      4980   307.57565     -5857.8047     -5796.7773      98.883132      42019.9        12.628565    
      4990   307.10234     -5857.7794     -5796.8459     -11.066693      42029.124      12.620744    
      5000   304.79684     -5857.4246     -5796.9485     -104.53435      42038.089      12.619716    
      5010   301.65038     -5856.9294     -5797.0777     -180.34104      42046.064      12.624819    
      5020   298.84444     -5856.5167     -5797.2217     -253.42053      42052.442      12.634823    
      5030   297.26396     -5856.3527     -5797.3712     -341.79355      42056.617      12.648288    
      5040   296.75285     -5856.4025     -5797.5224     -406.06258      42057.936      12.663556    
      5050   296.17725     -5856.4351     -5797.6692     -431.46192      42055.912      12.679188    
      5060   294.92447     -5856.3289     -5797.8116     -427.38234      42050.367      12.694155    
      5070   293.76536     -5856.23       -5797.9427     -415.40854      42041.374      12.707706    
      5080   293.12871     -5856.2194     -5798.0584     -380.53094      42029.085      12.719024    
      5090   292.5382      -5856.1989     -5798.1551     -327.79995      42013.833      12.727456    
      5100   291.57763     -5856.0817     -5798.2285     -277.15852      41996.066      12.732514    
      5110   290.56182     -5855.9238     -5798.2722     -211.24643      41976.266      12.734127    
      5120   290.06225     -5855.8345     -5798.282      -132.53223      41955.009      12.732656    
      5130   290.28666     -5855.848      -5798.251      -57.240911      41932.934      12.728832    
      5140   291.19452     -5855.9546     -5798.1774     -4.6419754      41910.67       12.723581    
      5150   292.85298     -5856.1633     -5798.0571      29.829172      41888.664      12.717695    
      5160   294.91653     -5856.4065     -5797.8908      56.113877      41867.172      12.711847    
      5170   296.68245     -5856.546      -5797.68        102.13269      41846.43       12.706701    
      5180   297.84057     -5856.5233     -5797.4275      149.46646      41826.781      12.702929    
      5190   298.76654     -5856.4178     -5797.1383      227.87053      41808.633      12.701042    
      5200   300.05441     -5856.3516     -5796.8165      305.45559      41792.581      12.70169     
      5210   302.55855     -5856.509      -5796.4771      381.06204      41779.222      12.705706    
      5220   306.60717     -5856.9683     -5796.133       434.76564      41769.11       12.71407     
      5230   311.03082     -5857.5271     -5795.8141      471.46895      41762.662      12.727526    
      5240   314.40634     -5857.9244     -5795.5417      494.02355      41760.15       12.746712    
      5250   315.98245     -5858.0328     -5795.3374      500.54414      41761.681      12.771987    
      5260   316.01813     -5857.9087     -5795.2062      481.55338      41767.251      12.803311    
      5270   314.79481     -5857.6022     -5795.1424      434.58766      41776.685      12.84022     
      5280   312.2238      -5857.0942     -5795.1446      381.55771      41789.577      12.882149    
      5290   308.54195     -5856.4153     -5795.1961      300.20588      41805.441      12.928569    
      5300   304.61353     -5855.7191     -5795.2794      194.02564      41823.596      12.978669    
      5310   301.09407     -5855.1215     -5795.3801      83.285704      41843.174      13.031305    
      5320   298.34277     -5854.6791     -5795.4836     -29.871407      41863.252      13.085148    
      5330   296.68031     -5854.4443     -5795.5787     -134.63361      41882.906      13.138563    
      5340   296.06364     -5854.4066     -5795.6633     -240.02162      41901.273      13.189833    
      5350   295.72032     -5854.4084     -5795.7333     -333.5925       41917.482      13.237493    
      5360   294.8189      -5854.2843     -5795.788      -365.09353      41930.829      13.28033     
      5370   293.58463     -5854.0767     -5795.8253     -338.40714      41941.085      13.317705    
      5380   292.87106     -5853.9529     -5795.8431     -300.03465      41948.467      13.349524    
      5390   293.07282     -5853.9851     -5795.8353     -257.90014      41953.328      13.375991    
      5400   293.61432     -5854.0547     -5795.7974     -218.08931      41956.017      13.397553    
      5410   293.88121     -5854.0386     -5795.7283     -183.6611       41956.864      13.415097    
      5420   293.98494     -5853.9489     -5795.618      -132.97196      41956.201      13.429727    
      5430   295.17006     -5854.0236     -5795.4576     -74.865288      41954.472      13.442492    
      5440   298.40573     -5854.4436     -5795.2356     -83.355525      41952.086      13.454101    
      5450   302.98987     -5855.0691     -5794.9516     -123.37932      41948.994      13.464565    
      5460   307.35788     -5855.5997     -5794.6155     -145.51078      41944.924      13.473437    
      5470   310.08095     -5855.7715     -5794.247      -95.53668       41939.754      13.480215    
      5480   311.07149     -5855.5939     -5793.8728     -19.807912      41933.838      13.484872    
      5490   311.40836     -5855.302      -5793.5141      65.52179       41927.797      13.487535    
      5500   312.29627     -5855.1486     -5793.1845      131.69554      41922.331      13.488395    
      5510   314.3281      -5855.2672     -5792.9         186.29856      41918.001      13.487687    
      5520   317.10266     -5855.5895     -5792.6718      196.50501      41915.208      13.485593    
      5530   319.33676     -5855.8729     -5792.5119      202.0911       41914.059      13.482152    
      5540   319.60298     -5855.8491     -5792.4353      204.57352      41914.584      13.477435    
      5550   317.10383     -5855.3566     -5792.4386      216.85118      41916.798      13.471667    
      5560   312.18323     -5854.4535     -5792.5119      238.91096      41920.787      13.465359    
      5570   306.62666     -5853.4775     -5792.6384      239.39689      41926.71       13.459066    
      5580   302.39442     -5852.7935     -5792.7941      212.14523      41934.578      13.452985    
      5590   300.33341     -5852.5543     -5792.9639      171.88182      41944.188      13.44729     
      5600   300.43251     -5852.7521     -5793.142       98.405033      41955.163      13.442303    
      5610   301.85413     -5853.2212     -5793.329       13.377258      41966.887      13.437956    
      5620   303.24444     -5853.7009     -5793.5329     -50.036058      41978.675      13.43407     
      5630   303.77197     -5854.0305     -5793.7578     -75.249419      41990.055      13.430646    
      5640   303.44664     -5854.214      -5794.0058     -92.618049      42000.806      13.428241    
      5650   302.09417     -5854.2147     -5794.2749     -122.45045      42010.752      13.427628    
      5660   300.03321     -5854.0873     -5794.5564     -160.68749      42019.65       13.429401    
      5670   298.58905     -5854.0803     -5794.836      -221.67674      42027.174      13.433881    
      5680   298.5982      -5854.3546     -5795.1085     -294.46435      42032.844      13.44083     
      5690   299.84692     -5854.8636     -5795.3697     -374.94342      42036.038      13.449442    
      5700   301.6995      -5855.4814     -5795.6199     -458.63896      42036.071      13.45839     
      5710   303.55346     -5856.0952     -5795.8659     -524.4322       42032.296      13.465808    
      5720   304.44585     -5856.5105     -5796.1041     -541.23233      42024.218      13.469663    
      5730   303.88125     -5856.6339     -5796.3395     -518.82804      42011.669      13.468361    
      5740   301.91783     -5856.4666     -5796.5617     -436.28901      41994.862      13.460533    
      5750   299.02998     -5856.0912     -5796.7594     -343.32746      41974.431      13.445408    
      5760   295.87428     -5855.6261     -5796.9204     -232.16968      41951.178      13.422926    
      5770   293.09841     -5855.1951     -5797.0401     -102.35726      41926.036      13.393533    
      5780   291.20703     -5854.8907     -5797.1111      36.413067      41900.058      13.358225    
      5790   290.22877     -5854.7252     -5797.1397      151.90178      41874.359      13.318357    
      5800   289.80277     -5854.6285     -5797.1275      258.15183      41849.915      13.275328    
      5810   290.27393     -5854.6743     -5797.0798      357.20576      41827.621      13.230586    
      5820   291.6019      -5854.8615     -5797.0035      427.83974      41808.268      13.185836    
      5830   293.18532     -5855.079      -5796.9068      467.92231      41792.425      13.142673    
      5840   294.56092     -5855.2445     -5796.7994      485.54908      41780.425      13.102294    
      5850   295.15009     -5855.2456     -5796.6836      531.75109      41772.424      13.065676    
      5860   294.4918      -5854.9951     -5796.5637      576.44287      41768.779      13.033942    
      5870   293.3201      -5854.6351     -5796.4362      611.82444      41769.889      13.008121    
      5880   292.95952     -5854.4264     -5796.299       635.12105      41776.046      12.989071    
      5890   294.13179     -5854.5059     -5796.1459      662.27969      41787.457      12.977491    
      5900   296.5149      -5854.8179     -5795.9851      616.14413      41804.279      12.974207    
      5910   299.72747     -5855.2917     -5795.8215      526.51109      41826.205      12.979454    
      5920   303.05063     -5855.7935     -5795.6639      417.08306      41852.509      12.9926      
      5930   305.24167     -5856.0908     -5795.5265      291.87777      41882.286      13.012325    
      5940   305.49523     -5856.0275     -5795.4128      178.98179      41914.538      13.036795    
      5950   304.05865     -5855.6543     -5795.3247      71.453015      41948.319      13.06409     
      5960   301.67372     -5855.1105     -5795.2541     -39.064402      41982.741      13.092464    
      5970   299.25378     -5854.5634     -5795.1871     -143.06386      42016.892      13.120384    
      5980   297.91314     -5854.2305     -5795.1202     -245.8088       42049.882      13.14661     
      5990   298.44455     -5854.2594     -5795.0437     -364.81873      42080.82       13.170011    
      6000   300.07157     -5854.4971     -5794.9586     -510.70403      42108.693      13.189475    
      6010   301.46288     -5854.6868     -5794.8722     -633.66482      42132.322      13.203903    
      6020   302.05801     -5854.7267     -5794.794      -727.73281      42150.67       13.212523    
      6030   301.87633     -5854.619      -5794.7224     -794.16497      42162.951      13.214745    
      6040   301.45437     -5854.4718     -5794.6589     -818.24029      42168.615      13.210138    
      6050   301.08173     -5854.3429     -5794.604      -807.20127      42167.44       13.198617    
      6060   300.65558     -5854.2078     -5794.5534     -762.82944      42159.54       13.180306    
      6070   300.03044     -5854.0349     -5794.5046     -690.14606      42145.276      13.155383    
      6080   299.81288     -5853.9423     -5794.4551     -622.00833      42125.207      13.124168    
      6090   300.7224      -5854.0664     -5794.3988     -550.90932      42099.943      13.087147    
      6100   302.41983     -5854.3433     -5794.3388     -478.29041      42070.091      13.044809    
      6110   303.60407     -5854.5165     -5794.2771     -395.36771      42036.271      12.997755    
      6120   303.47491     -5854.4319     -5794.2181     -297.38273      41999.194      12.94671     
      6130   302.63344     -5854.2067     -5794.1599     -161.69162      41959.693      12.892605    
      6140   302.50616     -5854.1169     -5794.0954     -31.805992      41918.843      12.837191    
      6150   304.04173     -5854.3524     -5794.0262      83.969996      41877.74       12.782738    
      6160   306.37092     -5854.7443     -5793.9559      167.54697      41837.335      12.731539    
      6170   307.59224     -5854.9248     -5793.8941      298.29202      41798.411      12.685668    
      6180   306.78363     -5854.7238     -5793.8535      483.98491      41762.055      12.647193    
      6190   304.42054     -5854.2316     -5793.8302      693.69106      41729.75       12.618095    
      6200   301.90253     -5853.7266     -5793.8248      873.88179      41703.149      12.599745    
      6210   300.5781      -5853.4669     -5793.8279      1014.553       41683.713      12.592747    
      6220   301.05776     -5853.5768     -5793.8426      1092.392       41672.542      12.59696     
      6230   302.54065     -5853.8983     -5793.8699      1121.5758      41670.275      12.611691    
      6240   304.00927     -5854.2341     -5793.9143      1100.9339      41677.145      12.636199    
      6250   304.88467     -5854.4802     -5793.9867      1033.6227      41692.981      12.6698      
      6260   305.11272     -5854.6289     -5794.0902      942.242        41717.288      12.711882    
      6270   305.1174      -5854.7611     -5794.2214      802.22841      41749.294      12.761574    
      6280   305.15349     -5854.9347     -5794.3879      637.86064      41787.875      12.817842    
      6290   305.15096     -5855.1273     -5794.581       460.3191       41831.685      12.879702    
      6300   304.9536      -5855.309      -5794.8018      263.2246       41879.282      12.946172    
      6310   304.10406     -5855.387      -5795.0484      50.940185      41929.053      13.015973    
      6320   302.33155     -5855.2954     -5795.3085     -121.17558      41979.293      13.087354    
      6330   300.48893     -5855.1991     -5795.5778     -276.94291      42028.491      13.158358    
      6340   299.77189     -5855.3232     -5795.8442     -437.63416      42075.291      13.226986    
      6350   300.09199     -5855.6433     -5796.1008     -613.9219       42118.333      13.291085    
      6360   300.2012      -5855.9147     -5796.3505     -773.97595      42156.18       13.348515    
      6370   299.45723     -5856.0066     -5796.59       -903.90426      42187.502      13.397328    
      6380   298.28327     -5856.0015     -5796.8178     -1029.6479      42211.162      13.435749    
      6390   297.08876     -5855.9806     -5797.0339     -1117.5563      42226.15       13.462031    
      6400   295.92303     -5855.9487     -5797.2334     -1160.6143      42231.749      13.474638    
      6410   294.94361     -5855.9366     -5797.4156     -1145.0781      42227.621      13.472556    
      6420   294.5791      -5856.0256     -5797.5769     -1092.5817      42213.917      13.455512    
      6430   295.33412     -5856.3164     -5797.7179     -997.68453      42191.13       13.423944    
      6440   296.84609     -5856.7394     -5797.8409     -824.83169      42160.138      13.37907     
      6450   298.22301     -5857.1188     -5797.9471     -622.61334      42122.384      13.323001    
      6460   299.15865     -5857.3993     -5798.0419     -375.52656      42079.654      13.258291    
      6470   299.94619     -5857.6384     -5798.1248     -111.37299      42034.031      13.18781     
      6480   300.56616     -5857.8336     -5798.197       168.47526      41987.765      13.114705    
      6490   300.26185     -5857.8395     -5798.2632      433.68403      41943.173      13.042294    
      6500   299.10196     -5857.6732     -5798.3271      670.85822      41902.454      12.973637    
      6510   298.32572     -5857.5784     -5798.3863      850.29366      41867.522      12.911269    
      6520   298.46732     -5857.6615     -5798.4413      969.61879      41839.801      12.857328    
      6530   299.14501     -5857.8538     -5798.4991      988.42787      41820.163      12.813607    
      6540   299.64407     -5858.0153     -5798.5616      989.83732      41808.793      12.781251    
      6550   299.84909     -5858.1266     -5798.6322      946.94364      41805.587      12.761052    
      6560   299.87638     -5858.2115     -5798.7118      852.01272      41810.128      12.753281    
      6570   299.93929     -5858.313      -5798.8007      727.92367      41821.587      12.757538    
      6580   300.0288      -5858.4298     -5798.8998      570.54389      41838.899      12.77297     
      6590   299.90609     -5858.5166     -5799.0109      426.7206       41860.797      12.798297    
      6600   299.33287     -5858.525      -5799.1331      289.0831       41886.061      12.832105    
      6610   298.80118     -5858.5543     -5799.2679      141.05371      41913.512      12.872799    
      6620   298.61216     -5858.6664     -5799.4175     -30.954177      41941.897      12.918637    
      6630   298.79757     -5858.8663     -5799.5806     -226.53952      41969.803      12.967482    
      6640   299.33015     -5859.1578     -5799.7664     -425.84811      41995.621      13.016535    
      6650   299.59434     -5859.4222     -5799.9784     -620.45923      42017.703      13.062825    
      6660   298.62211     -5859.4772     -5800.2263     -758.87244      42034.507      13.103628    
      6670   295.75245     -5859.1824     -5800.5009     -824.04699      42044.927      13.136841    
      6680   291.49655     -5858.6298     -5800.7927     -845.58735      42048.437      13.161144    
      6690   286.99475     -5858.0175     -5801.0736     -795.43369      42044.958      13.175909    
      6700   283.59506     -5857.5959     -5801.3266     -714.7383       42034.917      13.181479    
      6710   282.5013      -5857.5813     -5801.529      -612.84065      42019.024      13.17854     
      6720   283.89694     -5858.0035     -5801.6743     -504.58606      41998.166      13.167806    
      6730   286.78256     -5858.6678     -5801.7661     -389.88887      41973.277      13.150121    
      6740   289.82743     -5859.3179     -5801.812      -262.19445      41945.364      13.126551    
      6750   292.26783     -5859.8086     -5801.8185     -103.72971      41915.547      13.098604    
      6760   293.87871     -5860.0986     -5801.7889      57.561668      41885.113      13.06827     
      6770   294.45441     -5860.1525     -5801.7285      227.03741      41855.405      13.037785    
      6780   293.9343      -5859.9595     -5801.6387      414.9318       41827.804      13.009361    
      6790   292.6796      -5859.5845     -5801.5126      618.50389      41803.847      12.985425    
      6800   291.5443      -5859.1882     -5801.3417      792.52095      41785.132      12.968701    
      6810   291.18937     -5858.9        -5801.1239      914.77185      41772.989      12.961669    
      6820   291.79491     -5858.7437     -5800.8474      993.96938      41768.393      12.966002    
      6830   293.37447     -5858.7275     -5800.5178      1000.1493      41771.914      12.982256    
      6840   295.65076     -5858.8052     -5800.1438      959.11954      41783.598      13.010148    
      6850   297.87667     -5858.848      -5799.745       846.19574      41803.046      13.049022    
      6860   299.3667      -5858.7458     -5799.3472      675.6871       41829.319      13.097587    
      6870   299.79893     -5858.4565     -5798.9721      506.23274      41861.046      13.153805    
      6880   299.68646     -5858.0966     -5798.6345      324.71764      41896.79       13.215308    
      6890   299.90548     -5857.845      -5798.3394      130.29064      41935.027      13.279527    
      6900   300.89563     -5857.7882     -5798.0862     -84.921449      41974.107      13.344034    
      6910   302.21157     -5857.8347     -5797.8716     -314.31671      42012.245      13.406594    
      6920   303.03402     -5857.8226     -5797.6963     -510.51467      42047.562      13.464877    
      6930   302.92454     -5857.6567     -5797.5522     -662.80281      42078.415      13.516836    
      6940   301.94759     -5857.3484     -5797.4377     -772.53224      42103.561      13.561049    
      6950   300.40384     -5856.9489     -5797.3444     -839.50553      42122.127      13.59664     
      6960   298.35583     -5856.4636     -5797.2656     -861.24068      42133.604      13.622964    
      6970   295.9466      -5855.9117     -5797.1917     -831.51186      42137.848      13.639589    
      6980   293.80759     -5855.406      -5797.1104     -756.37252      42135.145      13.646347    
      6990   292.79175     -5855.109      -5797.0149     -660.77241      42126.182      13.643508    
      7000   293.20231     -5855.0775     -5796.902      -573.19527      42111.767      13.631585    
      7010   294.53077     -5855.2072     -5796.768      -477.01609      42092.702      13.61131     
      7020   296.13087     -5855.3782     -5796.6216     -373.73621      42069.84       13.583551    
      7030   297.83396     -5855.558      -5796.4635     -285.72443      42044.047      13.549252    
      7040   299.4735      -5855.7206     -5796.3007     -209.37786      42016.073      13.509324    
      7050   300.94376     -5855.8499     -5796.1383     -119.13727      41986.605      13.464636    
      7060   301.97474     -5855.8986     -5795.9824     -41.250497      41956.364      13.416262    
      7070   302.38748     -5855.833      -5795.835       38.835792      41926.015      13.365083    
      7080   302.32434     -5855.6847     -5795.6992      128.2258       41896.218      13.311857    
      7090   302.22359     -5855.5389     -5795.5735      260.46738      41867.748      13.257595    
      7100   302.69863     -5855.5192     -5795.4594      365.4843       41841.615      13.203653    
      7110   304.0255      -5855.6777     -5795.3547      436.19456      41818.674      13.151459    
      7120   305.72151     -5855.9275     -5795.268       495.48678      41799.474      13.10246     
      7130   306.79497     -5856.0754     -5795.2029      554.30342      41784.474      13.058179    
      7140   306.70189     -5856.0187     -5795.1646      614.43189      41774.125      13.020167    
      7150   305.51891     -5855.7726     -5795.1533      659.80541      41768.87       12.98955     
      7160   303.45701     -5855.3749     -5795.1647      697.47067      41769.041      12.967066    
      7170   300.78791     -5854.8732     -5795.1925      701.35167      41774.894      12.953118    
      7180   298.05272     -5854.3627     -5795.2247      664.90548      41786.456      12.947812    
      7190   295.8829      -5853.9617     -5795.2543      604.34411      41803.407      12.950755    
      7200   295.15901     -5853.835      -5795.2712      535.06577      41825.227      12.961282    
      7210   296.22275     -5854.0437     -5795.2689      424.12928      41851.306      12.978603    
      7220   299.02777     -5854.5817     -5795.2503      289.99063      41880.735      13.001679    
      7230   302.88929     -5855.3207     -5795.2231      152.70419      41912.397      13.029333    
      7240   306.46287     -5856.007      -5795.2003      48.198397      41945.173      13.060633    
      7250   308.54849     -5856.4193     -5795.1989     -45.543412      41978.16       13.095034    
      7260   308.68818     -5856.4819     -5795.2338     -90.745924      42010.629      13.131819    
      7270   307.14147     -5856.2563     -5795.3151     -124.34245      42042.161      13.17051     
      7280   304.56057     -5855.8751     -5795.4459     -172.87737      42072.454      13.210655    
      7290   302.03826     -5855.5492     -5795.6205     -245.2458       42101.131      13.251394    
      7300   300.76145     -5855.5107     -5795.8354     -363.27289      42127.59       13.291284    
      7310   300.79767     -5855.7678     -5796.0853     -503.44963      42150.866      13.328429    
      7320   300.49273     -5855.9905     -5796.3684     -681.90972      42169.767      13.360905    
      7330   298.93393     -5855.9908     -5796.6781     -841.21552      42182.873      13.386819    
      7340   296.29637     -5855.7887     -5796.9993     -932.73266      42188.919      13.404667    
      7350   293.14696     -5855.4785     -5797.314      -957.8126       42187.17       13.413582    
      7360   290.16243     -5855.1742     -5797.6018     -942.83745      42177.429      13.413301    
      7370   288.57435     -5855.1079     -5797.8506     -915.02806      42159.87       13.404132    
      7380   289.03495     -5855.4005     -5798.0518     -857.52912      42134.829      13.386764    
      7390   290.70811     -5855.8923     -5798.2117     -777.35422      42102.822      13.362232    
      7400   292.20394     -5856.3109     -5798.3335     -659.63263      42064.597      13.331842    
      7410   293.15582     -5856.5889     -5798.4226     -499.86061      42021.242      13.297359    
      7420   294.03446     -5856.8229     -5798.4822     -323.9136       41974.136      13.260839    
      7430   295.18999     -5857.0851     -5798.5152     -159.80011      41924.786      13.224238    
      7440   296.50735     -5857.3561     -5798.5248     -10.121131      41874.614      13.189348    
      7450   297.87797     -5857.6205     -5798.5172      153.21436      41824.916      13.157909    
      7460   299.02489     -5857.8281     -5798.4973      330.47075      41777.06       13.131696    
      7470   299.37321     -5857.8684     -5798.4685      502.2648       41732.47       13.112355    
      7480   298.91126     -5857.7406     -5798.4323      693.60445      41692.569      13.101416    
      7490   298.29953     -5857.5743     -5798.3874      874.11048      41658.814      13.100523    
      7500   298.23322     -5857.5092     -5798.3354      1018.6177      41632.551      13.111131    
      7510   298.94047     -5857.5879     -5798.2738      1120.2102      41614.86       13.13435     
      7520   299.82845     -5857.7        -5798.2097      1185.2086      41606.465      13.170661    
      7530   299.95364     -5857.6567     -5798.1416      1220.499       41607.765      13.219754    
      7540   298.93545     -5857.3835     -5798.0705      1242.5795      41618.935      13.280661    
      7550   297.68303     -5857.0573     -5797.9927      1240.0655      41640.026      13.35198     
[...]
     18200   1270.3925     -5612.7444     -5360.6803      4294.842       47469.327      56.486639    
     18210   1289.917      -5615.9084     -5359.9704      4129.7457      47454.556      56.451534    
     18220   1315.2827     -5620.2502     -5359.2793      3767.5721      47441.472      56.43401     
     18230   1313.6106     -5619.323      -5358.6838      3645.9149      47428.875      56.424864    
     18240   1301.3505     -5616.397      -5358.1904      3609.2965      47415.652      56.413698    
     18250   1304.1438     -5616.5211     -5357.7603      3479.02        47401.246      56.392993    
     18260   1315.5521     -5618.4082     -5357.3838      3256.9573      47385.337      56.357016    
     18270   1313.4997     -5617.6992     -5357.0821      3217.2945      47367.735      56.302197    
     18280   1305.2288     -5615.825      -5356.8489      3320.9542      47348.963      56.2318      
     18290   1306.3974     -5615.8649     -5356.6569      3384.2478      47330.032      56.153847    
     18300   1313.6006     -5617.136      -5356.4988      3432.6913      47311.868      56.076226    
     18310   1325.1122     -5619.3197     -5356.3985      3478.4406      47295.099      56.005159    
     18320   1331.4159     -5620.5604     -5356.3884      3565.4168      47280.238      55.94621     
     18330   1329.9761     -5620.3832     -5356.4969      3684.1221      47267.684      55.902821    
     18340   1328.6685     -5620.3506     -5356.7237      3770.8251      47257.907      55.878478    
     18350   1322.727      -5619.516      -5357.068       3806.3081      47251.294      55.877515    
     18360   1316.5497     -5618.7294     -5357.507       3744.1251      47247.746      55.902078    
     18370   1333.4808     -5622.6284     -5358.0467      3440.7434      47246.571      55.94934     
     18380   1360.9249     -5628.7859     -5358.7589      3005.6549      47246.005      56.008459    
     18390   1365.3031     -5630.636      -5359.7403      2820.5986      47244.041      56.066011    
     18400   1346.4766     -5628.1516     -5360.9914      2832.2868      47239.676      56.113708    
     18410   1325.6688     -5625.4563     -5362.4246      2908.5443      47232.722      56.147955    
     18420   1304.8514     -5622.8134     -5363.9121      2952.1063      47223.345      56.16746     
     18430   1285.0731     -5620.2938     -5365.3169      2984.0964      47211.696      56.170485    
     18440   1278.1045     -5620.147      -5366.5527      2883.5756      47197.891      56.154218    
     18450   1276.0715     -5620.7651     -5367.5743      2759.8001      47181.54       56.112933    
     18460   1276.1179     -5621.5854     -5368.3854      2611.1247      47161.761      56.040718    
     18470   1274.0417     -5621.7806     -5368.9925      2509.6914      47137.786      55.936511    
     18480   1270.6184     -5621.5133     -5369.4044      2464.9046      47109.493      55.803177    
     18490   1273.6066     -5622.3303     -5369.6285      2542.7514      47077.235      55.64394     
     18500   1281.9138     -5624.0402     -5369.6901      2609.9395      47041.821      55.464078    
     18510   1287.5676     -5625.0897     -5369.6179      2766.2145      47004.32       55.271295    
     18520   1286.2887     -5624.6484     -5369.4303      3045.8865      46965.975      55.074595    
     18530   1279.5259     -5623.0122     -5369.1359      3263.996       46927.949      54.881672    
     18540   1269.9885     -5620.7029     -5368.719       3562.7674      46890.918      54.696751    
     18550   1257.1542     -5617.5872     -5368.1498      3835.1063      46855.89       54.526019    
     18560   1248.4854     -5615.1193     -5367.4019      4049.0828      46824.137      54.377005    
     18570   1251.2731     -5614.7377     -5366.4672      4208.0669      46797.167      54.258058    
     18580   1254.5771     -5614.292      -5365.3659      4428.4885      46777.015      54.18049     
     18590   1257.8334     -5613.7313     -5364.1592      4603.3404      46765.996      54.158425    
     18600   1266.334      -5614.1682     -5362.9094      4656.1004      46765.588      54.200842    
     18610   1280.9054     -5615.826      -5361.6761      4598.0783      46776.029      54.309105    
     18620   1294.6588     -5617.3971     -5360.5183      4474.0403      46796.491      54.478491    
     18630   1300.639      -5617.5315     -5359.4661      4308.1929      46825.196      54.699173    
     18640   1296.1703     -5615.6909     -5358.5122      4231.9723      46859.905      54.958693    
     18650   1285.9715     -5612.7711     -5357.6159      4215.8025      46899.051      55.248173    
     18660   1284.1267     -5611.5135     -5356.7244      4151.5856      46941.711      55.561808    
     18670   1297.3558     -5613.2131     -5355.7992      3897.0226      46987.247      55.895679    
     18680   1312.7628     -5615.317      -5354.8461      3627.5516      47034.7        56.244279    
     18690   1321.577      -5616.1194     -5353.8996      3445.7194      47083.089      56.60179     
     18700   1321.854      -5615.246      -5352.9712      3339.22        47131.876      56.964069    
     18710   1321.9593     -5614.3528     -5352.0571      3249.685       47180.925      57.328861    
     18720   1333.6954     -5615.7587     -5351.1344      2988.0165      47229.962      57.692891    
     18730   1345.9636     -5617.2722     -5350.2138      2756.6665      47277.777      58.048426    
     18740   1348.7607     -5616.9445     -5349.331       2655.665       47323.053      58.388654    
     18750   1349.5848     -5616.2706     -5348.4937      2554.3537      47365.008      58.710061    
     18760   1356.167      -5616.7789     -5347.696       2524.5833      47403.063      59.008957    
     18770   1354.666      -5615.7345     -5346.9494      2645.1491      47437.242      59.284847    
     18780   1345.6084     -5613.2325     -5346.2446      2899.0818      47468.621      59.544282    
     18790   1342.405      -5611.9058     -5345.5534      3141.169       47498.758      59.797316    
     18800   1343.3962     -5611.3894     -5344.8404      3294.6559      47528.848      60.051387    
     18810   1340.7518     -5610.1238     -5344.0994      3504.7599      47559.214      60.3064      
     18820   1342.7482     -5609.74       -5343.3195      3712.442       47590.034      60.560692    
     18830   1350.036      -5610.3677     -5342.5012      3777.8009      47621.668      60.813793    
     18840   1355.1619     -5610.5402     -5341.6566      3845.7188      47653.993      61.063136    
     18850   1354.3942     -5609.5331     -5340.8019      3922.2916      47686.387      61.30415     
     18860   1349.951      -5607.7855     -5339.9359      3999.3743      47717.805      61.531608    
     18870   1341.0114     -5605.1199     -5339.044       4027.1983      47747.092      61.742165    
     18880   1333.1167     -5602.6161     -5338.1066      3960.6473      47773.309      61.934164    
     18890   1330.0888     -5601.0084     -5337.0997      3919.5359      47796.262      62.107154    
     18900   1335.3002     -5600.9586     -5336.0159      3716.561       47816.321      62.262526    
     18910   1351.463      -5603.0262     -5334.8766      3465.0682      47833.983      62.403585    
     18920   1362.0936     -5603.9989     -5333.74        3333.9113      47849.833      62.536402    
     18930   1351.4588     -5600.8015     -5332.6527      3394.2088      47865.091      62.671546    
     18940   1335.81       -5596.6516     -5331.6078      3528.1003      47881.582      62.82178     
     18950   1337.2402     -5595.8818     -5330.5542      3471.2151      47901.02       62.996819    
     18960   1353.4896     -5598.0377     -5329.486       3258.0063      47924.07       63.198547    
     18970   1367.8125     -5599.8398     -5328.4463      3191.7741      47950.288      63.423852    
     18980   1368.1049     -5598.9327     -5327.4811      3213.096       47979.048      63.670854    
     18990   1360.4039     -5596.519      -5326.5954      3289.1145      48009.9        63.93881     
     19000   1359.6944     -5595.5427     -5325.7599      3296.4122      48042.578      64.226401    
     19010   1361.931      -5595.1772     -5324.9506      3295.8728      48076.937      64.531263    
     19020   1358.8179     -5593.7754     -5324.1664      3371.2315      48113.311      64.852897    
     19030   1350.4518     -5591.339      -5323.39        3450.3016      48152.302      65.192738    
     19040   1344.1876     -5589.297      -5322.5909      3518.8628      48194.219      65.552432    
     19050   1342.6951     -5588.15       -5321.7401      3500.4612      48239.203      65.933452    
     19060   1345.7474     -5587.8446     -5320.829       3356.7758      48287.115      66.335567    
     19070   1356.375      -5588.9886     -5319.8644      3124.22        48337.549      66.756052    
     19080   1367.9854     -5590.299      -5318.8711      2845.3733      48389.634      67.187712    
     19090   1375.5728     -5590.8142     -5317.8809      2674.1432      48442.041      67.619189    
     19100   1384.103      -5591.5514     -5316.9255      2549.6108      48493.622      68.040838    
     19110   1396.7236     -5593.1569     -5316.0269      2355.5129      48543.724      68.448631    
     19120   1408.565      -5594.696      -5315.2166      2277.4872      48591.816      68.840655    
     19130   1410.4545     -5594.3654     -5314.511       2190.0355      48637.587      69.214602    
     19140   1404.696      -5592.6255     -5313.9137      2170.7654      48680.615      69.566133    
     19150   1399.2711     -5591.0178     -5313.3824      2026.2389      48720.344      69.89225     
     19160   1395.621      -5589.8009     -5312.8897      1867.849       48755.967      70.190176    
     19170   1396.6603     -5589.531      -5312.4136      1664.2991      48786.755      70.45752     
     19180   1392.1049     -5588.1592     -5311.9456      1494.1201      48811.99       70.691573    
     19190   1380.5938     -5585.3972     -5311.4676      1457.5716      48831.131      70.88954     
     19200   1380.6064     -5584.8779     -5310.9458      1398.8117      48844.307      71.050481    
     19210   1385.887      -5585.3448     -5310.365       1260.8099      48852.187      71.175247    
     19220   1393.7628     -5586.2776     -5309.7351      1138.3934      48855.506      71.266018    
     19230   1398.156      -5586.4863     -5309.0722      1064.829       48854.428      71.322108    
     19240   1397.8193     -5585.7374     -5308.3901      1047.9189      48848.469      71.339491    
     19250   1396.229      -5584.7263     -5307.6945      1203.1728      48836.632      71.311029    
     19260   1390.231      -5582.8165     -5306.9748      1444.0258      48818.125      71.23167     
     19270   1390.9219     -5582.1969     -5306.2181      1684.6386      48792.3        71.097377    
     19280   1399.1643     -5583.0322     -5305.418       1971.2446      48758.788      70.907051    
     19290   1410.5242     -5584.4604     -5304.5922      2228.7475      48717.831      70.664959    
     19300   1426.6039     -5586.8357     -5303.777       2327.7218      48670.545      70.382627    
     19310   1447.2687     -5590.1675     -5303.0086      2338.1054      48618.728      70.07601     
     19320   1468.0113     -5593.6425     -5302.368       2287.2303      48564.072      69.758005    
     19330   1477.973      -5595.1681     -5301.9171      2441.0795      48507.927      69.437983    
     19340   1471.8562     -5593.7186     -5301.6813      2886.1155      48451.718      69.125641    
     19350   1454.8869     -5590.2924     -5301.622       3397.3117      48397.06       68.830839    
     19360   1441.6252     -5587.7062     -5301.6671      3760.2308      48345.483      68.560041    
     19370   1449.1386     -5589.3135     -5301.7836      3853.1626      48298.098      68.316383    
     19380   1454.7376     -5590.6121     -5301.9713      3912.8217      48255.799      68.105436    
     19390   1442.7732     -5588.5254     -5302.2585      4045.2732      48218.94       67.932039    
     19400   1416.8022     -5583.7075     -5302.5937      4166.2141      48187.014      67.794556    
     19410   1400.5136     -5580.7705     -5302.8885      4220.0637      48159.192      67.687664    
     19420   1402.242      -5581.3191     -5303.0942      4103.0533      48134.928      67.607199    
     19430   1405.379      -5582.0482     -5303.2009      3961.0697      48113.859      67.550073    
     19440   1407.1719     -5582.4199     -5303.2169      3923.2149      48095.505      67.510614    
     19450   1419.4817     -5584.7959     -5303.1504      4002.9799      48079.267      67.480877    
     19460   1433.7713     -5587.5132     -5303.0324      4186.5362      48064.334      67.455789    
     19470   1432.2163     -5587.0536     -5302.8814      4495.9724      48050.086      67.436008    
     19480   1426.357      -5585.7008     -5302.6911      4808.9925      48036.63       67.426356    
     19490   1435.4652     -5587.2539     -5302.437       4815.8978      48024.432      67.431796    
     19500   1442.9419     -5588.3994     -5302.0991      4673.0769      48013.773      67.452481    
     19510   1437.4199     -5586.8716     -5301.6669      4482.5848      48004.675      67.485464    
     19520   1438.1338     -5586.4358     -5301.0895      4252.3238      47997.304      67.529516    
     19530   1446.9995     -5587.4037     -5300.2983      3990.2691      47991.73       67.585538    
     19540   1458.4692     -5588.6404     -5299.2592      3830.7494      47987.995      67.655695    
     19550   1456.6308     -5586.9943     -5297.9779      3890.5427      47986.287      67.74343     
     19560   1451.8967     -5584.5509     -5296.4738      4077.7172      47987.349      67.855815    
     19570   1463.4613     -5585.1603     -5294.7886      4208.2457      47992.138      68.00068     
     19580   1480.7298     -5586.8071     -5293.0091      4227.2425      48001.507      68.182443    
     19590   1497.8571     -5588.4814     -5291.2851      4150.9948      48016.161      68.4009      
     19600   1517.0583     -5590.7538     -5289.7477      4001.3743      48036.453      68.6529      
     19610   1528.5067     -5591.7656     -5288.488       3905.9125      48061.922      68.932522    
     19620   1522.3386     -5589.601      -5287.5472      3808.4237      48091.17       69.23116     
     19630   1510.3109     -5586.5555     -5286.8882      3859.6416      48122.083      69.537538    
     19640   1506.6005     -5585.3855     -5286.4544      3928.9659      48152.922      69.842754    
     19650   1507.6188     -5585.3445     -5286.2113      3977.0537      48182.699      70.141136    
     19660   1502.6521     -5584.3077     -5286.16        4056.4068      48211.471      70.433121    
     19670   1481.4668     -5580.2073     -5286.263       4300.7242      48240.507      70.728048    
     19680   1459.9535     -5576.1185     -5286.4428      4484.3625      48271.459      71.036951    
     19690   1459.0743     -5576.1332     -5286.6319      4431.9164      48304.901      71.362326    
     19700   1461.7307     -5576.8334     -5286.8051      4393.8482      48339.821      71.696288    
     19710   1453.4644     -5575.3521     -5286.9639      4440.7735      48375.093      72.030282    
     19720   1451.9687     -5575.1829     -5287.0915      4481.9976      48410.759      72.364521    
     19730   1470.9818     -5579.0504     -5287.1866      4326.4839      48447.024      72.70441     
     19740   1486.365      -5582.209      -5287.2929      4067.5535      48483.372      73.051786    
     19750   1480.1592     -5581.1433     -5287.4585      3978.028       48519.489      73.404496    
     19760   1461.7862     -5577.713      -5287.6737      4020.4512      48555.96       73.760483    
     19770   1445.2434     -5574.6321     -5287.8751      4117.3396      48593.57       74.117863    
     19780   1429.0513     -5571.5391     -5287.9948      4151.6268      48632.748      74.476046    
     19790   1412.2612     -5568.1677     -5287.9549      4104.5497      48672.963      74.833295    
     19800   1410.4299     -5567.5334     -5287.684       3928.15        48712.872      75.186356    
     19810   1429.2346     -5570.7305     -5287.1498      3530.4137      48750.912      75.529493    
     19820   1457.4579     -5575.5439     -5286.3634      3171.7197      48785.246      75.849734    
     19830   1485.6849     -5580.1816     -5285.4005      2857.1405      48814.363      76.132881    
     19840   1510.6105     -5584.0752     -5284.3484      2612.1586      48837.527      76.370095    
     19850   1529.3337     -5586.7511     -5283.3094      2437.9863      48854.809      76.560329    
     19860   1540.1169     -5587.9413     -5282.36        2388.3637      48866.747      76.708016    
     19870   1544.7156     -5588.053      -5281.5593      2431.9424      48874.3        76.821551    
     19880   1541.2957     -5586.7496     -5280.9345      2553.7083      48878.749      76.91009     
     19890   1528.9216     -5583.8342     -5280.4743      2697.1871      48881.01       76.98027     
     19900   1515.0434     -5580.7438     -5280.1375      2806.9372      48881.433      77.037717    
     19910   1517.4164     -5580.9675     -5279.8904      2583.1771      48879.753      77.086563    
     19920   1516.7708     -5580.6665     -5279.7174      2471.9796      48875.656      77.129372    
     19930   1502.9936     -5577.8416     -5279.6261      2478.3028      48869.52       77.171904    
     19940   1477.0938     -5572.634      -5279.5575      2561.999       48862.272      77.22051     
     19950   1455.0974     -5568.1414     -5279.4292      2776.6224      48854.704      77.278398    
     19960   1441.0971     -5565.0758     -5279.1415      3079.8866      48847.715      77.34771     
     19970   1434.1486     -5563.1678     -5278.6122      3261.989       48842.669      77.432536    
     19980   1444.3572     -5564.3628     -5277.7816      3365.5514      48840.941      77.537303    
     19990   1461.9742     -5566.7032     -5276.6266      3418.461       48843.856      77.670355    
     20000   1475.3217     -5567.9052     -5275.1802      3473.6884      48852.712      77.842875    
Loop time of 4055.22 on 1 procs for 10000 steps with 1536 atoms

Performance: 0.107 ns/day, 225.290 hours/ns, 2.466 timesteps/s, 3.788 katom-step/s
101.6% CPU use with 1 MPI tasks x 1 OpenMP threads

MPI task timing breakdown:
Section |  min time  |  avg time  |  max time  |%varavg| %total
---------------------------------------------------------------
Pair    | 3892.5     | 3892.5     | 3892.5     |   0.0 | 95.99
Bond    | 0.023376   | 0.023376   | 0.023376   |   0.0 |  0.00
Neigh   | 2.4108     | 2.4108     | 2.4108     |   0.0 |  0.06
Comm    | 0.51159    | 0.51159    | 0.51159    |   0.0 |  0.01
Output  | 158.96     | 158.96     | 158.96     |   0.0 |  3.92
Modify  | 0.71305    | 0.71305    | 0.71305    |   0.0 |  0.02
Other   |            | 0.1256     |            |       |  0.00

Nlocal:           1536 ave        1536 max        1536 min
Histogram: 1 0 0 0 0 0 0 0 0 0
Nghost:           2611 ave        2611 max        2611 min
Histogram: 1 0 0 0 0 0 0 0 0 0
Neighs:              0 ave           0 max           0 min
Histogram: 1 0 0 0 0 0 0 0 0 0
FullNghs:        49810 ave       49810 max       49810 min
Histogram: 1 0 0 0 0 0 0 0 0 0

Total # of neighbors = 49810
Ave neighs/atom = 32.428385
Ave special neighs/atom = 0
Neighbor list builds = 981
Dangerous builds = 896
unfix           2

write_data      structure.ready.data
System init for write_data ...

write_restart   structure.ready
System init for write_restart ...
    
Total wall time: 2:18:56
