LAMMPS data file via write_data, version 29 Sep 2021, timestep = 5000

432 atoms
3 atom types

-0.8680700526807179 18.279900346408063 xlo xhi
-0.36582790419670097 17.77765819792389 ylo yhi
-1.2911651479613369 36.11482573541593 zlo zhi

Masses

1 35.45
2 39.0983
3 6.94

Atoms # full

2 0 3 0 0.7300185427437709 3.431852208138058 0.16921058436550096 0 0 0
6 0 1 0 2.1365548195834783 2.198437636413732 1.5791853501228599 0 0 0
146 0 2 0 5.301308697364995 2.2790044292615352 1.5040275833947816 0 0 0
147 0 2 0 8.601207467860387 -0.020013283271474835 1.43598829100804 0 0 0
150 0 1 0 8.720417719656675 2.8844831486035303 1.480418117996734 0 0 0
289 0 2 0 12.53211178562202 0.5318436994066753 -1.200474632180056 0 0 0
296 0 1 0 12.239059951972763 3.38523764693669 -0.4989673530021669 0 0 0
1 0 3 0 17.491856740854733 1.037546100361182 -0.2580791257387107 -1 0 0
8 0 1 0 17.822058677981275 3.2519119557556118 -0.988657945980737 -1 0 0
292 0 3 0 15.101725832366437 3.3702544753295722 -0.8738686785555145 0 0 0
293 0 1 0 15.256725933176753 0.9728462704450382 -0.17281172655297627 0 0 0
53 0 1 0 1.956803523203312 5.118025556360958 -0.856977929875137 0 0 0
55 0 1 0 -0.48346114808874224 5.590546079754143 1.4664983666990352 0 0 0
52 0 2 0 1.7197626817673526 8.030073342753072 -0.8288688606406276 0 0 0
196 0 3 0 8.638287166887364 8.63033959141369 -0.7976890979606548 0 0 0
197 0 1 0 8.76052133394437 6.187574206447962 -1.1834019951518486 0 0 0
337 0 2 0 11.949193505084217 6.290787221284419 -1.2342016542723102 0 0 0
341 0 1 0 15.312179678879843 5.37796156448392 0.20203429199085443 0 0 0
49 0 3 0 17.612628446381066 5.45876536385316 -0.46121282981229006 -1 0 0
50 0 2 0 16.660419435378916 8.37326996004911 1.152128938752703 -1 0 0
9 0 3 0 0.7250987205789761 1.2690881108796 3.1791397728768738 0 0 0
16 0 1 0 -0.5914254645581052 2.3346808172476314 4.690225513179876 0 0 0
13 0 1 0 2.380953046279849 0.4582509653739303 4.4920571114543275 0 0 0
160 0 1 0 6.023812733929608 2.3273521123901317 4.521337715229796 0 0 0
157 0 1 0 8.926109314336918 -0.2918581348721035 4.598182433858237 0 0 0
156 0 2 0 8.825058847886945 2.771665949044715 4.601478172850043 0 0 0
304 0 1 0 11.679853780011253 3.117591522886148 4.942374247836119 0 0 0
299 0 2 0 12.217630670357392 0.1075300522114625 4.32262319317641 0 0 0
7 0 1 0 18.21884515654639 0.306021043014863 2.019831149589191 -1 0 0
294 0 1 0 15.19718494048189 3.0136998710932215 2.94443998194623 0 0 0
291 0 3 0 15.79504200499936 0.7459626901829919 2.1481144277165782 0 0 0
300 0 3 0 16.1089738689611 1.8256521581819918 4.864237576721193 0 0 0
301 0 1 0 15.409155568704506 -0.3437545730455741 4.350698087551438 0 0 0
54 0 1 0 2.2183463607544276 8.416180816091739 2.257019239919544 0 0 0
57 0 3 0 -0.5189194398384442 6.855145666337009 3.504427061999153 0 0 0
61 0 1 0 1.1865581007069412 5.90277640547406 4.825501483143038 0 0 0
51 0 2 0 2.42684144751853 5.548578231033403 2.2073127368386216 0 0 0
208 0 1 0 5.247780737824206 8.006443968484254 4.709181592639957 0 0 0
199 0 1 0 5.275074788077424 5.374023049435507 1.94500479840003 0 0 0
195 0 2 0 8.355491014412802 5.654880188950917 1.883583836306765 0 0 0
201 0 2 0 5.544149053385792 5.179052631586035 4.7109930203566375 0 0 0
204 0 2 0 8.486284974566367 8.645175217601725 4.689688496592429 0 0 0
343 0 1 0 11.283343932531961 6.916119580596135 2.124988562307545 0 0 0
290 0 2 0 12.471558938268219 4.246439021569067 2.3715010014117817 0 0 0
339 0 3 0 16.447969435951784 4.910394964535408 2.324476674471026 0 0 0
349 0 1 0 16.28711314489047 6.436471356529205 3.9314393777100607 0 0 0
14 0 1 0 1.1584163199334703 3.2705499921074725 7.3792633950821624 0 0 0
11 0 3 0 1.3481817310544595 1.5410517835877198 6.063762394772634 0 0 0
15 0 1 0 0.5404416368969762 -0.11784756297018886 7.80151310335814 0 0 0
154 0 2 0 5.687970891031826 2.3655312646269233 7.51002112121434 0 0 0
158 0 1 0 8.654877481663307 2.117889142796997 8.012197023636126 0 0 0
298 0 2 0 11.618333105867995 2.806266585802237 7.850499430142646 0 0 0
302 0 1 0 15.820808548388364 2.1669880743362735 7.356747951334391 0 0 0
12 0 3 0 -0.04083287944606051 4.385922313262295 5.896705757422646 0 0 0
62 0 1 0 1.5167507763630304 7.775753484010247 7.935596106212637 0 0 0
207 0 1 0 5.414285583808131 5.318492982758101 7.604494352585844 0 0 0
202 0 2 0 5.717192143636394 8.192602631792418 7.590886620587545 0 0 0
205 0 1 0 8.621232154233065 5.6619599723881295 5.070735739091174 0 0 0
206 0 1 0 9.093131267792058 8.564359603884267 7.537964187147878 0 0 0
345 0 2 0 11.466420382388428 6.084685681313951 4.9758299923611 0 0 0
203 0 2 0 9.11119966120165 5.148446429817076 8.009574255479357 0 0 0
351 0 1 0 12.041373629365484 5.593447899167684 7.860065433512645 0 0 0
350 0 1 0 15.036133386961856 8.309805803284037 7.793438174024665 0 0 0
347 0 2 0 15.050745555326309 5.457475948536026 6.717806072270598 0 0 0
63 0 1 0 17.922462542719426 5.373738418249908 7.589883366379954 -1 0 0
20 0 2 0 1.5499378478737764 2.0424251292449735 10.10257261728551 0 0 0
168 0 1 0 5.729831622325478 1.8937194612603312 10.447547990099869 0 0 0
312 0 1 0 11.725806957697237 3.595278137025845 10.748076897593773 0 0 0
308 0 2 0 14.31903913288348 2.077015789855741 10.470479633205978 0 0 0
303 0 1 0 12.085241466287277 -0.3414104653791666 8.94316521770909 0 0 0
24 0 1 0 17.606832191726163 3.0252816555288673 10.70991166785531 -1 0 0
10 0 3 0 17.75577947138589 3.068281156658736 8.23722019074635 -1 0 0
59 0 3 0 1.1359381724596451 5.637580685711625 8.436934306601128 0 0 0
69 0 1 0 2.3053360202186717 5.2406602170661145 10.373703818597553 0 0 0
209 0 2 0 5.237608716598319 4.620709627037137 10.292759144842877 0 0 0
213 0 1 0 8.158102585452943 5.520979544169464 11.141654652828285 0 0 0
212 0 2 0 8.820864120240262 8.43705277715886 10.498023689461778 0 0 0
360 0 1 0 11.904214870629973 7.799401834884504 10.807177584398499 0 0 0
353 0 3 0 12.59285932068767 5.706823729062795 10.305869179623391 0 0 0
58 0 2 0 17.791451266518447 8.238492449326909 8.552531500069916 -1 0 0
23 0 1 0 0.27687183554708716 0.48080605655661257 13.429764705588212 0 0 0
162 0 2 0 4.279777585521145 1.6815188861125736 13.290659672935854 0 0 0
164 0 2 0 8.797608338453053 2.382031171005256 11.24679051856517 0 0 0
309 0 1 0 13.830718022419425 -0.08773300644650217 12.573755149123535 0 0 0
355 0 2 0 12.889513577379317 3.3055873453919893 13.457255480900905 0 0 0
18 0 3 0 17.88418810191164 2.150257836369997 13.04512337051158 -1 0 0
68 0 3 0 0.9934768426516642 5.829935719275614 12.121877831211414 0 0 0
71 0 1 0 -0.18578523391629298 4.365115012301516 13.46926285881192 0 0 0
70 0 1 0 2.377641250737562 7.6987787955883835 13.743062523208534 0 0 0
210 0 2 0 5.244497431493921 7.937349936108465 12.682555720645798 0 0 0
215 0 1 0 4.939498164487134 4.51538772818179 13.206769636184902 0 0 0
214 0 1 0 8.058631188816435 8.634398328282897 13.703452730307303 0 0 0
211 0 2 0 7.4836550192682125 5.398924083459801 14.243305965581717 0 0 0
357 0 1 0 14.678684251889985 5.523308693732487 11.785851355661972 0 0 0
356 0 2 0 14.833384727937986 8.613172087713407 11.193110923890824 0 0 0
72 0 1 0 17.77113541077883 7.1523569118603305 11.261741304827625 -1 0 0
65 0 3 0 17.05395975482645 5.049854049681091 11.737192857142457 -1 0 0
22 0 1 0 3.6888883778022894 2.20214245649072 16.128453107532113 0 0 0
163 0 3 0 7.004314818269539 0.5638738423509289 16.623528162602653 0 0 0
359 0 1 0 9.898836905753821 3.952532173087918 14.819696305904273 0 0 0
306 0 3 0 9.801008370282245 2.282634690160366 16.406905508029524 0 0 0
311 0 1 0 9.302732359806011 -0.16300494014098513 16.47216407144857 0 0 0
310 0 1 0 16.01066228116768 2.49854002529195 14.577344330246572 0 0 0
80 0 1 0 -0.17248063355795773 7.6760526500957695 17.18866936665823 0 0 0
76 0 2 0 2.878749958302988 8.393949632070703 16.637428824476704 0 0 0
67 0 2 0 2.845681465215441 5.027834523342924 15.49306708498322 0 0 0
224 0 1 0 5.633279094696346 7.214676633722531 16.254591547357965 0 0 0
361 0 3 0 11.40374573586398 4.649114361610971 16.65977867391354 0 0 0
364 0 3 0 13.371803299463165 7.962945475779986 15.302263330035942 0 0 0
365 0 1 0 13.718781080329105 5.277009089884759 16.135951590954132 0 0 0
66 0 2 0 16.881107557817433 5.748895558752038 15.34121391842704 -1 0 0
358 0 1 0 15.377924645635911 8.691828206280448 14.563039512535378 0 0 0
28 0 2 0 3.469773828503347 1.8755151275549267 18.984607946264504 0 0 0
172 0 3 0 6.855741176983898 1.534964660629818 19.90928379982906 0 0 0
166 0 1 0 7.405822910628071 2.630838835783268 17.65204814352893 0 0 0
314 0 3 0 9.12903367709085 3.825653304303933 19.228769182699505 0 0 0
320 0 1 0 11.648898977629921 2.6121558208552424 17.628604404180866 0 0 0
313 0 2 0 11.158454962995364 -0.18785864893405113 19.16702965232526 0 0 0
316 0 2 0 14.936460746181474 2.8844055297512665 17.604417771220483 0 0 0
73 0 3 0 0.5501813453393629 6.146906077211919 18.998411614737932 0 0 0
77 0 1 0 2.8011361521701743 5.240877593446081 18.736430925705953 0 0 0
217 0 2 0 6.167838420692684 5.562829076160547 18.65249106853868 0 0 0
219 0 3 0 10.239852881270343 6.63314592081887 20.265760426555623 0 0 0
221 0 1 0 9.54339598058894 5.745189492380241 18.13712719286691 0 0 0
32 0 1 0 17.781013295097935 4.618979355231207 19.134299389404536 -1 0 0
30 0 1 0 1.5650223408412103 2.871274506516014 21.665305539727303 0 0 0
37 0 1 0 2.2609987163671668 -0.33442934224518306 23.45371073913759 0 0 0
26 0 3 0 -0.7484367152704319 2.907639121463795 21.274510403823292 0 0 0
31 0 1 0 -0.7467695470194445 0.27429509594520274 21.360611741164735 0 0 0
27 0 3 0 1.4004470653188918 0.09152764186245388 21.32067189183501 0 0 0
176 0 1 0 5.333493506819779 3.195958239300604 20.910643017185553 0 0 0
171 0 3 0 8.346940179686381 0.3207214640716718 22.20092784155851 0 0 0
175 0 1 0 6.063263183916473 -0.34700167099558854 22.253850308222507 0 0 0
174 0 1 0 9.037939027394668 1.8246959831192795 20.703844528744042 0 0 0
180 0 2 0 10.221520705543714 3.533611814559422 23.236939561376996 0 0 0
328 0 1 0 13.042475971001439 2.5203393799231817 23.364795007301915 0 0 0
369 0 3 0 14.279769487096393 3.882673684008563 21.746884469291654 0 0 0
318 0 1 0 15.705902069735195 2.505763870003052 20.62909655959364 0 0 0
79 0 1 0 0.5202344133376986 6.959794951561229 21.32472977148152 0 0 0
170 0 3 0 3.284064222964597 4.201133331831085 21.00790366584494 0 0 0
223 0 1 0 4.836359453517789 6.53864725001865 21.171878430032777 0 0 0
75 0 3 0 2.8228266949209506 7.250934409857495 22.320413433727175 0 0 0
218 0 3 0 4.962692457431488 8.684778052651778 21.680175644945066 0 0 0
229 0 1 0 8.680763701770106 5.351550404108733 21.358466068165388 0 0 0
225 0 2 0 6.19322755426857 4.8754004672575855 23.338009681348947 0 0 0
367 0 1 0 12.647485403650569 5.719194089219226 21.449712030250982 0 0 0
362 0 3 0 14.455324801833152 7.2177119980866955 22.1136366742421 0 0 0
366 0 1 0 16.21814125325566 8.488902865579336 20.865531392416006 0 0 0
363 0 3 0 17.180087042151836 6.30196685304497 20.753503841198423 0 0 0
373 0 1 0 15.935579803697753 5.49935616338491 22.756039902145563 0 0 0
36 0 3 0 1.6168938986923167 2.1049747049793184 23.863571802229917 0 0 0
40 0 1 0 -0.4270033446828032 3.0699514201173788 23.928367396300015 0 0 0
34 0 2 0 -0.6616105559516821 2.3133720284994306 26.745645278301392 0 0 0
38 0 1 0 2.592123530685451 2.461835847462545 26.06833936685214 0 0 0
184 0 1 0 7.848043704315053 3.1692903671485957 25.042238318337528 0 0 0
178 0 2 0 5.679705866751197 2.4466977840180273 26.656005026650135 0 0 0
179 0 2 0 8.897203954605274 0.58419796920416 26.656878253159146 0 0 0
181 0 1 0 9.828505801555492 -0.12902669160957647 23.774905416751103 0 0 0
322 0 3 0 13.625908851456057 4.162688771937473 25.00704960840129 0 0 0
324 0 2 0 16.188157746082663 1.7000961950842264 23.667317683728783 0 0 0
326 0 1 0 15.641907313984554 3.46467262128098 25.892320803562125 0 0 0
81 0 2 0 -0.2853662505794268 5.951016247781716 24.053132159358718 0 0 0
86 0 1 0 2.651057225536053 8.556400483507518 26.738493339165252 0 0 0
226 0 3 0 4.379576122568113 7.3563783322673695 25.5279768244735 0 0 0
85 0 1 0 2.8755985232279673 5.766668625423614 24.04075134602496 0 0 0
231 0 1 0 5.506897508148016 5.65889764415042 26.62896706911186 0 0 0
232 0 1 0 6.14202936402749 8.185772482454453 24.281428701616207 0 0 0
228 0 2 0 11.04813082605701 8.026472997559262 23.751192692838416 0 0 0
230 0 1 0 9.292636171557424 8.516956749462114 26.310004603921954 0 0 0
376 0 1 0 14.401507415102794 8.291596215255403 24.232159358387456 0 0 0
375 0 1 0 12.055320974419987 5.5796485528349935 25.94755256919407 0 0 0
371 0 2 0 16.0118247371166 6.690322913442796 26.37250475285473 0 0 0
192 0 1 0 5.465705342920638 2.800977779517278 29.456155547442112 0 0 0
35 0 2 0 2.641132619484277 -0.3286398588276607 27.50063219497645 0 0 0
188 0 3 0 7.61046393910782 2.2321537553970354 29.781836546090542 0 0 0
189 0 1 0 8.231281613950548 -0.03974878654460284 29.764703645895867 0 0 0
182 0 1 0 9.200526534713125 3.090365993301379 28.417773871632786 0 0 0
327 0 1 0 11.599643007888606 -0.32988181337719735 27.8772767732472 0 0 0
48 0 1 0 18.191254728140283 2.8015080325057684 29.83878116734817 -1 0 0
333 0 1 0 15.250681191890084 -0.21458454613754444 28.6923837656031 0 0 0
332 0 2 0 15.708263538178976 2.8968197871485617 28.703533158526742 0 0 0
89 0 3 0 -0.22254407989474023 4.880098534304679 29.432228387355735 0 0 0
87 0 1 0 -0.6239320657748672 5.42864221632438 27.238845698596183 0 0 0
83 0 2 0 2.522571312261956 5.249933990156289 27.036507319381954 0 0 0
233 0 2 0 5.044355536171893 6.232692868158578 29.664855926199856 0 0 0
227 0 2 0 8.606462737562385 5.571499927101537 26.817804541711418 0 0 0
237 0 1 0 10.085930946222415 6.769033499031302 29.649935889365977 0 0 0
377 0 2 0 12.003775207729863 4.67156208506558 29.011432355320057 0 0 0
370 0 2 0 12.600334182175507 8.472668523740483 27.350040653804715 0 0 0
381 0 1 0 14.555274330533756 6.7236847649517495 29.17614115633229 0 0 0
44 0 2 0 2.3787364257019346 2.5210566339890224 30.133294356340834 0 0 0
46 0 1 0 2.540205333217093 3.342253438357883 32.94469499203331 0 0 0
186 0 2 0 5.574075573354018 2.8802287713615797 32.697198791559885 0 0 0
190 0 1 0 8.439543623899027 2.857137730476579 31.890218740938337 0 0 0
329 0 2 0 11.037777696943392 1.2898172412600868 30.299065566232642 0 0 0
187 0 2 0 9.232893649669842 -0.049458153807312444 32.93629937591293 0 0 0
336 0 1 0 13.763360339761102 3.014845017680391 30.830329733393448 0 0 0
331 0 2 0 14.892082928845488 0.4658785853619968 32.219649193131765 0 0 0
41 0 2 0 18.235759372616062 -0.2758445150672168 30.010849959607746 -1 0 0
93 0 1 0 1.9448645018520843 5.548384222005854 29.952218110626262 0 0 0
91 0 3 0 1.4946436463191866 5.566869561279708 32.18872105392541 0 0 0
239 0 1 0 5.731317348580941 5.923559515262886 32.60740303679285 0 0 0
378 0 2 0 11.476121044190984 8.478679509475915 31.63752855303774 0 0 0
235 0 2 0 8.765583800194495 5.742330758132046 32.21759605659055 0 0 0
95 0 1 0 18.19349652507242 5.920310314721428 31.952372448992357 -1 0 0
379 0 2 0 15.176750957945583 5.524933320770978 31.887815341697205 0 0 0
5 0 1 0 0.5894507695294637 0.7586700492761584 35.86527824391836 0 0 -1
42 0 2 0 -0.7734784320288696 2.7572311565966796 33.44889752282635 0 0 0
152 0 1 0 4.951848705809036 2.7528073222703004 35.88190009247995 0 0 -1
4 0 3 0 2.996944349085262 3.668936183192133 35.135935553675026 0 0 -1
3 0 2 0 3.4071830856969187 -0.04594826130962354 35.77947025736096 0 0 -1
191 0 1 0 5.834236608810555 -0.15273916786647493 33.30227644659672 0 0 0
148 0 2 0 9.785460059480743 3.1663386660676847 35.24461421950225 0 0 -1
335 0 1 0 11.914547284281783 1.2772734181553007 33.455303553965486 0 0 0
330 0 3 0 12.9095935942778 3.481639083721442 33.197275854097526 0 0 0
334 0 1 0 15.124640837101872 3.1360407568902353 33.823705442343716 0 0 0
90 0 3 0 -0.5460673880115542 8.05360554868174 33.642160657878776 0 0 0
94 0 1 0 1.846562126408438 7.656860117811696 33.55455464248715 0 0 0
193 0 2 0 5.665713822400439 5.804791124794125 35.73002583947998 0 0 -1
383 0 1 0 11.654800587640416 5.341182436820126 33.064277775137214 0 0 0
56 0 1 0 17.81952733496259 7.600185049392523 35.79951242774192 -1 0 -1
101 0 1 0 1.101075144936997 11.279353065365253 -0.005365357229209611 0 0 0
247 0 1 0 5.442282224591385 12.756704507734055 1.6213006965638752 0 0 0
243 0 2 0 8.590351927002045 11.773771256323897 1.2836782213449016 0 0 0
198 0 1 0 8.00019766961708 8.789700730539618 1.4598097764535316 0 0 0
97 0 3 0 18.01147134088174 11.589554970209246 0.3887536127851572 -1 0 0
389 0 1 0 15.87057428153539 11.212490410601395 -0.3295655016162885 0 0 0
102 0 1 0 2.106009913930248 15.545837083609022 1.2444772348973436 0 0 0
100 0 3 0 0.7275287273500033 17.503408133832416 0.5222100146364723 0 0 0
139 0 2 0 0.3837284201227207 14.150408593132152 -0.8536128512397906 0 0 1
151 0 1 0 5.517006562980024 17.59861783255154 0.32317969991503226 0 -1 0
242 0 3 0 5.958164305872636 14.742474560264252 0.40589790870491615 0 0 0
392 0 1 0 10.01640164149815 13.332821438330168 -0.9241387220975292 0 0 0
386 0 2 0 11.52622283534646 14.221141338974366 1.3475128950101984 0 0 0
388 0 2 0 15.000187845273393 14.322489176388904 -0.9034717894128301 0 0 0
104 0 1 0 17.66207490043676 16.47439575240309 -0.5455162540346855 -1 0 0
99 0 3 0 1.2562062990005995 10.519095576116927 2.2501217104225124 0 0 0
109 0 1 0 2.0738385141574205 12.211344001356125 3.9447494241816354 0 0 0
64 0 1 0 -0.7215134185121714 9.412746915805217 3.3599541651269824 0 0 0
194 0 2 0 5.151734410356394 8.958754788538847 1.9538706212721269 0 0 0
253 0 1 0 8.280389158340675 11.649990338413676 4.604445955197829 0 0 0
391 0 1 0 11.495186131947882 11.310245862232362 2.2345243884974235 0 0 0
393 0 2 0 11.080457876919365 12.180955190716496 4.906858294290611 0 0 0
338 0 3 0 11.889722046529082 8.924595025359567 2.5526419200049495 0 0 0
342 0 1 0 14.080813812640985 9.021241887492362 1.9143688186641818 0 0 0
387 0 2 0 14.385735170292694 11.834271730424875 2.269608438955501 0 0 0
352 0 1 0 11.995546320214777 8.945135712985879 4.8151188805579785 0 0 0
348 0 2 0 15.342625630621406 9.13224248853049 4.745663406127423 0 0 0
103 0 1 0 17.918213953921388 12.896492262177215 2.071060567216571 -1 0 0
105 0 2 0 17.955297825493055 12.066128203490864 4.92820333597654 -1 0 0
249 0 3 0 3.2785434002404656 13.723365318028973 2.527624516888727 0 0 0
256 0 1 0 4.536331440212093 14.917042350026872 4.663609122164785 0 0 0
153 0 2 0 5.4148009643055195 17.71662247360893 4.914197972820373 0 -1 0
246 0 1 0 7.797163684277239 14.909781775203523 2.414709499152132 0 0 0
252 0 3 0 6.531220277141223 13.58331364175409 3.7073997201198274 0 0 0
297 0 3 0 9.653549839895874 16.076639108970106 3.539772957506745 0 -1 0
295 0 1 0 11.21306501060418 16.83768376659524 1.8485983531297387 0 -1 0
390 0 1 0 14.51677565246974 14.700634019063022 1.9987676138180306 0 0 0
98 0 2 0 17.512626550729667 15.592618210855889 2.2572252268611606 -1 0 0
111 0 1 0 -0.4608538472710218 10.95751573307879 7.44026264952325 0 0 0
255 0 1 0 3.8503659265833203 11.014602453814216 7.051128308308776 0 0 0
60 0 2 0 2.366705322845516 8.794608459484484 5.117688160239169 0 0 0
250 0 3 0 3.122097389120361 13.025161404109406 6.003505114507076 0 0 0
251 0 2 0 9.048493997497147 11.556326921418613 7.877569870245029 0 0 0
397 0 1 0 14.447969722001089 11.81867437862371 5.159619191481132 0 0 0
346 0 2 0 12.074696314501246 8.78200640744497 7.819188293627246 0 0 0
395 0 2 0 15.252369244150966 11.442420400520032 7.876899684535877 0 0 0
110 0 1 0 2.0700852045713805 14.213844924328622 8.028868720405058 0 0 0
108 0 2 0 1.577065008692411 15.866578767616035 5.378165803385825 0 0 0
159 0 1 0 4.66732879101337 17.619157043113823 7.635952808916844 0 -1 0
155 0 2 0 9.727981199713431 17.06609971432902 7.29637947156256 0 -1 0
400 0 1 0 11.55641536277874 15.286576919882084 5.098690026473247 0 0 0
254 0 1 0 9.294361591098394 14.429985078571454 8.048182270960249 0 0 0
396 0 2 0 14.774158610743862 14.788327619641978 4.999255527655817 0 0 0
112 0 1 0 17.86515812807357 14.984153543154626 5.272059054324595 -1 0 0
398 0 1 0 15.265478831036198 14.573373269949673 7.835242927001305 0 0 0
17 0 2 0 16.97454881572757 17.17014373970322 7.0503785392039955 -1 -1 0
117 0 1 0 1.3226225813139743 10.708963485859117 10.670532343195173 0 0 0
107 0 3 0 1.5015596477141386 10.165136845635486 8.292755370272628 0 0 0
257 0 2 0 3.8788150191262405 12.176050794368185 10.004779336177428 0 0 0
216 0 1 0 6.292109470598366 9.456730800603815 10.327597651499957 0 0 0
261 0 1 0 9.773161714202221 11.3067886091413 10.921790224614254 0 0 0
401 0 3 0 11.716621441023047 12.467587612824998 10.702940354327811 0 0 0
399 0 1 0 12.228121757041999 11.985864158327264 8.593783737290622 0 0 0
405 0 1 0 16.49982179070398 11.101412287339027 10.709185668308592 0 0 0
106 0 2 0 -0.7172688794583506 13.510063156424993 9.15879410091169 0 0 0
21 0 1 0 2.442233262205461 17.230814448053174 10.920250114075856 0 -1 0
116 0 3 0 2.5566925105587 16.72014498286505 8.59831625140162 0 0 0
161 0 2 0 5.781331366837455 17.07103235338434 10.41015770054955 0 -1 0
260 0 2 0 9.207904689865574 14.539148692511388 10.816280770024672 0 0 0
408 0 1 0 12.284150707303398 14.617792218577646 11.111476262163748 0 0 0
394 0 2 0 12.417433964389417 14.94651713386573 8.147325881031266 0 0 0
113 0 3 0 -0.6596425997898149 10.886349275641905 11.82632947503802 0 0 0
115 0 3 0 2.0954910074226145 10.090341863665692 12.81140339678717 0 0 0
119 0 1 0 0.0895937363076108 11.271045634714511 13.902020989393924 0 0 0
263 0 1 0 4.146016871617906 11.171045124867325 13.394438532936459 0 0 0
259 0 2 0 7.283553650705407 11.481233869353428 12.492342765864532 0 0 0
354 0 2 0 10.98494016719958 9.543369875909352 13.093742954353015 0 0 0
407 0 1 0 13.242418080005239 11.294810572601582 13.10687611140275 0 0 0
19 0 3 0 0.6884388640877035 16.372520067969823 12.353869521758694 0 -1 0
114 0 3 0 -0.5790011377268951 13.583381798079454 13.861475545373503 0 0 0
118 0 1 0 1.4449575052981745 14.928105727247686 14.167737011938542 0 0 0
258 0 2 0 4.99020276910825 14.435287654774164 14.13846444023754 0 0 0
167 0 1 0 5.888645663007701 17.424146209529 14.18054531583418 0 -1 0
264 0 1 0 6.265106037653469 14.252786488550429 11.461540949495783 0 0 0
402 0 3 0 8.331260031637514 16.667309711106554 14.02366132094912 0 0 0
165 0 1 0 9.67930904264478 17.641766935606604 12.348940480179463 0 -1 0
305 0 3 0 12.000109518769902 17.087373953032596 11.682178005158333 0 -1 0
404 0 2 0 15.070220934650033 13.686291556817702 11.928445071979272 0 0 0
120 0 1 0 17.949703151042886 15.139064688172425 11.771978479308848 -1 0 0
124 0 2 0 2.048501055046232 12.648918164489727 16.021250029558725 0 0 0
220 0 2 0 8.511205740039339 8.80088057551415 16.951959736451318 0 0 0
269 0 1 0 8.535408181774262 11.950312262214865 17.341290347938415 0 0 0
368 0 1 0 11.490678685867273 9.100014889699926 16.00004625674886 0 0 0
413 0 1 0 14.383310123682758 11.364205519464754 17.28957210541711 0 0 0
403 0 3 0 14.695364009460963 11.525194014376552 15.007342760049479 0 0 0
121 0 2 0 17.209588053620894 10.218639590585882 16.171889276764606 -1 0 0
25 0 2 0 3.003999892177812 17.2593545645803 16.036854607815027 0 -1 0
272 0 1 0 3.9470510413079944 14.521273122346637 17.107761700183886 0 0 0
262 0 1 0 8.214576217794086 14.36662643190475 14.351707124720896 0 0 0
307 0 2 0 16.593858390088197 17.271839994697608 14.356777166437169 0 -1 0
406 0 1 0 15.963052571957359 13.58397692863664 14.62354625897845 0 0 0
317 0 1 0 15.095270932028178 17.497123545408016 17.283878191511423 0 -1 0
74 0 2 0 0.5510512310616187 9.523054787664279 19.601491541867485 0 0 0
128 0 1 0 -0.7586671828250968 12.003764622051916 18.270695778519173 0 0 0
122 0 3 0 -0.5892893821160969 12.973729195149426 20.356460439225515 0 0 0
125 0 1 0 2.9080458147504857 11.004854212162533 18.42755450766864 0 0 0
265 0 2 0 5.4700423305005526 12.335931223653603 18.481078336995562 0 0 0
222 0 1 0 9.960941597291669 9.087231018775592 20.36267777655669 0 0 0
409 0 2 0 11.105061482174607 11.279445248105453 18.40536373186739 0 0 0
411 0 2 0 15.710985406041893 11.340389471664224 19.933530682921834 0 0 0
29 0 1 0 2.2573840476016747 17.337529223165923 19.275489064942914 0 -1 0
169 0 3 0 4.363344219117505 16.038673174030457 19.19117258634921 0 -1 0
173 0 1 0 5.9549825497848525 17.54747595246573 18.447566840149232 0 -1 0
126 0 1 0 5.743596959341627 14.260627150676303 20.41127834640095 0 0 0
268 0 2 0 8.393969700910448 14.816228180151352 17.502888039978767 0 0 0
416 0 1 0 11.334586529879482 14.427277217224844 18.216195827088708 0 0 0
410 0 3 0 11.573765766956997 14.860832668432666 20.446846915812763 0 0 0
412 0 2 0 14.504608223435461 14.599121899952415 17.535121123522448 0 0 0
414 0 1 0 16.59918245294156 14.62844792784077 20.230553908243166 0 0 0
315 0 2 0 15.666553466448715 17.5666958420438 20.250464451886184 0 -1 0
127 0 1 0 -0.7228153395423395 11.147946366200804 21.624353126829288 0 0 0
123 0 2 0 3.4185681889679254 12.244264412774811 21.71354587326607 0 0 0
78 0 1 0 2.977542562885986 9.400173074115475 22.326769467191767 0 0 0
271 0 1 0 6.148374142972335 10.353830751536682 20.802036973781128 0 0 0
267 0 3 0 8.161153101336147 10.371120976997183 21.7078312931245 0 0 0
277 0 1 0 9.15046791817055 11.322856729862199 23.557875439377927 0 0 0
417 0 3 0 11.481266670986928 12.571592318403628 23.412303091607015 0 0 0
415 0 1 0 12.337742819922095 12.588122264907643 21.13855870087842 0 0 0
372 0 3 0 17.03513635910424 9.578447616809749 22.797550515953265 0 0 0
421 0 1 0 15.688101764593256 11.484207690653468 23.441368774578862 0 0 0
136 0 1 0 0.566733069900142 14.23844354855935 21.93806938984857 0 0 0
266 0 3 0 7.037251205544415 15.693661010052685 21.840454595772687 0 0 0
270 0 1 0 9.315046585994068 15.829088126980642 21.02206432755874 0 0 0
276 0 3 0 9.845810211535095 15.873563681662729 23.26499229752573 0 0 0
319 0 1 0 12.846183626857941 16.68458575142874 21.260080957947295 0 -1 0
420 0 2 0 14.49209944087019 14.291546291667284 23.169192252074712 0 0 0
33 0 3 0 17.9299401515491 16.10742183100443 21.836913168268875 -1 -1 0
325 0 1 0 16.473301707147634 16.666850979172473 23.57497029138628 0 -1 0
84 0 3 0 1.6586975375253106 9.42869062230099 24.704207002084225 0 0 0
129 0 3 0 0.19832035512694168 12.724310867344496 23.81525340613316 0 0 0
133 0 1 0 2.163914041961414 11.792182451917771 24.68938715834663 0 0 0
88 0 1 0 -0.8132107771505783 9.003874994256893 24.853223722612217 0 0 0
273 0 3 0 8.303348138767653 12.87781397142768 25.22205098556719 0 0 0
275 0 3 0 7.859091374195083 9.754645226288485 25.101680926002427 0 0 0
279 0 1 0 6.659925023017078 11.667685792648625 26.27975579366694 0 0 0
423 0 1 0 12.757194286147143 11.947582203045435 25.388673080240522 0 0 0
419 0 3 0 14.443275705825263 10.419275552685471 24.891713475263238 0 0 0
82 0 3 0 17.344612858097197 10.93785261973033 25.524847921937553 -1 0 0
132 0 2 0 0.520677300271728 15.830027282068412 24.76106101031135 0 0 0
134 0 1 0 3.2741177483450326 14.971437205874729 26.405281140138193 0 0 0
177 0 2 0 4.848627449209141 16.578042105682684 24.581750022408904 0 -1 0
280 0 1 0 7.488972972407868 14.7256989461193 24.0970941525933 0 0 0
424 0 1 0 11.559899156550387 14.888703703619198 24.014114065618383 0 0 0
418 0 3 0 11.721039192831851 14.05522999777154 26.13880108833621 0 0 0
422 0 1 0 13.692397902291116 15.224315773678612 26.5601289062415 0 0 0
321 0 2 0 12.595285513597426 17.61692884972058 24.70846536947462 0 -1 0
135 0 1 0 18.067166280422715 13.399291727080957 25.69105590345867 -1 0 0
141 0 1 0 1.4736989807294019 11.852063185590223 29.51096951975528 0 0 0
131 0 2 0 3.7164884056597547 11.752081568643323 27.178330846577822 0 0 0
236 0 2 0 9.321394209912762 10.458942247973676 28.6945055442956 0 0 0
384 0 1 0 12.408746330790512 10.551280013125348 29.4102224822238 0 0 0
425 0 2 0 14.30492179234391 12.697216465315167 28.15905864098483 0 0 0
374 0 1 0 15.619168145988233 10.04559290841071 27.130658999155127 0 0 0
140 0 2 0 1.4811801299123153 14.815759791986741 28.748171123659745 0 0 0
39 0 1 0 -0.28432808797154663 17.624931146300327 27.192593032170148 0 -1 0
274 0 2 0 6.289272588594827 14.645363673500903 27.705942692623385 0 0 0
183 0 1 0 5.723254016361294 17.653822855654887 27.17521617056342 0 -1 0
284 0 2 0 9.94651133078069 15.32099990927009 29.680106984653364 0 0 0
278 0 1 0 9.632905284706663 13.708860270230195 27.164031974573756 0 0 0
323 0 3 0 13.437467825143349 16.61635734598483 28.321007749280767 0 -1 0
130 0 2 0 16.680047576635264 15.920465361829445 26.894519439812154 -1 0 0
144 0 1 0 17.49229460260144 14.937730760764959 29.460249723223857 -1 0 0
137 0 2 0 -0.8059127964181776 12.90168251534116 31.495214839288494 0 0 0
92 0 2 0 1.3250318970607213 8.713265173773737 30.446463261603483 0 0 0
240 0 1 0 4.648675368291076 9.106200610022297 30.024209085776747 0 0 0
281 0 2 0 4.482779755236615 11.926353746648735 30.844539344075166 0 0 0
234 0 2 0 5.759037857417825 8.972897648561549 32.94166690270877 0 0 0
238 0 1 0 8.745917455419262 9.929842063126971 31.620711269475123 0 0 0
382 0 1 0 14.29770830917491 8.71830052137498 32.87667884283323 0 0 0
429 0 1 0 15.328670961665658 12.591281238727525 31.148145712223773 0 0 0
380 0 2 0 15.516817707451807 9.293384077820015 30.188824046134368 0 0 0
96 0 1 0 18.03908968290181 9.790870549937297 32.3443237268275 -1 0 0
45 0 1 0 2.0417495935847363 17.76050701973889 30.235720777704845 0 -1 0
185 0 2 0 5.428988126477206 17.413369431593537 30.441212173723734 0 -1 0
288 0 1 0 4.005569703973216 14.88225608102203 30.057885524711594 0 0 0
285 0 1 0 7.265547700800189 13.90899355826449 30.740700537765377 0 0 0
432 0 1 0 13.25389652582852 15.152013481755239 30.096220817730696 0 0 0
426 0 2 0 12.995650063889837 13.757830476113238 32.727596002190396 0 0 0
428 0 3 0 15.448324966418546 14.714754483918107 30.400370147819523 0 0 0
287 0 1 0 5.190683365744757 11.985320752626409 33.715875310121135 0 0 0
200 0 1 0 4.845567957272859 8.724879561943617 36.02756618959703 0 0 -1
245 0 1 0 7.977569760886805 10.533421006750608 35.410169323460224 0 0 -1
283 0 2 0 8.070119383982473 12.499421066454547 33.15805156023593 0 0 0
241 0 3 0 5.615418999643588 10.73164551613543 35.551796915248076 0 0 -1