LAMMPS data file via write_data, version 2 Aug 2023, timestep = 80000, units = metal

1536 atoms
3 atom types

-0.43386158334146785 25.364473828239916 xlo xhi
-0.6544767861689831 25.585089031067476 ylo yhi
-2.755025501165292 77.54686223586091 zlo zhi

Masses

1 35.44999999088069
2 39.09829998994218
3 6.939999998214724

Atoms # full

680 0 1 -1 6.035413018623149 -0.31200514197821083 -2.7309238760041636 0 1 0
678 0 1 -1 9.532007846209586 -0.41383128886942344 -1.4623865739425894 0 1 0
771 0 2 1 15.24121794071405 1.9630470768032189 -0.9127600154166948 0 0 0
1442 0 2 1 18.400788956711832 -0.5731961438979213 -1.358936289132349 0 1 0
1155 0 2 1 22.05142920446758 2.350200848320701 -0.4859136594049609 0 0 0
1446 0 1 -1 21.86422351603425 -0.5865632612537114 -0.7625326591648256 0 1 0
7 0 1 -1 25.113050737210326 2.4996778632527246 -0.6021603937439601 -1 0 0
3 0 2 1 3.4479612301210443 2.782832277176159 -0.425157376880827 0 0 0
6 0 1 -1 3.2149092213257293 5.784631607038637 -0.5402931820548971 0 0 0
391 0 1 -1 5.916542208117916 4.152790752313602 -1.9930628184971027 0 0 0
387 0 2 1 8.864257236457583 2.6391186157786795 -1.3734179246004385 0 0 0
775 0 1 -1 12.554825333984448 2.7400255756722345 -1.2511273172976396 0 0 0
770 0 2 1 12.618059766730553 5.885309349582676 -0.5874605940368958 0 0 0
1154 0 2 1 18.875079258690292 5.714751418643174 -0.15889046419686803 0 0 0
1159 0 1 -1 18.970662925873192 2.7403485818047244 -0.8231169351781269 0 0 0
2 0 2 1 24.70474395482255 5.707650363104616 -0.9960668652265239 -1 0 0
386 0 3 1 5.826723205665194 6.304773091266119 -0.6965636392249421 0 0 0
99 0 2 1 2.967986061611177 8.767640794604173 -0.7651787902513103 0 0 0
487 0 1 -1 6.121940808693727 8.3889761499279 -1.3469535066301777 0 0 0
390 0 1 -1 9.687851802566126 6.576807118367602 -0.13393618188971335 0 0 0
774 0 1 -1 16.063995954138765 5.979283671151972 -0.984498308716772 0 0 0
1158 0 1 -1 21.66703801095055 5.956666926414694 -0.8487315741772212 0 0 0
1251 0 2 1 22.431825508130373 8.969602108366711 -1.0864745934953413 0 0 0
103 0 1 -1 25.217421200765596 8.82896109717518 -0.3489115595536818 -1 0 0
98 0 2 1 -0.18089952330501202 11.72754842540601 -0.2640379265199013 0 0 0
102 0 1 -1 3.3007440215494075 12.238249960271313 0.0578526559357857 0 0 0
486 0 1 -1 9.148135850029439 12.17869512923087 -0.5085333689663178 0 0 0
871 0 1 -1 12.334229536107449 9.365450891890578 -0.2973722389803717 0 0 0
483 0 2 1 9.485595609670922 9.402424776072174 -0.7853786734724797 0 0 0
867 0 2 1 15.52866881049156 9.398095555201632 -0.8521031727262709 0 0 0
866 0 2 1 12.798464025470974 12.27814313188774 -0.7772897962988845 0 0 0
870 0 1 -1 16.099461155354653 12.204210778843452 -1.680071608594848 0 0 0
1250 0 2 1 19.03563682125166 11.93446231685392 -0.895999170564763 0 0 0
1254 0 1 -1 22.495670788669486 11.875861753777048 -0.27221556562439897 0 0 0
195 0 2 1 2.4210337720270902 15.258905373480845 -0.4537030669929738 0 0 0
583 0 1 -1 5.692695167695812 15.022199541101928 -0.3374771732732116 0 0 0
579 0 2 1 9.270064645370026 15.672414949700544 -0.20380906367833562 0 0 0
967 0 1 -1 12.387219141139518 15.40489092968645 -0.22257688116685914 0 0 0
1351 0 1 -1 19.12237755838602 14.835870280116232 -0.10320064688430453 0 0 0
1347 0 2 1 22.2877840226051 15.056873792189137 -0.5525070500070752 0 0 0
198 0 1 -1 3.2020454797768596 18.670243720774707 -0.29418618886456116 0 0 0
578 0 2 1 6.160964614998032 18.767455161927614 -0.2680235516018761 0 0 0
582 0 1 -1 9.398128816389042 18.369113023574187 -0.19121216326458113 0 0 0
962 0 2 1 12.710284687543806 18.73248525965834 -0.10672753028453652 0 0 0
966 0 1 -1 15.642197184266351 18.62086020578389 -0.7572307043068893 0 0 0
963 0 2 1 16.11706443326826 15.808145855483117 -0.015888209551679022 0 0 0
1348 0 2 1 18.979530458062836 18.930989932606188 -0.5379422385765427 0 0 0
1350 0 1 -1 21.95699375984344 18.92700001780898 -0.22355147982240675 0 0 0
1349 0 1 -1 22.134623857647096 16.732180911741544 -2.744846009332849 0 0 0
199 0 1 -1 25.295162704542868 15.84365587687624 -0.40433501873046573 -1 0 0
194 0 2 1 25.178213381059688 18.82235142827851 -0.9528949261869071 -1 0 0
291 0 2 1 2.9824180541991456 22.264057355699677 -0.10500321693545356 0 0 0
1063 0 1 -1 12.061433582380849 21.812239070048427 -1.19940295682787 0 0 0
1059 0 2 1 14.787272575832416 21.61305224575805 -1.1269496561427208 0 0 0
1447 0 1 -1 19.260354129526288 22.182848813337948 0.11493585635216474 0 0 0
1443 0 3 1 21.866435818260058 21.625770762034286 0.42079820528734135 0 0 0
295 0 1 -1 24.64675068761023 21.834027699561034 0.14067547277795134 -1 0 0
294 0 1 -1 2.679928025819022 25.369218817002228 0.10687702374268993 0 0 0
674 0 3 1 5.148148110058496 25.378404672667116 -0.8139006391606929 0 0 0
677 0 1 -1 6.080766240645341 22.728200708271153 -0.9483738191364828 0 0 0
1058 0 2 1 12.347902245870896 24.863831313785155 -0.9517600218077422 0 0 0
1062 0 1 -1 15.439910118787159 24.89054093292703 -1.0508446361186765 0 0 0
1441 0 2 1 19.066293605210458 22.427599231154126 -2.7190229733623568 0 0 0
290 0 2 1 24.956296226613222 24.774417700338063 -0.04726924911759367 -1 0 0
9 0 2 1 -0.0035743238615417727 1.8245272038865221 2.4717874113342653 0 0 0
679 0 1 -1 6.440637605210064 0.05773614863253429 0.9538688567295179 0 1 0
777 0 2 1 11.807689983641673 2.1947556544496556 2.508572146691579 0 0 0
781 0 1 -1 15.45941789000253 2.162830537666618 2.3599061761711146 0 0 0
1456 0 1 -1 18.86745884527459 0.2566188615214279 2.181277533782205 0 1 0
12 0 2 1 2.0854211839594017 5.444769215248265 2.599486844186538 0 0 0
13 0 1 -1 3.232322719323598 2.638950924112129 2.4857729501723993 0 0 0
393 0 2 1 6.281628966747305 2.802033334201488 2.695434726603178 0 0 0
396 0 3 1 8.231395162085155 5.591953366194864 1.4028975186665322 0 0 0
397 0 1 -1 9.557149268303824 3.838037181996288 2.755688537341327 0 0 0
784 0 1 -1 13.346738939886745 5.6867838199081735 2.3173825439458335 0 0 0
778 0 3 1 15.071092316004803 4.591279250103751 1.56677880278637 0 0 0
1161 0 3 1 18.619098824594396 2.652365090311527 1.7022334579351517 0 0 0
1168 0 1 -1 17.649209012275765 4.81021640303904 2.40828235429555 0 0 0
1165 0 1 -1 20.9630916028667 3.132809736046439 2.4660482833396147 0 0 0
16 0 1 -1 24.690986471265482 5.004704694243788 2.438950922099301 -1 0 0
109 0 1 -1 2.563934143974995 9.058866560915078 2.763499746445919 0 0 0
105 0 2 1 -0.344013403608053 8.24712278640262 2.966395429641371 0 0 0
400 0 1 -1 5.97950665431419 6.426577902933155 1.9182097785481877 0 0 0
493 0 1 -1 9.045468819350123 9.045833908983928 2.6293624503997997 0 0 0
1255 0 1 -1 18.282266345199396 8.693729595330176 0.5779390348539968 0 0 0
780 0 2 1 16.434893907080234 7.635370992726703 2.6662928048672736 0 0 0
1164 0 2 1 21.64644781081156 6.045726740557345 2.616831452259045 0 0 0
1261 0 1 -1 21.89290700931016 9.16034251671074 2.4345900541686145 0 0 0
489 0 2 1 5.851108518038073 9.740766939994986 2.13381153639403 0 0 0
492 0 2 1 9.003708918942701 12.065605984775905 3.178069362856043 0 0 0
873 0 2 1 11.970484095094836 9.342425488465373 2.8397130798061063 0 0 0
880 0 1 -1 12.94249031899351 12.453733869463647 2.156046968676442 0 0 0
876 0 2 1 15.666335348277855 12.235112979295783 3.367123422290242 0 0 0
1264 0 1 -1 18.68664804423896 11.789209204905422 2.43805472208728 0 0 0
1257 0 3 1 19.44337816156087 9.663427147197927 2.7716396551824687 0 0 0
112 0 1 -1 -0.32290936754225896 12.714236789102726 2.6199498747969496 0 0 0
108 0 3 1 2.025492713168125 12.866370114062981 3.0240860380904255 0 0 0
482 0 3 1 5.336231769041079 13.09245200101424 0.6618367215836516 0 0 0
205 0 1 -1 3.028176107894168 15.189341217803964 2.8303407808263694 0 0 0
496 0 1 -1 6.283296915881831 12.7124151887098 2.6994773960203267 0 0 0
589 0 1 -1 9.816740876745897 15.004695383326514 3.2296818544888586 0 0 0
969 0 3 1 12.011881856443091 14.396345189140655 1.7169147535876066 0 0 0
973 0 1 -1 15.543396890176776 15.729667271323331 2.8663235378063243 0 0 0
1353 0 2 1 18.714140536149465 15.363585228266105 3.0070814926889415 0 0 0
1260 0 2 1 22.28003596465273 12.724167482521123 2.50172849002376 0 0 0
201 0 2 1 -0.19683937826750575 16.461740378760396 2.543418580691151 0 0 0
585 0 2 1 6.496646243957596 15.759184556086895 2.7133924431300827 0 0 0
592 0 1 -1 6.296439975789917 18.78969177656092 2.792901544583046 0 0 0
976 0 1 -1 12.418548978047102 18.749623997472177 3.040699634633797 0 0 0
972 0 2 1 15.605912211690935 18.82928705681835 2.776245702270657 0 0 0
1357 0 1 -1 21.822169693375905 16.235667729662296 2.8020184333561815 0 0 0
208 0 1 -1 -0.38837311980672595 19.602933805585742 2.904775427463669 0 0 0
688 0 1 -1 4.88914638121839 22.061389246323664 2.710679233026866 0 0 0
588 0 2 1 9.426165736581432 20.162525312819966 2.67031351128614 0 0 0
1065 0 3 1 12.532926200899494 22.249923466856764 3.1002711163039294 0 0 0
1069 0 1 -1 14.796084022731822 21.529495411528018 2.788256288820998 0 0 0
1360 0 1 -1 18.76409157828553 19.120247998008338 2.1767457925823104 0 0 0
1356 0 2 1 22.119893523560137 19.053212595483465 2.793002624074358 0 0 0
1346 0 3 1 18.926429260862715 21.358257342230168 2.591952747272628 0 0 0
1453 0 1 -1 21.506546888436286 21.95714059506747 2.5814897980293354 0 0 0
297 0 3 1 24.37251247623501 22.170646663241463 2.3291952903479682 -1 0 0
300 0 2 1 4.551087614576453 25.377062531207827 2.826533041148025 0 0 0
675 0 2 1 8.572828329891701 24.098979915136937 0.9708088490048747 0 0 0
685 0 1 -1 8.027213497850656 22.795462136818372 3.5335678230728425 0 0 0
1072 0 1 -1 13.021175494020689 24.655222066455877 2.519431725257297 0 0 0
1068 0 2 1 15.808911747590784 25.384231147007398 2.2274026839826107 0 0 0
1452 0 2 1 21.48020091461709 25.098048952620374 2.5176448296194973 0 0 0
304 0 1 -1 24.81401317713215 24.422323174341294 2.651628778888803 -1 0 0
11 0 2 1 2.8037542588340907 2.1803208115455623 5.954022475146351 0 0 0
302 0 1 -1 6.038542791666402 0.2584325280699985 5.021094696451217 0 1 0
686 0 1 -1 9.273397840969228 -0.07839195507537589 5.839909905928437 0 1 0
1070 0 1 -1 15.656628301509919 -0.47977349925847146 5.381183041982306 0 1 0
1167 0 1 -1 18.53544827619966 2.575901026742876 5.690134073565197 0 0 0
1163 0 2 1 21.685155231724792 2.0753946113579143 5.333670511716107 0 0 0
15 0 1 -1 25.048773562274917 2.5110988604361593 5.773412937466906 -1 0 0
399 0 1 -1 5.471693835965882 3.860592214771037 6.033369217382139 0 0 0
684 0 2 1 8.465818056554173 3.0635243188507824 5.44298821440529 0 1 0
783 0 1 -1 11.78156777006792 2.7154775085330867 5.429410677371131 0 0 0
779 0 2 1 15.616653252051233 2.9789548328965108 5.58801645223927 0 0 0
1162 0 2 1 18.853251900404334 5.46632209941374 5.6300162633728 0 0 0
1166 0 1 -1 22.04530817937841 5.6707526158391985 5.607896615191203 0 0 0
10 0 2 1 25.00508829296781 5.393782057822022 5.742255294639122 -1 0 0
14 0 1 -1 2.3187745468230747 6.3517534129490585 5.744613474545039 0 0 0
394 0 2 1 5.0422608524430625 6.618333721389899 5.041988288523709 0 0 0
404 0 3 1 8.894453980567112 8.48155703401241 4.967638221143368 0 0 0
398 0 1 -1 8.531782593628176 6.215279624855384 5.503925401204572 0 0 0
881 0 2 1 11.583177699850914 5.930821981860541 5.4109028310739475 0 0 0
782 0 1 -1 15.13291268521831 5.911050306090298 6.183890536588768 0 0 0
1263 0 1 -1 18.94055097111457 8.333171936590706 4.601523660566722 0 0 0
1259 0 2 1 22.092968760076744 9.017918697250389 5.507918269189904 0 0 0
111 0 1 -1 25.074233685136086 8.506611961129616 6.233766971618126 -1 0 0
107 0 2 1 2.68605180580779 9.411805382898162 5.95845434859088 0 0 0
110 0 1 -1 1.5269610223476342 12.0459763557408 5.3669107447418085 0 0 0
495 0 1 -1 6.236642007632182 9.323510305413892 5.514326367970364 0 0 0
494 0 1 -1 8.980296590456156 12.41915701997262 6.306914404802042 0 0 0
497 0 3 1 7.545734068683578 10.450927648005045 6.850774081046183 0 0 0
879 0 1 -1 10.99416516164332 9.215889942661255 5.79375874814955 0 0 0
877 0 1 -1 15.01922941416234 9.345597539170477 4.314061937859455 0 0 0
878 0 1 -1 14.520869720153817 12.39115784705171 6.109786025906816 0 0 0
1258 0 2 1 17.88020985049425 10.542242091007392 6.2937488162843795 0 0 0
1262 0 1 -1 22.43309633833808 12.408703727511 5.8080598274570985 0 0 0
203 0 2 1 2.2884758697519403 15.465353170836723 5.714837544748244 0 0 0
490 0 2 1 4.95133705780204 12.971788473979876 5.401201391974233 0 0 0
874 0 2 1 12.032258036792603 13.749609389699351 4.963912126064537 0 0 0
1355 0 2 1 21.879266645660156 15.113878709139922 6.120708362027443 0 0 0
106 0 3 1 24.988441453907726 13.077088928039784 5.183178784556195 -1 0 0
207 0 1 -1 24.917179334684377 15.335594429558965 5.769290942277204 -1 0 0
689 0 2 1 5.912646425904892 18.558210083929445 6.132727266455751 0 0 0
591 0 1 -1 6.465541032099493 15.761690858005268 5.989530786347979 0 0 0
587 0 2 1 9.658311953060519 15.95060998342836 6.177050879745316 0 0 0
975 0 1 -1 12.506601867306458 16.071571381849694 6.621948215027558 0 0 0
971 0 2 1 15.235231577296126 16.031557595939105 6.01227895986727 0 0 0
1359 0 1 -1 18.66017479562715 15.791847531970257 5.783094463016418 0 0 0
1358 0 1 -1 21.70978062753832 18.7543448591383 6.358276950248625 0 0 0
202 0 2 1 24.923542919462395 18.561028524510107 6.0854309681242515 -1 0 0
204 0 2 1 2.5198270080579768 20.8505085661105 3.774254330699141 0 0 0
206 0 1 -1 2.605806066334304 19.138348855980617 6.361970880879493 0 0 0
590 0 1 -1 8.905668319592534 19.1617687610497 6.193935372066093 0 0 0
687 0 1 -1 6.38616408197123 21.693249936451018 6.290696056874522 0 0 0
586 0 3 1 6.326501798753889 20.88540675124606 3.7274636130307863 0 0 0
970 0 2 1 12.50387220238468 19.38331000695117 6.023752969591328 0 0 0
974 0 1 -1 15.651962785698974 19.191788995412246 5.721869479101141 0 0 0
1354 0 2 1 18.60645949370984 19.046298983051052 5.8892577667324115 0 0 0
1455 0 1 -1 18.592973126051547 22.182142599800187 4.848675249177974 0 0 0
1449 0 2 1 21.453232468095845 22.154303398765073 6.217003268523905 0 0 0
303 0 1 -1 24.875555658146922 21.900863411468684 6.8478024985988455 -1 0 0
298 0 2 1 -0.43339497664235427 25.495917877537018 6.342990820281599 0 0 0
301 0 1 -1 2.5463555640410647 25.220032571072053 6.705358844512402 0 0 0
682 0 3 1 4.8994911757054265 25.29901527272024 6.530129348740612 0 0 0
681 0 3 1 7.912571326606287 25.00923167678244 4.241461722024785 0 0 0
1071 0 1 -1 11.8626706173112 22.32406871755923 5.542748844287832 0 0 0
1066 0 2 1 12.163021058473538 25.463643228239697 5.635548303926322 0 0 0
1067 0 2 1 15.27926774452987 22.336923625168005 5.608944006106233 0 0 0
1450 0 2 1 18.718919978617862 25.386691049496086 5.292952689994996 0 0 0
1454 0 1 -1 21.887915392846587 25.201015705137372 5.717518045629118 0 0 0
1080 0 1 -1 12.196882144356692 -0.49280034663607575 8.700884926284427 0 1 0
789 0 1 -1 15.063568308086149 2.4254603843067097 8.908467903254698 0 0 0
1074 0 3 1 14.834865590767695 0.1952197604670196 9.527940658664475 0 1 0
1169 0 2 1 18.852495574802973 2.4428738437153528 8.962380100712279 0 0 0
1464 0 1 -1 18.813653483289816 -0.5552269597327443 9.16820341195179 0 1 0
1173 0 1 -1 21.568780643924672 2.304717124921079 10.017805427028252 0 0 0
1451 0 3 1 21.878648954139276 0.13816324981000216 9.841358436371223 0 1 0
312 0 1 -1 24.030767261522733 -0.4908778283522799 8.921298347666124 -1 1 0
21 0 1 -1 2.166015551396314 3.07785048425499 8.91243420131518 0 0 0
401 0 2 1 5.379003141271393 3.4641861877571687 9.160186663337294 0 0 0
405 0 1 -1 9.001935478585725 3.053607768001724 8.663418786827062 0 0 0
785 0 2 1 11.829649545696904 2.741053773314948 8.369980234853488 0 0 0
788 0 2 1 15.670906452886573 5.56495679710035 9.397934261582776 0 0 0
1176 0 1 -1 18.96551155453072 5.512431985182075 9.005221184857406 0 0 0
1172 0 2 1 21.8867169511824 5.462014041424822 8.930072139120522 0 0 0
17 0 2 1 25.031591764512893 2.7841515429802417 9.676041232923321 -1 0 0
24 0 1 -1 25.031240321884948 5.659650830199374 9.190517132520565 -1 0 0
20 0 2 1 2.334301024558183 6.148225777164883 8.56732305516665 0 0 0
408 0 1 -1 5.926515336927084 6.984670620868685 9.024421438181493 0 0 0
491 0 3 1 5.741502559860208 9.153785927772653 9.098552354906367 0 0 0
395 0 2 1 9.324789663083138 6.338176418896478 8.261591271170492 0 0 0
875 0 2 1 14.075581354611378 8.889408464195158 7.401886628684448 0 0 0
792 0 1 -1 12.591129180259406 6.18394701089775 8.844961993046255 0 0 0
885 0 1 -1 17.038174803273943 9.132862487631241 8.912454620691255 0 0 0
1269 0 1 -1 21.612412466264843 8.744911744860525 9.190872680427136 0 0 0
1265 0 3 1 19.029904015015916 8.111470714618585 9.44245447969111 0 0 0
113 0 2 1 24.613981605123765 8.767279939158318 9.180020159180533 -1 0 0
117 0 1 -1 2.2686070929514157 9.215822496095795 9.201270458960416 0 0 0
116 0 2 1 2.565531914480863 12.419856309362121 9.105602422687431 0 0 0
504 0 1 -1 5.703389182603235 11.635461762021366 8.15610806705184 0 0 0
501 0 1 -1 8.525247580606495 9.709841407319148 8.950313234275804 0 0 0
500 0 3 1 10.381849096964242 10.890690136869498 7.969477196342149 0 0 0
1268 0 2 1 21.64620395796379 12.145312346827245 9.614812985501235 0 0 0
120 0 1 -1 25.255995555187358 12.450919907241317 9.958081761641594 -1 0 0
593 0 2 1 7.931908382546736 13.529226210352657 8.837348571549503 0 0 0
888 0 1 -1 11.9229556261244 12.617558884461333 8.39637151727426 0 0 0
884 0 2 1 15.219127298055863 13.38147525633275 8.896317378643765 0 0 0
1272 0 1 -1 18.47286385722826 13.094262942222457 9.192744620937203 0 0 0
1365 0 1 -1 21.741842860566695 15.662105627332858 9.36658860162197 0 0 0
209 0 2 1 24.701676479745043 15.5248232909164 9.299512427400412 -1 0 0
213 0 1 -1 2.515109044606799 15.760804613590226 8.602949908881143 0 0 0
216 0 1 -1 0.05416168010723166 18.75420684368268 9.390851907768068 0 0 0
212 0 2 1 2.878817636004857 18.55483638013225 9.274484126094428 0 0 0
597 0 1 -1 9.38957664350682 16.16701529790975 9.18312450110349 0 0 0
977 0 3 1 11.81816351639364 16.71783788189471 9.135528476913322 0 0 0
981 0 1 -1 15.529977967964115 16.250597818256864 9.288543244589086 0 0 0
1361 0 2 1 18.633423248565368 15.771404488448857 8.969535463836323 0 0 0
305 0 3 1 0.49725671281156447 21.082354668176905 9.13995805730735 0 0 0
309 0 1 -1 2.71875440956907 21.881103268252623 9.505637401487588 0 0 0
600 0 1 -1 5.962135225769042 19.23140410339075 9.325860852499092 0 0 0
308 0 2 1 5.982257394081724 22.210369585943205 9.136836241685748 0 0 0
683 0 3 1 8.131875212108252 20.892542431506726 7.322392582174857 0 0 0
596 0 2 1 9.007193150846735 19.22141318883441 9.605201960604738 0 0 0
693 0 1 -1 9.088520955384826 22.072993718501166 9.284205976187927 0 0 0
984 0 1 -1 12.104187806979784 19.753410785138065 9.214329312933454 0 0 0
980 0 2 1 15.033012608553934 19.336956586035022 9.481760800571221 0 0 0
1368 0 1 -1 18.322145316564335 19.162068236416026 8.749288860879917 0 0 0
1364 0 2 1 21.539967614712978 19.14868202009078 9.138772841458572 0 0 0
1461 0 1 -1 21.895109007341354 22.25003938378176 9.186842471638094 0 0 0
299 0 3 1 2.941680143430813 24.486994814630407 9.063185777387433 0 0 0
696 0 1 -1 5.547642446751167 25.254655447714313 8.829281059789276 0 0 0
692 0 2 1 8.606994906915437 25.47767019990947 9.152977653416897 0 0 0
1076 0 2 1 12.859038834411972 22.59501765793211 8.712510318859922 0 0 0
1077 0 1 -1 15.962433033969262 22.512102279377125 8.681665744618828 0 0 0
1457 0 3 1 17.022331697712694 24.19031781552667 9.449757116301015 0 0 0
1460 0 3 1 19.57911152287631 23.404433907781616 9.172309582572453 0 0 0
306 0 3 1 23.992099069155415 23.05492218591168 8.76509586413921 -1 0 0
23 0 1 -1 -0.40719373263299374 2.165410778688541 12.8509955653441 0 0 0
19 0 2 1 2.7381681919837497 2.4288909141807644 12.264068556647235 0 0 0
694 0 1 -1 9.108304278693046 -0.4250138515350457 12.440762091420561 0 1 0
1073 0 2 1 12.246077713781697 -0.11355553594401835 12.060847685867069 0 1 0
1458 0 2 1 18.886455666506418 -0.36873753585853125 12.633376808691457 0 1 0
1462 0 1 -1 21.85043198294047 -0.5325920655503797 12.093134765888735 0 1 0
22 0 1 -1 2.6046586149464326 5.8570368057361835 12.025906205051085 0 0 0
407 0 1 -1 5.663803463086156 2.881120428724044 11.985786090815528 0 0 0
403 0 2 1 8.921069054154144 3.3848665136788085 11.663089748953741 0 0 0
791 0 1 -1 13.286907377998629 3.1055620473477266 12.319412769018923 0 0 0
787 0 3 1 15.65524965333583 3.728853951195605 12.208354540553438 0 0 0
1175 0 1 -1 17.880187947761517 3.2485541748988163 12.279040974181559 0 0 0
790 0 1 -1 15.740431004524972 5.85088428897334 12.463852576783946 0 0 0
1174 0 1 -1 21.935390597598328 5.429663785868978 12.302566412546344 0 0 0
18 0 2 1 25.193455601427296 5.6825001504767805 12.711675231726183 -1 0 0
115 0 2 1 2.5089746808039775 8.746895276408692 12.414566384910978 0 0 0
402 0 2 1 5.658961489662887 6.316722284501415 11.863114654060398 0 0 0
406 0 1 -1 9.123708814076712 6.016398814117068 12.015205639990393 0 0 0
786 0 2 1 12.39182424505314 6.318776883887571 12.516837232069289 0 0 0
1271 0 1 -1 18.47709855463767 8.92244922137637 11.77655416347623 0 0 0
1170 0 2 1 18.981659284798745 6.106325225568252 12.203956943458795 0 0 0
1267 0 2 1 21.494744365846376 9.062358480389571 12.681020107614891 0 0 0
118 0 1 -1 2.4567253249519383 12.282663575560841 12.515116553080608 0 0 0
503 0 1 -1 5.872629697972473 9.330616879726048 12.288965287483895 0 0 0
498 0 2 1 5.603348849801363 12.227702086890881 12.622269684251314 0 0 0
499 0 2 1 8.889518165210598 9.473503167042637 12.229660491907927 0 0 0
887 0 1 -1 11.986927490427123 10.200183141815224 12.648335502208798 0 0 0
883 0 3 1 14.268426037024996 10.044261019926417 12.904655096340369 0 0 0
886 0 1 -1 15.386669356185676 11.763605102895298 11.418512416801462 0 0 0
1266 0 3 1 17.29259406716289 10.958391858012991 10.3058625435118 0 0 0
119 0 1 -1 24.971775312017463 9.213280043515628 12.332614462831348 -1 0 0
114 0 3 1 25.25548738626971 11.64055821142761 12.199122632786077 -1 0 0
1270 0 1 -1 22.5828536730085 12.160091061420685 12.515668277120206 0 0 0
502 0 1 -1 8.905141450859723 12.843566170619031 12.01446166088463 0 0 0
882 0 2 1 12.225063065703486 13.175766683777162 11.872976613769252 0 0 0
211 0 2 1 2.717521880011793 15.761459306210474 12.189429125352614 0 0 0
599 0 1 -1 5.8076400361955525 15.834473569866914 13.112503033157594 0 0 0
595 0 2 1 9.19989587691604 15.860615585266453 12.102470746529423 0 0 0
594 0 2 1 6.178441656400194 19.011713946519116 12.526388831654405 0 0 0
983 0 1 -1 12.549811752523867 16.09878401263147 11.49034639259892 0 0 0
978 0 2 1 12.692136219602903 18.984936837620808 12.659961172944236 0 0 0
979 0 2 1 15.885817329300163 16.155565074706182 12.208505347156436 0 0 0
1367 0 1 -1 18.74367288089146 16.54959783738186 11.988320922355777 0 0 0
1363 0 2 1 21.677968389876032 15.812677951243836 12.391908017043495 0 0 0
215 0 1 -1 25.166550946972823 15.959965625424447 12.476205353691716 -1 0 0
210 0 2 1 -0.2864355858214295 19.05113287705298 12.057298513782678 0 0 0
214 0 1 -1 2.768551018754986 19.082584745448905 12.525250037272668 0 0 0
307 0 2 1 2.5738554597404906 21.922663849793693 12.592786370196192 0 0 0
695 0 1 -1 6.0139196906621235 22.19657946879162 12.460769243269494 0 0 0
598 0 1 -1 9.594759441608272 19.20512290216258 12.546674628884253 0 0 0
1075 0 2 1 15.606401205818237 22.24236232930128 11.882993248108322 0 0 0
982 0 1 -1 15.957504597750969 19.20366548003284 12.115298859649243 0 0 0
1463 0 1 -1 18.60198480959808 22.28459571009155 11.23824533016346 0 0 0
1362 0 2 1 19.465364644794406 19.64905701143995 11.642262416085606 0 0 0
1366 0 1 -1 22.432178095957656 19.066927000919215 12.269710217449425 0 0 0
1459 0 2 1 22.755163281937214 22.22421214848132 12.117538147155512 0 0 0
310 0 1 -1 2.7315335163424317 25.361872027055384 11.455816497126174 0 0 0
690 0 2 1 5.447855585630212 25.331944470610985 12.69867129985202 0 0 0
691 0 2 1 9.587029023045575 22.36605085202263 12.193401669829733 0 0 0
1079 0 1 -1 12.421472000350974 22.400211529290374 12.58825539116652 0 0 0
1078 0 1 -1 15.634339370174931 25.27622012470208 11.289641241535096 0 0 0
1171 0 2 1 25.2419133537472 25.484389608042562 11.952910908075257 0 -1 0
311 0 1 -1 25.31530917977514 22.75835818450672 10.683361614443887 -1 0 0
25 0 3 1 0.7383011503169234 1.55551962737656 14.809711479581619 0 0 0
29 0 1 -1 3.028649505202378 1.838951385168754 15.204257843087458 0 0 0
316 0 3 1 3.425075218480971 -0.3330221317155693 15.770255269688668 0 1 0
704 0 1 -1 5.72304294639788 -0.47608394728394776 15.569503050463094 0 1 0
409 0 2 1 6.194426704952973 2.2713928937372927 15.58364748728631 0 0 0
1088 0 1 -1 12.23181486079549 -0.533300712504719 16.430257036398356 0 1 0
1084 0 3 1 14.831557457267134 0.2105110272366426 16.10866115302689 0 1 0
1177 0 2 1 17.779993734763192 2.425174554230803 15.233266028836066 0 0 0
1181 0 1 -1 20.869402352023386 2.325691371750059 16.07647992605471 0 0 0
320 0 1 -1 25.13827724866265 -0.42375345669119013 15.381307865398433 -1 1 0
1468 0 2 1 22.306959068798434 -0.3986883449786537 14.903933170694739 0 1 0
416 0 1 -1 5.67164118830207 5.775644187345891 15.203568625996741 0 0 0
413 0 1 -1 10.303390925113428 2.6283618178972636 14.64740163832489 0 0 0
800 0 1 -1 12.342269713761384 5.836464789524465 15.239632048788412 0 0 0
794 0 3 1 12.90065404831371 3.3726465182634326 14.854727355982206 0 0 0
797 0 1 -1 14.793321923263125 2.9399090484386705 16.13473696517572 0 0 0
1184 0 1 -1 18.583081682118898 5.7118799543341074 15.897589009136443 0 0 0
28 0 2 1 2.643670591338556 6.083189299341511 15.354050601281262 0 0 0
412 0 2 1 8.783945048362229 5.923140174540629 15.462828893567828 0 0 0
889 0 2 1 12.030799753787592 9.15119877365018 15.577026443073994 0 0 0
796 0 2 1 15.643138121531468 6.115439312243652 15.851325921870568 0 0 0
1273 0 2 1 18.88968668686256 8.888452070724226 15.776669362059582 0 0 0
1277 0 1 -1 21.707928296287104 9.095395716102749 15.556839509850242 0 0 0
32 0 1 -1 25.20853194162285 6.598786991329278 15.43528956692671 -1 0 0
1180 0 2 1 22.231324655825727 6.148116203038676 15.748759074650525 0 0 0
125 0 1 -1 2.629149640263503 9.437208897558198 15.54771004497568 0 0 0
505 0 2 1 5.747748049600114 9.474073843497969 15.696391241914732 0 0 0
509 0 1 -1 8.878130304298386 9.272876657590007 15.481414884404586 0 0 0
512 0 1 -1 6.43436986311626 12.460172601996577 15.732202673210296 0 0 0
893 0 1 -1 15.395355279432655 9.336736674030256 14.432274852346541 0 0 0
892 0 2 1 16.19200814304053 12.432132111015514 14.680465909837704 0 0 0
121 0 2 1 25.22658848347672 9.763558026509559 15.66625435145415 -1 0 0
124 0 2 1 2.4830969804177645 13.229004089300897 15.148038046329283 0 0 0
219 0 3 1 -0.254783268379434 15.375521620344015 14.542916686642531 0 0 0
601 0 3 1 6.6060966493350834 15.301024740401184 15.833058288677886 0 0 0
508 0 2 1 9.738861644294264 12.508545283128937 15.613974402344589 0 0 0
896 0 1 -1 13.155758523878472 12.616194217013712 15.41949342736298 0 0 0
985 0 2 1 12.496680208992872 15.588171223387372 15.375733843018018 0 0 0
1369 0 2 1 18.75749510552341 15.526303958440058 15.506720825552467 0 0 0
1280 0 1 -1 19.149088541420593 12.621575355906309 15.336463213619837 0 0 0
128 0 1 -1 25.359242613093468 12.829012698917236 15.6116380830499 -1 0 0
1276 0 2 1 22.2712071202349 12.710775139944614 15.32455516189718 0 0 0
221 0 1 -1 1.5042880813711559 15.973901572964978 15.622950347819042 0 0 0
220 0 2 1 2.8237030979827424 18.84976138880598 15.63150717591439 0 0 0
605 0 1 -1 8.868952281340185 15.806760335577499 15.263635782070821 0 0 0
604 0 2 1 9.283387521279934 18.71991365515767 15.758674412296926 0 0 0
992 0 1 -1 12.515834280371754 18.427429376469632 15.822793874012266 0 0 0
989 0 1 -1 15.598282156342336 15.803540164391363 15.4608161573274 0 0 0
1376 0 1 -1 18.99722258562587 18.983375487559492 15.027100600763472 0 0 0
1373 0 1 -1 22.833675529242438 15.984015253289543 15.262340071319713 0 0 0
224 0 1 -1 0.04374198819641889 19.908278669509187 15.154025927575919 0 0 0
608 0 1 -1 6.31064196365134 19.385536311333155 15.919587840463809 0 0 0
701 0 1 -1 9.779305787752515 22.270482791535798 15.631722208660136 0 0 0
1081 0 2 1 13.154414504178893 21.824302903181184 15.667531584061013 0 0 0
988 0 3 1 17.10407132856652 20.05077492026267 14.50631108576102 0 0 0
1085 0 1 -1 16.377915070856723 22.196249041450535 15.35714469944849 0 0 0
1372 0 2 1 22.63080120784188 19.091772168199505 15.483520922076124 0 0 0
1469 0 1 -1 22.408061993893345 21.97637679307425 15.256299954766753 0 0 0
313 0 2 1 -0.141661455586366 23.030465954304148 15.568999984555294 0 0 0
317 0 1 -1 3.069584214721726 23.352767427441798 15.445983699848309 0 0 0
697 0 2 1 6.981874680629424 22.46851056487514 15.730166592916266 0 0 0
700 0 2 1 9.35655626731252 25.394085634476355 15.39412831677696 0 0 0
1472 0 1 -1 18.666927648187528 25.447539819066115 15.47552522607348 0 0 0
1465 0 2 1 19.26928076319587 22.54785068373552 16.23041505429741 0 0 0
31 0 1 -1 -0.2773042913854676 2.4833229418701825 19.43550594001436 0 0 0
27 0 2 1 2.5948932135952454 2.4181312679760163 18.932825320295017 0 0 0
314 0 2 1 -0.37217907642902615 -0.44377238571627864 18.992232352633277 0 1 0
318 0 1 -1 2.7348521094776324 -0.05454285653912083 18.05798778288598 0 1 0
698 0 2 1 6.086505977142625 0.025222606777407064 19.449734799610063 0 1 0
799 0 1 -1 11.21826037674303 2.3840550278918275 18.854704788776424 0 0 0
793 0 3 1 11.274077815692477 0.22478284137587867 18.335989365368235 0 0 0
1086 0 1 -1 15.955035318275826 -0.45137625090126743 17.90028257308131 0 1 0
1092 0 2 1 16.194635975548017 2.011375811613657 19.423187908458317 0 1 0
1466 0 2 1 18.95698828276285 -0.5965368827336449 18.59882792193022 0 1 0
1183 0 1 -1 19.259220014704752 2.4639106915173654 19.168008710548907 0 0 0
1179 0 2 1 22.158852705830544 2.157581511225389 18.76671955047116 0 0 0
30 0 1 -1 2.5981300831157683 5.417719821610465 18.53249642223184 0 0 0
411 0 3 1 9.230030414766935 3.4909105184445117 19.536950055156282 0 0 0
415 0 1 -1 6.9567590403104695 3.0195519391044434 18.385316839681472 0 0 0
410 0 3 1 6.881963095341095 5.476523715050518 18.993800750344555 0 0 0
414 0 1 -1 9.230164421049883 5.871916241274355 18.930036885609887 0 0 0
801 0 2 1 12.490507692505979 5.180092420131497 18.76793897141607 0 0 0
798 0 1 -1 15.477920320544237 5.354149598964121 19.030410409275863 0 0 0