LAMMPS (29 Sep 2021 - Update 3)
OMP_NUM_THREADS environment is not set. Defaulting to 1 thread. (src/comm.cpp:98)
  using 1 OpenMP thread(s) per MPI task
units	metal
atom_style	full

read_data	mixed.data
Reading data file ...
  orthogonal box = (0.0000000 0.0000000 0.0000000) to (15.866041 15.852264 77.123517)
  2 by 1 by 8 MPI processor grid
  reading atoms ...
  864 atoms
Finding 1-2 1-3 1-4 neighbors ...
  special bond factors lj:    0        0        0       
  special bond factors coul:  0        0        0       
     0 = max # of 1-2 neighbors
     0 = max # of 1-3 neighbors
     0 = max # of 1-4 neighbors
     1 = max # of special neighbors
  special bonds CPU = 0.001 seconds
  read_data CPU = 0.009 seconds

pair_style	quip
pair_coeff	* * /ocean/projects/cts180021p/wuziqi/clease/mint-PD/PhaseDiagram-Clease/Liquid/GAP_potential/gap_LiKCl.xml "Potential xml_label=GAP_2021_9_27_0_1_17_37_618" 17 19 3

neighbor	0.3 bin
neigh_modify	delay 10

timestep	0.001
compute	msd all msd
thermo_style	custom step temp pe etotal press vol c_msd[4]
thermo	10
dump	1 all custom 10 xyz-mix.dump type id x y z
dump	2 all custom 10 force-mix.dump type id fx fy fz

fix     1 all nve
run     2000
Neighbor list info ...
  update every 1 steps, delay 10 steps, check yes
  max neighbors/atom: 2000, page size: 100000
  master list distance cutoff = 6.22
  ghost atom cutoff = 6.22
  binsize = 3.11, bins = 6 6 25
  1 neighbor lists, perpetual/occasional/extra = 1 0 0
  (1) pair quip, perpetual
      attributes: full, newton on
      pair build: full/bin
      stencil: full/bin/3d
      bin: standard
Per MPI rank memory allocation (min/avg/max) = 8.889 | 8.906 | 8.916 Mbytes
Step Temp PotEng TotEng Press Volume c_msd[4] 
       0            0   -8878.9247   -8878.9247   -11708.833    19397.542            0 
      10    108.80145    -8891.078    -8878.941   -13519.947    19397.542 0.00037756483 
      20    255.99871   -8907.5101   -8878.9531   -15433.074    19397.542  0.004636157 
      30    288.56988   -8911.1358   -8878.9454   -14361.122    19397.542  0.015943357 
      40    289.10053   -8911.1934   -8878.9438   -12512.136    19397.542  0.032214776 
      50    304.26419   -8912.8839   -8878.9428   -12190.839    19397.542  0.050010352 
      60    330.67215   -8915.8353   -8878.9484    -12512.07    19397.542  0.067008738 
      70    319.75479    -8914.613   -8878.9439   -12021.554    19397.542  0.084636553 
      80     311.7171   -8913.7131   -8878.9406   -11242.174    19397.542   0.10335882 
      90    344.97025   -8917.4272   -8878.9452   -11377.847    19397.542   0.12285636 
     100    369.47631   -8920.1625   -8878.9469   -11460.202    19397.542   0.14373353 
     110    369.44402   -8920.1551   -8878.9431   -10737.559    19397.542   0.16547428 
     120    381.04496   -8921.4513   -8878.9452   -10101.733    19397.542   0.18697263 
     130    387.01967   -8922.1174   -8878.9447    -9853.945    19397.542   0.20927079 
     140    390.46305   -8922.5002   -8878.9434   -10154.629    19397.542   0.23274757 
     150    401.17379   -8923.6966   -8878.9451   -10935.233    19397.542   0.25686229 
     160    405.60936   -8924.1923    -8878.946   -11533.497    19397.542   0.28181117 
     170    403.00983   -8923.9035   -8878.9472   -11313.905    19397.542   0.30705714 
     180    385.93942   -8921.9971   -8878.9449   -10395.352    19397.542   0.33328028 
     190    384.55592   -8921.8429   -8878.9451   -9702.4152    19397.542    0.3615061 
     200    397.89654   -8923.3338   -8878.9478   -9508.3306    19397.542   0.39138176 
     210    403.74057   -8923.9838    -8878.946   -9854.3562    19397.542   0.41959204 
     220    419.25516   -8925.7147   -8878.9462   -11120.155    19397.542   0.44190424 
     230    437.64496   -8927.7678   -8878.9478   -12741.979    19397.542   0.46059951 
     240    436.22365   -8927.6096   -8878.9482   -13773.271    19397.542   0.48016288 
     250     417.4692   -8925.5154   -8878.9461   -14188.084    19397.542   0.50051511 
     260    403.07006   -8923.9093   -8878.9463   -14452.366    19397.542   0.51954432 
     270    390.78955   -8922.5388   -8878.9456   -14869.677    19397.542   0.53842732 
     280    390.91941   -8922.5534   -8878.9458   -15753.944    19397.542   0.55789535 
     290    394.53071   -8922.9579   -8878.9474   -16866.473    19397.542   0.57907365 
     300    385.46639   -8921.9447   -8878.9454   -17556.881    19397.542   0.60332818 
     310    388.07639   -8922.2367   -8878.9462   -18102.563    19397.542   0.62988844 
     320    395.22438   -8923.0346   -8878.9467   -18476.923    19397.542   0.65693198 
     330     392.7193   -8922.7554    -8878.947   -18634.964    19397.542   0.68294096 
     340    387.36548    -8922.158   -8878.9468   -18928.114    19397.542    0.7064488 
     350    383.70376     -8921.75   -8878.9472   -19255.038    19397.542   0.72809194 
     360    380.16279   -8921.3526   -8878.9449   -19764.905    19397.542   0.74756432 
     370    391.53302   -8922.6238   -8878.9477   -20433.416    19397.542   0.76345228 
     380    397.18733   -8923.2529   -8878.9461   -20848.612    19397.542   0.77799013 
     390    399.66038   -8923.5327     -8878.95   -20962.623    19397.542    0.7926845 
     400    376.74168   -8920.9703   -8878.9442   -20594.318    19397.542   0.80792627 
     410    384.01385   -8921.7861   -8878.9488   -20827.442    19397.542   0.82090067 
     420    385.42711   -8921.9432   -8878.9482    -21282.02    19397.542   0.83289421 
     430    375.82197   -8920.8694   -8878.9459   -21749.833    19397.542   0.84474346 
     440    377.40301   -8921.0478   -8878.9479   -22280.425    19397.542   0.85654263 
     450    373.39276   -8920.5987   -8878.9462   -22358.315    19397.542   0.87121917 
     460    380.55104   -8921.3982   -8878.9472   -22127.174    19397.542   0.88923864 
     470    389.08947   -8922.3531   -8878.9496   -21563.629    19397.542   0.90990069 
     480    377.88025   -8921.0989   -8878.9458   -20903.426    19397.542   0.93174236 
     490    381.74982   -8921.5319   -8878.9472   -20620.986    19397.542   0.94962563 
     500    394.14575   -8922.9156   -8878.9481   -20486.731    19397.542   0.96309083 
     510    397.04898   -8923.2389   -8878.9475   -19997.235    19397.542   0.97658553 
     520    399.82595   -8923.5491    -8878.948   -19535.484    19397.542   0.99241283 
     530    404.27704   -8924.0446   -8878.9469    -19115.46    19397.542    1.0084992 
     540     411.3451   -8924.8362     -8878.95   -18661.849    19397.542    1.0226069 
     550    394.09812   -8922.9082    -8878.946   -17821.103    19397.542    1.0374953 
     560    386.81962   -8922.0987   -8878.9484   -17144.624    19397.542    1.0531551 
     570    383.04436   -8921.6747   -8878.9456   -16711.306    19397.542    1.0690946 
     580    397.22268   -8923.2587   -8878.9479   -16702.646    19397.542    1.0866029 
     590    408.28446   -8924.4929   -8878.9481   -16623.668    19397.542    1.1074158 
     600    405.74477   -8924.2095   -8878.9481   -16314.107    19397.542    1.1302748 
     610    396.02325   -8923.1251   -8878.9481    -15628.66    19397.542    1.1519665 
     620     395.3341   -8923.0495   -8878.9494   -15051.831    19397.542    1.1694303 
     630    394.27036   -8922.9318   -8878.9503   -14512.907    19397.542    1.1828305 
     640    383.62649   -8921.7417   -8878.9476   -14067.198    19397.542    1.1945401 
     650    385.14193   -8921.9112    -8878.948   -13839.463    19397.542    1.2068311 
     660     395.4713   -8923.0651   -8878.9497   -13755.797    19397.542    1.2218962 
     670     396.9724   -8923.2312   -8878.9483   -13681.042    19397.542    1.2411479 
     680    400.76426   -8923.6562   -8878.9504   -13529.754    19397.542    1.2649597 
     690    395.59922   -8923.0782   -8878.9485   -13202.541    19397.542    1.2892968 
     700    393.08673   -8922.7984    -8878.949    -12863.36    19397.542    1.3108518 
     710    392.46287   -8922.7295   -8878.9497   -12776.215    19397.542    1.3306314 
     720    392.69983   -8922.7538   -8878.9476   -12960.731    19397.542    1.3493343 
     730    407.70626    -8924.431   -8878.9507   -13617.908    19397.542    1.3652761 
     740    418.60831   -8925.6458   -8878.9494   -14182.857    19397.542    1.3758719 
     750    427.35697   -8926.6222   -8878.9499   -14411.802    19397.542    1.3817369 
     760    426.23067   -8926.4956    -8878.949   -14240.457    19397.542    1.3874968 
     770    425.68986   -8926.4355   -8878.9492   -14121.142    19397.542    1.3956033 
     780    424.34662   -8926.2861   -8878.9496   -14199.692    19397.542    1.4059418 
     790    416.51178   -8925.4118   -8878.9493   -14348.579    19397.542    1.4172819 
     800    406.85203   -8924.3329   -8878.9479   -14603.708    19397.542    1.4293586 
     810     409.3926   -8924.6176   -8878.9492   -14954.594    19397.542    1.4437899 
     820    411.52943   -8924.8561   -8878.9494   -15227.004    19397.542     1.461671 
     830    414.76526   -8925.2161   -8878.9484   -15348.177    19397.542    1.4822988 
     840    425.47297   -8926.4126   -8878.9505   -15497.059    19397.542    1.5061095 
     850    424.10961   -8926.2589   -8878.9489    -15461.05    19397.542    1.5339208 
     860    425.84903   -8926.4531    -8878.949   -15668.017    19397.542    1.5638872 
     870    428.28778   -8926.7265   -8878.9503   -15975.954    19397.542    1.5941429 
     880    422.32484   -8926.0597   -8878.9487   -16050.391    19397.542    1.6254163 
     890    420.59441   -8925.8681   -8878.9502   -16210.368    19397.542    1.6579317 
     900    412.78354   -8924.9958   -8878.9492   -16186.118    19397.542    1.6917804 
     910    408.88335   -8924.5603   -8878.9488   -16398.021    19397.542    1.7253326 
     920    415.25495   -8925.2723     -8878.95   -16866.947    19397.542    1.7566903 
     930    417.79568   -8925.5555   -8878.9498    -17314.63    19397.542    1.7866576 
     940    414.15774   -8925.1502   -8878.9503   -17816.895    19397.542    1.8175362 
     950    410.14766   -8924.7024   -8878.9498   -18397.528    19397.542     1.850555 
     960    412.13206   -8924.9218   -8878.9478   -18864.984    19397.542    1.8837942 
     970    427.90234   -8926.6835   -8878.9503   -19165.223    19397.542    1.9147148 
     980    431.11936    -8927.043    -8878.951    -19021.79    19397.542    1.9457246 
     990    415.64991   -8925.3145   -8878.9482   -18606.767    19397.542    1.9812421 
    1000    413.92707   -8925.1233   -8878.9491   -18513.829    19397.542    2.0201072 
    1010    417.45395   -8925.5177     -8878.95   -18558.895    19397.542    2.0574524 
    1020    414.66605   -8925.2045   -8878.9479    -18540.13    19397.542    2.0909232 
    1030    425.32279   -8926.3944    -8878.949   -18804.281    19397.542    2.1200334 
    1040    437.39791    -8927.743   -8878.9506    -19174.44    19397.542    2.1461906 
    1050    432.04437    -8927.144   -8878.9488   -19430.964    19397.542    2.1724444 
    1060    423.10855   -8926.1471   -8878.9487    -19670.97    19397.542     2.200914 
    1070    416.30819    -8925.389   -8878.9492   -19752.208    19397.542     2.232564 
    1080    410.19009   -8924.7058   -8878.9485   -19471.789    19397.542    2.2656179 
    1090    411.43188   -8924.8454   -8878.9496   -18927.842    19397.542    2.2963807 
    1100    413.58688   -8925.0849   -8878.9486   -18540.027    19397.542    2.3238349 
    1110    425.71996   -8926.4384   -8878.9486   -18620.545    19397.542    2.3474636 
    1120    443.01807   -8928.3709   -8878.9516   -18883.908    19397.542    2.3679172 
    1130    437.42575   -8927.7454   -8878.9499   -18767.479    19397.542    2.3882255 
    1140    422.48256   -8926.0773   -8878.9487   -18476.767    19397.542    2.4089666 
    1150    414.07643   -8925.1393   -8878.9485   -18282.798    19397.542    2.4284943 
    1160    416.01416   -8925.3558   -8878.9488   -18291.885    19397.542     2.446853 
    1170    419.66714   -8925.7642   -8878.9497   -18446.717    19397.542    2.4644412 
    1180    424.21945   -8926.2706   -8878.9483    -18449.36    19397.542    2.4806419 
    1190    440.19598   -8928.0557   -8878.9512   -18343.062    19397.542    2.4945267 
    1200    440.38662   -8928.0752   -8878.9494   -17908.359    19397.542     2.507228 
    1210    440.40752   -8928.0774   -8878.9493   -17509.071    19397.542    2.5196997 
    1220    445.29341   -8928.6232   -8878.9501   -17433.008    19397.542    2.5321836 
    1230    444.31811   -8928.5138   -8878.9494   -17404.254    19397.542    2.5456285 
    1240    444.21916   -8928.5028   -8878.9495   -17567.287    19397.542    2.5617678 
    1250    447.95301   -8928.9197   -8878.9499   -17998.888    19397.542    2.5810013 
    1260    447.05056     -8928.82   -8878.9509   -18113.089    19397.542    2.6027835 
    1270    433.76409   -8927.3363   -8878.9493   -17647.746    19397.542    2.6267411 
    1280    426.49744   -8926.5249   -8878.9485   -17215.404    19397.542    2.6522665 
    1290    438.76938   -8927.8949   -8878.9495   -17215.004    19397.542     2.679609 
    1300     454.8554   -8929.6913   -8878.9515   -17412.029    19397.542    2.7096074 
    1310    451.74789   -8929.3435   -8878.9504   -17515.094    19397.542    2.7419599 
    1320    440.03726   -8928.0361   -8878.9493    -17582.78    19397.542    2.7732724 
    1330    433.51813    -8927.309   -8878.9494   -17627.787    19397.542    2.7991894 
    1340    430.66307   -8926.9918   -8878.9507   -17406.648    19397.542    2.8192899 
    1350    422.06307   -8926.0311   -8878.9493    -17030.68    19397.542    2.8369839 
    1360    423.68793   -8926.2128   -8878.9498   -16872.793    19397.542    2.8564726 
    1370    432.23825   -8927.1671   -8878.9502   -16941.721    19397.542    2.8798412 
    1380    440.61409   -8928.1014   -8878.9502   -17160.411    19397.542     2.904214 
    1390    442.38617   -8928.3005   -8878.9516   -17288.698    19397.542    2.9262872 
    1400    432.82497   -8927.2303    -8878.948   -17111.965    19397.542    2.9462931 
    1410    443.20721   -8928.3906   -8878.9502   -17379.272    19397.542    2.9656964 
    1420     452.8574   -8929.4692   -8878.9523   -17581.285    19397.542    2.9866189 
    1430    440.33742   -8928.0699   -8878.9496    -17078.18    19397.542    3.0107644 
    1440    434.09539   -8927.3728   -8878.9488   -16559.852    19397.542    3.0372306 
    1450    446.59797     -8928.77   -8878.9513   -16458.202    19397.542    3.0634597 
    1460    455.16552   -8929.7248   -8878.9504   -16509.198    19397.542    3.0883146 
    1470     460.5176    -8930.323   -8878.9516   -16639.411    19397.542    3.1117695 
    1480    455.78137    -8929.792   -8878.9489   -16643.605    19397.542    3.1332037 
    1490    461.66937   -8930.4506   -8878.9507   -16632.215    19397.542     3.152331 
    1500    464.06114   -8930.7172   -8878.9504   -16316.323    19397.542    3.1724877 
    1510    464.69685   -8930.7871   -8878.9495    -16148.36    19397.542    3.1960897 
    1520    471.22077   -8931.5167   -8878.9514   -16208.841    19397.542    3.2225013 
    1530    471.47122   -8931.5429   -8878.9496   -16597.639    19397.542    3.2496574 
    1540    479.04999   -8932.3903   -8878.9516   -17340.131    19397.542    3.2743864 
    1550    475.60674   -8932.0055   -8878.9508   -17872.304    19397.542    3.2971604 
    1560    465.76065   -8930.9064   -8878.9501   -17822.552    19397.542    3.3221892 
    1570    460.06152    -8930.271   -8878.9505    -17442.47    19397.542    3.3512444 
    1580    459.40082   -8930.1971   -8878.9502   -16941.542    19397.542    3.3813068 
    1590    460.93829   -8930.3707   -8878.9523   -16350.345    19397.542    3.4083736 
    1600     448.2201   -8928.9504   -8878.9508   -15603.607    19397.542    3.4316634 
    1610     443.9941   -8928.4772    -8878.949    -15275.86    19397.542    3.4534934 
    1620    463.51034   -8930.6582    -8878.953   -15593.563    19397.542    3.4766509 
    1630    474.66564   -8931.9011   -8878.9514   -16126.405    19397.542    3.5034224 
    1640    481.75389   -8932.6918   -8878.9514   -16542.721    19397.542    3.5333548 
    1650    479.37897   -8932.4264    -8878.951   -16541.998    19397.542    3.5648125 
    1660    474.97776   -8931.9337   -8878.9492   -16284.173    19397.542    3.5952514 
    1670    481.99089    -8932.719   -8878.9522   -15990.017    19397.542    3.6221631 
    1680      474.213   -8931.8498   -8878.9506   -15457.654    19397.542    3.6454728 
    1690    462.13083    -8930.502   -8878.9506   -14731.806    19397.542     3.665115 
    1700    458.63731   -8930.1109   -8878.9492   -14389.905    19397.542    3.6801149 
    1710    473.55465   -8931.7771   -8878.9513   -14547.389    19397.542    3.6915037 
    1720    483.59001    -8932.897   -8878.9518   -15013.331    19397.542    3.7021408 
    1730    481.36556   -8932.6472   -8878.9501   -15645.926    19397.542    3.7142289 
    1740    484.05437   -8932.9483   -8878.9513   -16474.749    19397.542    3.7288904 
    1750    482.16869   -8932.7383   -8878.9516   -16722.219    19397.542     3.747119 
    1760    470.26243   -8931.4082   -8878.9497   -16475.495    19397.542    3.7689551 
    1770    472.75321   -8931.6852   -8878.9489   -16480.419    19397.542    3.7930019 
    1780    495.80424   -8934.2609   -8878.9532   -16801.632    19397.542     3.817904 
    1790    498.29189   -8934.5359   -8878.9506   -17030.699    19397.542    3.8432118 
    1800    497.22115   -8934.4163   -8878.9505   -17233.599    19397.542    3.8677962 
    1810    498.13201   -8934.5195   -8878.9521   -17294.852    19397.542    3.8916583 
    1820    485.17576   -8933.0725   -8878.9504   -16971.976    19397.542    3.9157232 
    1830    479.44537   -8932.4337   -8878.9509   -16627.564    19397.542    3.9391486 
    1840    478.88134   -8932.3712   -8878.9513   -16398.764    19397.542    3.9621449 
    1850     478.6415   -8932.3435   -8878.9503   -16406.049    19397.542    3.9857213 
    1860     486.1211   -8933.1789   -8878.9514   -16705.544    19397.542    4.0086822 
    1870    492.79459   -8933.9238   -8878.9519   -17221.514    19397.542    4.0297149 
    1880    491.36379   -8933.7648   -8878.9525   -18037.772    19397.542    4.0499732 
    1890    475.70955   -8932.0166   -8878.9505   -18910.363    19397.542    4.0709101 
    1900    464.92588   -8930.8141   -8878.9509   -19819.272    19397.542    4.0929306 
    1910    455.59431   -8929.7727   -8878.9505   -20229.987    19397.542    4.1160109 
    1920    452.87672   -8929.4684   -8878.9493   -20242.611    19397.542    4.1384657 
    1930    467.97161   -8931.1539   -8878.9509   -20369.825    19397.542    4.1581839 
    1940    485.34862   -8933.0926   -8878.9512   -20514.477    19397.542    4.1756159 
    1950    495.78252   -8934.2578   -8878.9525   -20428.878    19397.542    4.1936772 
    1960    500.11778   -8934.7389     -8878.95   -20591.437    19397.542    4.2145461 
    1970    511.99695   -8936.0681    -8878.954   -21344.221    19397.542    4.2363696 
    1980    499.23942   -8934.6421   -8878.9512   -21654.428    19397.542    4.2540635 
    1990    487.56603   -8933.3391   -8878.9504    -21588.86    19397.542    4.2657075 
    2000    485.14508   -8933.0707    -8878.952   -21134.343    19397.542    4.2770463 
Loop time of 1476.12 on 16 procs for 2000 steps with 864 atoms

Performance: 0.117 ns/day, 205.016 hours/ns, 1.355 timesteps/s
96.9% CPU use with 16 MPI tasks x 1 OpenMP threads

MPI task timing breakdown:
Section |  min time  |  avg time  |  max time  |%varavg| %total
---------------------------------------------------------------
Pair    | 271.78     | 689.07     | 1475.6     |1218.2 | 46.68
Bond    | 0.00014639 | 0.00042157 | 0.00083685 |   0.0 |  0.00
Neigh   | 0.014528   | 0.030275   | 0.063823   |   7.8 |  0.00
Comm    | 0.29628    | 684.06     | 1057       |1169.5 | 46.34
Output  | 0.14531    | 34.939     | 70.496     | 469.1 |  2.37
Modify  | 0.0084357  | 0.0097137  | 0.01212    |   1.0 |  0.00
Other   |            | 68.01      |            |       |  4.61

Nlocal:        54.0000 ave          90 max          29 min
Histogram: 3 3 0 2 3 1 0 2 0 2
Nghost:        493.750 ave         643 max         369 min
Histogram: 3 1 0 3 2 2 1 2 0 2
Neighs:         0.00000 ave           0 max           0 min
Histogram: 16 0 0 0 0 0 0 0 0 0
FullNghs:      2706.00 ave        5944 max         890 min
Histogram: 6 0 2 1 3 0 2 0 0 2

Total # of neighbors = 43296
Ave neighs/atom = 50.111111
Ave special neighs/atom = 0.0000000
Neighbor list builds = 200
Dangerous builds = 200
unfix   1

velocity    all create 975.0 1312343 dist gaussian
fix     2 all npt temp 975.0 975.0 $(100.0*dt) aniso 0.0 1.01325 $(1000.0*dt)
fix     2 all npt temp 975.0 975.0 0.10000000000000000555 aniso 0.0 1.01325 $(1000.0*dt)
fix     2 all npt temp 975.0 975.0 0.10000000000000000555 aniso 0.0 1.01325 1
run     3000
Per MPI rank memory allocation (min/avg/max) = 8.894 | 8.909 | 8.920 Mbytes
Step Temp PotEng TotEng Press Volume c_msd[4] 
    2000          975   -8933.0707    -8824.308   -18125.391    19397.542    4.2770463 
    2010    842.09299    -8918.331   -8824.3943   -14792.753    19389.002    4.3055159 
    2020     664.2651   -8898.5082   -8824.4084   -9718.9425    19366.284    4.3343086 
    2030     684.7265   -8900.4745   -8824.0923   -8914.7342    19333.829    4.3502225 
    2040    728.93346   -8904.6978   -8823.3842   -9052.6846    19292.853    4.3528747 
    2050    747.12151   -8905.8453   -8822.5027   -8062.0334     19243.55    4.3478126 
    2060    760.06969   -8906.4306   -8821.6437   -6316.0557    19187.104    4.3379245 
    2070    772.49618   -8907.0388   -8820.8657   -4463.8094    19125.487    4.3265738 
    2080    776.78097   -8906.7591    -8820.108   -2378.0602    19060.892    4.3156195 
    2090    765.88391   -8904.6958   -8819.2603    228.85816    18995.741    4.3033139 
    2100    762.09869   -8903.2076   -8818.1943    3062.1433    18932.807    4.2877532 
    2110    774.40724   -8903.2255   -8816.8392    5657.0827    18874.923     4.268245 
    2120    812.47211   -8905.8527   -8815.2202    7750.5358    18824.482    4.2463442 
    2130      826.452   -8905.6344   -8813.4424     9798.224    18783.254    4.2261591 
    2140    812.76898   -8902.3268   -8811.6612    11205.141    18752.657    4.2080982 
    2150    828.46416   -8902.3602   -8809.9438    11008.827    18733.362    4.1899341 
    2160    856.69079   -8903.8449   -8808.2797    9906.0248    18724.663    4.1719613 
    2170    866.78027    -8903.393   -8806.7023    9152.4035    18725.162    4.1561075 
    2180    846.19986   -8899.6372   -8805.2423    8446.3368    18733.707     4.144074 
    2190    812.06702    -8894.448   -8803.8607    7272.0662     18749.26    4.1374888 
    2200    844.09633   -8896.6209   -8802.4607    4792.3636    18770.404    4.1370648 
    2210    873.55027    -8898.431   -8800.9851    2977.4467    18794.881    4.1418567 
    2220    858.33997   -8895.2994   -8799.5503    2567.0416    18821.028    4.1496704 
    2230    871.09611    -8895.343    -8798.171    2177.1615    18848.301     4.158605 
    2240    862.29658   -8892.9782   -8796.7877    2070.7286    18876.386    4.1711588 
    2250    874.43098   -8892.9385   -8795.3944    1136.8778    18905.071    4.1855258 
    2260    873.75581   -8891.4142   -8793.9454    559.44135     18933.62    4.1975825 
    2270    870.79702   -8889.6259   -8792.4872     517.8052    18961.539    4.2086769 
    2280    906.29278   -8892.0958   -8790.9975   -2.5959878    18988.762    4.2238361 
    2290    915.17186     -8891.58   -8789.4912   -170.75057    19014.969    4.2465749 
    2300    915.03222   -8890.1108   -8788.0376   -694.99144    19039.977    4.2740429 
    2310    904.09002   -8887.4729   -8786.6203   -1136.5569    19063.444    4.2997722 
    2320    899.42824    -8885.557   -8785.2244   -2038.2384    19084.968    4.3160693 
    2330    923.87471   -8886.8777   -8783.8181   -2664.6696    19103.891    4.3197546 
    2340    944.04464   -8887.7291   -8782.4195   -2690.2113    19119.789    4.3132452 
    2350    974.14494    -8889.737   -8781.0696   -3275.6786    19132.639     4.300555 
    2360     957.8854   -8886.6672   -8779.8136   -3577.7359    19142.086    4.2876299 
    2370    916.53231   -8880.9065   -8778.6659   -3238.0747    19147.988    4.2779108 
    2380     917.0627   -8879.8467    -8777.547   -3286.7737    19150.653    4.2711008 
    2390    908.09824   -8877.7005   -8776.4007   -3114.3581    19150.215    4.2661273 
    2400    934.37057   -8879.4689   -8775.2384   -3441.1349    19146.824    4.2615206 
    2410     958.2106   -8880.9374   -8774.0475   -2885.2627    19140.392    4.2548244 
    2420     954.4252   -8879.3448   -8772.8773   -1244.4697    19131.547    4.2445752 
    2430    972.95509   -8880.2595   -8771.7249   -743.60826    19121.662    4.2348346 
    2440    987.61147   -8880.7752   -8770.6056   -1280.4572    19111.243     4.229662 
    2450    989.16972   -8879.9011   -8769.5577    -1229.707    19099.947    4.2295006 
    2460    998.84842   -8880.0076   -8768.5846   -272.55337    19087.835     4.233137 
    2470    1005.9289    -8879.911   -8767.6981    877.93873    19075.757    4.2408133 
    2480    1020.5108   -8880.7571   -8766.9175    1394.6096    19064.716    4.2499446 
    2490    1018.6184   -8879.8908   -8766.2623    1687.8489    19055.185    4.2597592 
    2500    1002.8815    -8877.582   -8765.7091    1890.3735    19047.414    4.2730148 
    2510    1003.6513   -8877.1728    -8765.214    1205.7827    19041.471    4.2890098 
    2520    1025.3323   -8879.1653   -8764.7879    630.42692    19036.788    4.3057931 
    2530    1026.3986   -8878.9694   -8764.4731    886.41647    19032.858    4.3211747 
    2540     1004.364   -8876.3115   -8764.2731    1371.8023    19029.847    4.3329782 
    2550    1016.6936   -8877.5719   -8764.1582    1183.1198    19028.114    4.3427232 
    2560     1035.104   -8879.6081   -8764.1407    573.78424    19027.461    4.3517456 
    2570    1044.6553   -8880.8008   -8764.2679    510.28225     19027.42    4.3565378 
    2580    1065.6495   -8883.4637   -8764.5889     57.18152    19027.824    4.3574388 
    2590    1061.9548   -8883.5963   -8765.1337   -311.96397      19028.3    4.3602651 
    2600    1058.5101   -8883.9829   -8765.9045   -561.58311    19028.499    4.3684499 
    2610    1054.7156   -8884.5354   -8766.8803    -1048.101    19028.174    4.3821455 
    2620    1041.8417   -8884.2326   -8768.0136   -1581.1374    19026.885    4.3989619 
    2630    1026.5717   -8883.7475   -8769.2319    -1758.354    19024.196    4.4159417 
    2640    1018.6421   -8884.1059   -8770.4749   -1542.8202    19019.945    4.4348592 
    2650    1012.5253   -8884.6551   -8771.7064   -765.73738    19014.355    4.4565782 
    2660    1000.6159   -8884.5289   -8772.9087   -223.95043    19008.106    4.4761406 
    2670    996.68108   -8885.2565   -8774.0752   -193.73011    19001.681    4.4888345 
    2680     1016.408   -8888.6251   -8775.2433    532.28071     18995.21     4.495715 
    2690    999.75895   -8887.9299   -8776.4053    2574.4551     18989.44    4.5001393 
    2700    1006.2705   -8889.7777   -8777.5267    2985.4016    18985.964    4.5039635 
    2710    1035.8967   -8894.2441   -8778.6883    2482.9225    18985.219    4.5119623 
    2720    1008.9528   -8892.4338   -8779.8836    2792.0736    18986.869    4.5247763 
    2730    995.74984   -8892.1386   -8781.0612    2354.5245    18991.024    4.5376913 
    2740    967.02904   -8890.0315   -8782.1579    1432.0415    18997.277    4.5483719 
    2750    940.83717    -8888.068   -8783.1162     385.6824    19004.772     4.557397 
    2760    942.61664   -8889.0938   -8783.9434   -1058.8477    19012.495    4.5651236 
    2770    936.94487   -8889.1776     -8784.66   -1758.5214    19019.219    4.5693877 
    2780     937.0138   -8889.7939   -8785.2686   -2000.7397    19024.269    4.5719905 
    2790    957.33684   -8892.5879   -8785.7956   -2645.1035    19027.369    4.5791554 
    2800    974.56293   -8895.0091   -8786.2951   -2911.4969    19028.006    4.5937267 
    2810    958.05176   -8893.6321     -8786.76    -2163.692    19026.036    4.6141825 
    2820    981.47246   -8896.6827   -8787.1979   -2008.4973    19022.034    4.6369263 
    2830     997.2109   -8898.8953   -8787.6549   -1697.5675    19016.234    4.6605929 
    2840    1000.7313    -8899.792   -8788.1589   -1580.2049    19008.939     4.683855 
    2850    1034.6604   -8904.1768   -8788.7589   -2675.0254    19000.164    4.7057836 
    2860    1029.0328   -8904.2772    -8789.487    -3399.329    18989.081    4.7314939 
    2870    1011.9489   -8903.2145     -8790.33   -3768.0035    18975.029    4.7638511 
    2880    999.83664   -8902.7766   -8791.2433   -3095.5996    18957.777    4.8002849 
    2890      970.741    -8900.431   -8792.1433   -1664.2255    18937.958    4.8384469 
    2900    975.35791   -8901.7894   -8792.9867   -820.65947    18916.825    4.8773147 
    2910    998.31188   -8905.1708   -8793.8076   -928.09047    18895.186    4.9196581 
    2920     1021.246   -8908.6032   -8794.6816   -1443.6739    18872.969    4.9639911 
    2930    1019.8546   -8909.4004    -8795.634   -1251.7812    18849.808    5.0065595 
    2940    1020.2437   -8910.4483   -8796.6386   -546.28014    18825.867    5.0467925 
    2950    1023.5892   -8911.8719   -8797.6889    590.07347    18801.797    5.0865744 
    2960    1000.3416    -8910.327   -8798.7374    1868.1243    18778.652    5.1275725 
    2970    1019.7017    -8913.524   -8799.7747    2014.5304    18757.443    5.1680897 
    2980    1034.8405   -8916.3007   -8800.8627    1879.0194     18738.35    5.2076094 
    2990    1027.8393   -8916.6494   -8801.9924    1889.3755    18721.271     5.246757 
    3000    1058.3338   -8921.2589   -8803.2002    1501.8359    18706.121    5.2855909 
    3010    1063.9126   -8923.1964   -8804.5154    1826.1966     18692.63    5.3281297 
    3020    1069.5276   -8925.2332   -8805.9257    1610.2874    18680.924    5.3771926 
    3030    1085.2573   -8928.4951    -8807.433    804.35789    18670.798    5.4320431 
    3040    1070.0906   -8928.3676   -8808.9974    491.12052    18661.597    5.4890389 
    3050    1038.4228   -8926.3659   -8810.5283    119.70597    18652.967    5.5432675 
    3060    1008.5427   -8924.4428   -8811.9384   -193.06855    18644.592    5.5915567 
    3070    999.27535    -8924.671   -8813.2003   -893.03225    18636.158    5.6322975 
    3080    1022.3356   -8928.4169   -8814.3738    -2449.202    18627.031    5.6669589 
    3090    1059.8466   -8933.8009   -8815.5735   -3904.1548    18615.905    5.7008439 
    3100    1034.8192   -8932.2552   -8816.8196   -3911.6847    18601.661     5.736213 
    3110    987.75452   -8928.2044   -8818.0189   -4199.8855    18584.218    5.7699015 
    3120    998.41734   -8930.5368   -8819.1618   -5682.6871    18563.315    5.8018116 
    3130    1038.1677   -8936.1595   -8820.3503   -6095.5885    18537.932    5.8347708 
    3140    1027.8391   -8936.2461   -8821.5891   -4426.6923    18507.922    5.8644631 
    3150    1026.5945   -8937.3407   -8822.8225   -3091.8574    18474.685    5.8900378 
    3160    1039.1289   -8939.9866   -8824.0702   -2744.9419    18439.454    5.9172298 
    3170    1021.0341   -8939.2143   -8825.3164   -1950.2554    18402.756    5.9494723 
    3180    1020.5339   -8940.3666   -8826.5245   -825.37477     18365.34    5.9854076 
    3190    1038.0573   -8943.5201   -8827.7232   -26.646232     18328.17    6.0222096 
    3200    1047.1761   -8945.7851    -8828.971     452.0695    18291.961    6.0588262 
    3210    1036.5851   -8945.8868   -8830.2541    759.05106    18257.136    6.0954945 
    3220    1054.0887   -8949.1437   -8831.5586    155.26191    18223.866    6.1295612 
    3230    1073.4918   -8952.7005   -8832.9509   -421.73819    18191.687    6.1631364 
    3240    1052.5341   -8951.8007    -8834.389    354.95892    18160.206    6.2033703 
    3250    1036.6809   -8951.4492   -8835.8059    1521.4244    18129.972    6.2496829 
    3260    1020.2859   -8950.9468   -8837.1323    1876.5611    18101.846    6.2969781 
    3270    1057.0551   -8956.3447   -8838.4286    1181.2114    18076.059    6.3414993 
    3280     1068.655   -8958.9949   -8839.7848    1036.0506    18052.108    6.3831094 
    3290    1048.0981    -8958.087   -8841.1701    1463.7019    18029.808    6.4215747 
    3300    1062.1867   -8961.0602   -8842.5717    1992.3901      18009.4     6.455818 
    3310    1068.6204   -8963.2207   -8844.0145     2817.577    17991.289    6.4899093 
    3320    1067.5727   -8964.5709   -8845.4815    2791.9452    17975.976    6.5277544 
    3330    1062.2765   -8965.4842   -8846.9857    1571.3359    17963.317    6.5697317 
    3340    1050.6427   -8965.6896   -8848.4888   -681.97321    17952.232    6.6174256 
    3350      1060.21   -8968.2797   -8850.0116   -3005.9629    17940.913    6.6683141 
    3360    1050.7002   -8968.7548   -8851.5476   -5234.5919    17927.477    6.7196848 
    3370    1066.0717   -8972.0444   -8853.1225   -7286.9768     17910.15    6.7719104 
    3380    1071.7001   -8974.3185   -8854.7687   -8365.4488    17887.443       6.8266 
    3390    1092.4813    -8978.375   -8856.5071   -8959.7487    17858.604    6.8832773 
    3400    1097.2724   -8980.7871   -8858.3847   -7944.7669    17823.457    6.9420938 
    3410    1053.4037   -8977.7353   -8860.2265   -5560.4881    17783.061    7.0037618 
    3420    1076.4366   -8982.0829   -8862.0048   -4658.4397    17739.314    7.0734217 
    3430    1104.1554   -8986.9778   -8863.8076   -3664.4182    17693.276    7.1546057 
    3440    1109.0174   -8989.3918   -8865.6793   -1670.2717    17645.952    7.2402556 
    3450    1081.1936    -8988.093   -8867.4842    936.10947    17599.043    7.3206761 
    3460    1116.6444   -8993.8121   -8869.2487    2355.5222    17554.485    7.3888355 
    3470    1109.5374   -8994.8108   -8871.0402    5324.6131    17513.579    7.4457003 
    3480    1081.0432   -8993.3382   -8872.7462    8220.2739    17478.365    7.4992196 
    3490    1140.8862   -9001.7725   -8874.5049    8031.5807    17450.634    7.5600618 
    3500    1149.0038     -9004.64   -8876.4669    8066.1731    17430.188    7.6245229 
    3510    1112.2507   -9002.5484   -8878.4752    9073.4305    17416.801    7.6777423 
    3520    1130.5571   -9006.6344   -8880.5191    7875.1462    17410.731    7.7057598 
    3530    1124.1988   -9008.0086   -8882.6025    5739.3243    17410.875    7.7195396 
    3540    1124.6029   -9010.1629   -8884.7117    4258.4593    17415.476     7.731984 
    3550    1108.1698   -9010.4195   -8886.8015    2819.8049     17423.19    7.7422357 
    3560     1097.587   -9011.3078   -8888.8703    2181.8116    17432.861    7.7483446 
    3570    1066.7114   -9009.8328   -8890.8395    1889.5596    17443.918    7.7567481 
    3580    1088.2546    -9014.137   -8892.7406   -12.827499    17455.967    7.7693615 
    3590    1096.4315   -9016.9845   -8894.6759   -1288.1431    17467.697    7.7791625 
    3600     1061.067   -9014.9441   -8896.5804   -1153.7346    17478.188    7.7795108 
    3610    1046.9623   -9015.1854   -8898.3952   -1271.0995    17487.456    7.7695245 
    3620    1080.3398   -9020.6914   -8900.1779   -2301.2145    17495.404    7.7545366 
    3630    1087.1061   -9023.2839   -8902.0156   -2726.0071     17501.42    7.7431696 
    3640    1048.8532     -9020.86   -8903.8588   -956.83508    17505.348      7.73557 
    3650    1044.7129   -9022.1461   -8905.6068    227.37891    17508.393    7.7257733 
    3660    1097.9959   -9029.8856   -8907.4025   -226.52804    17511.434    7.7109604 
    3670     1042.464   -9025.5171   -8909.2287    402.32004     17514.33    7.6938051 
    3680    1011.4361   -9023.7508   -8910.9236    185.85662    17517.425    7.6762484 
    3690    1032.9966    -9027.755   -8912.5227   -1530.3152    17520.471    7.6659281 
    3700    1044.1694   -9030.5811   -8914.1025   -1812.5322    17522.348    7.6648486 
    3710    1018.6022   -9029.3183   -8915.6917   -573.21748    17522.871    7.6645028 
    3720    1007.0665   -9029.5429   -8917.2031    317.65747    17522.907    7.6605449 
    3730    1013.8231   -9031.7583   -8918.6648    790.00739    17523.156    7.6581858 
    3740    999.49829    -9031.566   -8920.0705    1682.4193    17524.017     7.667549 
    3750    1004.7476   -9033.5021    -8921.421    1891.6013    17526.129    7.6897521 
    3760     1008.903    -9035.311   -8922.7663     1125.328    17529.602    7.7169052 
    3770    983.75919   -9033.7963   -8924.0565     493.5766    17533.872    7.7389286 
    3780    985.70028   -9035.2706   -8925.3142    561.99683    17538.499    7.7556341 
    3790    983.69551    -9036.224   -8926.4913    268.62086    17543.474    7.7721017 
    3800    1012.3026   -9040.5705   -8927.6466   -1452.5333     17548.44    7.7878856 
    3810    991.26309   -9039.3541   -8928.7772   -2198.5134    17552.229    7.8055593 
    3820     1002.065   -9041.6822   -8929.9003   -1968.0683    17554.257    7.8267776 
    3830    1005.1956   -9043.1519   -8931.0208   -1313.5754    17554.739    7.8520657 
    3840    992.12551    -9042.797   -8932.1239   -798.85839    17554.167    7.8805935 
    3850    1000.0816   -9044.7787   -8933.2181   -248.01516     17552.98    7.9095155 
    3860     982.4623   -9043.8912    -8934.296    244.33055    17551.618    7.9404551 
    3870    973.45612   -9043.9079   -8935.3174    830.55202    17550.508    7.9724425 
    3880    1010.7721   -9049.1008   -8936.3477    -191.9797    17549.957    8.0008049 
    3890    1018.1671   -9051.0043   -8937.4262   -1537.5813    17549.266    8.0225832 
    3900    1014.8279   -9051.7696    -8938.564   -2380.2537    17547.418    8.0379463 
    3910    992.05749   -9050.3652   -8939.6997   -2577.5707    17543.807    8.0511648 
    3920    977.21384   -9049.8038   -8940.7941   -2156.8277    17538.315    8.0690614 
    3930    976.79864   -9050.7859   -8941.8226    -1364.672    17531.307     8.092118 
    3940    1017.6461   -9056.3874   -8942.8674   -1665.5028    17523.304     8.116855 
    3950    1020.4626   -9057.8262   -8943.9921   -1064.0029     17514.25    8.1429146 
    3960    1001.7884   -9056.9015   -8945.1505   -178.86375    17504.559    8.1746849 
    3970    986.93599   -9056.3721   -8946.2779    1336.8153    17495.011    8.2095972 
    3980    996.89323   -9058.5549   -8947.3499    2898.3405     17486.72    8.2452509 
    3990    1009.5494   -9061.0459   -8948.4291    3746.1007    17480.816    8.2852233 
    4000    1011.0032    -9062.317   -8949.5381    3302.3351     17477.87    8.3277059 
    4010      1001.19   -9062.3587   -8950.6744    2722.7926    17477.579      8.36281 
    4020    974.25902   -9060.4601   -8951.7801    2932.2298    17479.477    8.3857458 
    4030    985.70798   -9062.8031   -8952.8459    3435.4519    17483.634    8.3975666 
    4040     965.1759   -9061.5379   -8953.8711    4109.2699    17490.387    8.3944588 
    4050    951.27591   -9060.9321   -8954.8159    3642.5339    17500.115    8.3763764 
    4060    958.31208   -9062.5827   -8955.6816    1612.8879    17512.396     8.354173 
    4070     972.9417   -9065.0024   -8956.4693   -1045.5765    17525.678    8.3336215 
    4080    1012.4667   -9070.2098   -8957.2677   -3390.5807    17537.876    8.3142601 
    4090    952.61943   -9064.3247   -8958.0586   -3120.4351     17547.36    8.2968744 
    4100    945.82343   -9064.2701   -8958.7621   -3275.4743    17554.155    8.2783934 
    4110    981.49345   -9068.8886   -8959.4015   -4940.9502     17558.14    8.2638046 
    4120    997.42089   -9071.3289   -8960.0651   -6481.9904    17558.162     8.256716 
    4130    1022.7608   -9074.9216   -8960.8311   -7355.5149    17553.125    8.2512529 
    4140    1016.8149   -9075.1577   -8961.7305   -7269.5546    17542.472    8.2471993 
    4150    986.11249   -9072.6896   -8962.6872   -5196.6945    17526.523    8.2417801 
    4160    987.95246    -9073.808   -8963.6004   -3222.3791    17506.891    8.2393946 
    4170    997.64853   -9075.7723   -8964.4831   -1354.9779    17485.233    8.2431357 
    4180    988.56222   -9075.6195   -8965.3439    1047.2591    17463.155    8.2488201 
    4190     997.5071   -9077.4795   -8966.2061    2357.4579    17442.396    8.2520934 
    4200     986.7728   -9077.1602   -8967.0842    2651.4964    17423.943    8.2513056 
    4210    963.99468   -9075.4693   -8967.9342     3214.499    17408.052    8.2478642 
    4220    976.04757   -9077.6331   -8968.7535    3795.0728    17395.057    8.2435866 
    4230    944.46543   -9074.8702   -8969.5136    4896.7059    17385.399    8.2382426 
    4240    947.44127    -9075.878   -8970.1895    4463.8136    17379.648    8.2306047 
    4250    988.00462   -9081.0491   -8970.8357    2557.6461    17377.361    8.2227265 
    4260     966.9528   -9079.3413   -8971.4763     1824.133    17377.188    8.2115703 
    4270    941.35874    -9077.051    -8972.041    938.10181    17378.401     8.195854 
    4280    955.35334   -9079.0871    -8972.516    -180.9929    17380.292    8.1826339 
    4290    956.31789   -9079.6029   -8972.9242    517.30741    17382.141     8.176974 
    4300    978.49499   -9082.4626     -8973.31    936.55745    17384.314    8.1772704 
    4310    978.03134   -9082.8219   -8973.7211    978.33642    17387.121    8.1776956 
    4320    941.49726   -9079.1507   -8974.1253    1534.0065    17390.662     8.177222 
    4330    969.28452   -9082.6164   -8974.4913   -260.70424    17395.107    8.1767243 
    4340    1010.0982   -9087.5499    -8974.872   -2389.4529    17399.229    8.1706545 
    4350    988.31869   -9085.5524    -8975.304   -2922.1522    17401.531    8.1561132 
    4360    982.74571   -9085.4016   -8975.7748   -2948.1491     17401.56    8.1399469 
    4370    984.71035   -9086.1199   -8976.2739   -2459.1989    17399.351    8.1324212 
    4380    960.50413   -9083.9124   -8976.7667   -1299.1594    17395.382    8.1378278 
    4390    974.70823   -9085.9516   -8977.2215   -2097.9557    17390.351    8.1533249 
    4400    995.31335   -9088.7283   -8977.6996    -2448.498    17383.856    8.1755418 
    4410     956.5827   -9084.9009   -8978.1927    -1797.433    17375.693    8.2018123 
    4420    967.76178   -9086.6262   -8978.6709   -2568.0057    17366.218     8.223726 
    4430    999.44436   -9090.6515   -8979.1619    -3595.914    17354.974    8.2370515 
    4440    997.49188   -9090.9854   -8979.7136   -3126.2663    17341.297    8.2453454 
    4450    970.29769   -9088.5255   -8980.2873   -997.34464    17325.639    8.2511564 
    4460    972.97352    -9089.371   -8980.8343    121.91513    17309.497    8.2553519 
    4470    1015.5162   -9094.6918   -8981.4094   -370.91283     17293.68    8.2607184 
    4480    1016.8265   -9095.5028   -8982.0742    92.430817    17277.986    8.2692596 
    4490    1005.2244   -9094.9445   -8982.8103    1483.6495    17262.747    8.2788997 
    4500    976.13822   -9092.4506   -8983.5609    3432.7573    17249.015    8.2844975 
    4510    951.59489   -9090.4221   -8984.2703    5283.0907    17238.179    8.2834906 
    4520    936.17041   -9089.3302    -8984.899    6462.3362    17231.539    8.2797793 
    4530    960.95572   -9092.6418   -8985.4458    6154.8656    17229.849    8.2789113 
    4540    1002.9563   -9097.8824   -8986.0011    4471.7477    17232.756    8.2809433 
    4550    968.39875   -9094.6003    -8986.574    3744.2606    17239.059    8.2842269 
    4560    946.98754   -9092.7424   -8987.1045    2409.3083    17248.015    8.2877842 
    4570    962.01574   -9094.8836   -8987.5693    193.53315    17258.543    8.2923723 
    4580    957.52307   -9094.7638   -8987.9507   -1014.7143     17269.06    8.3018163 
    4590    965.91676   -9096.0416   -8988.2921   -2187.1712    17278.569    8.3156177 
    4600     951.0541   -9094.6797   -8988.5882   -3439.7036    17286.207    8.3300104 
    4610    952.38916   -9095.0892   -8988.8487   -4583.5632    17291.079    8.3425819 
    4620    955.47971   -9095.6649   -8989.0797    -5513.279    17292.378     8.354126 
    4630    947.88012   -9095.0306   -8989.2932   -4954.7552    17289.554    8.3635611 
    4640    933.21225   -9093.5463    -8989.445    -3873.956    17283.044    8.3698555 
    4650    970.72054   -9097.8317   -8989.5464   -3752.5181    17273.647    8.3724832 
    4660    985.76069    -9099.596   -8989.6329    -3502.214    17261.612    8.3687987 
    4670    995.49866   -9100.8114   -8989.7621   -3167.7611    17247.166    8.3582326 
    4680    983.68335   -9099.6679   -8989.9365   -2560.2498    17230.638    8.3480116 
    4690     954.9538   -9096.6365     -8990.11   -1214.8883     17212.57    8.3451475 
    4700    971.69434   -9098.6485   -8990.2545   -777.41234    17193.879    8.3493439 
    4710    978.52247   -9099.5431   -8990.3874   -1186.0826     17174.96    8.3567071 
    4720    956.35134   -9097.2059   -8990.5235   -693.42233    17155.621    8.3617919 
    4730    948.02642   -9096.3567   -8990.6029    629.07078    17136.219    8.3662435 
    4740    1001.1728   -9102.3389   -8990.6565    701.57045    17117.584    8.3748742 
    4750    996.92918   -9101.9566   -8990.7476    1052.6808    17099.909    8.3925351 
    4760    992.45872   -9101.6222   -8990.9119    1021.4249    17083.354    8.4157141 
    4770    1035.1304   -9106.6488   -8991.1785    997.21557    17067.895    8.4355334 
    4780     1016.049   -9104.9119   -8991.5701    2215.6442    17053.585    8.4483698 
    4790    984.49539   -9101.8251   -8992.0031    3086.0065    17041.215     8.456436 
    4800    1030.9271    -9107.512   -8992.5105    1394.3717    17031.189     8.468971 
    4810    995.86821   -9104.2064   -8993.1158    2106.9232    17022.624    8.4928234 
    4820    977.33564   -9102.7773    -8993.754    2762.8265     17015.82    8.5184925 
    4830     1024.132   -9108.6964   -8994.4529    942.07068    17011.051    8.5334269 
    4840    991.53159   -9105.8215   -8995.2146    199.32269     17007.17    8.5351579 
    4850    956.30601   -9102.6238   -8995.9465    357.39135    17003.582    8.5301039 
    4860    961.71715   -9103.8856   -8996.6046   -505.69694    17000.247    8.5265041 
    4870     950.4166   -9103.2012   -8997.1808   -393.88929    16996.702    8.5296476 
    4880    951.19384   -9103.7772   -8997.6701    -799.5104    16992.914      8.53989 
    4890    982.05104   -9107.6485   -8998.0993    -1637.333    16988.583    8.5554341 
    4900    996.03651   -9109.6459   -8998.5365   -1146.4869    16983.216    8.5691611 
    4910    965.64507   -9106.6893   -8998.9701   -194.36241    16977.169    8.5772647 
    4920    1000.9499   -9111.0567   -8999.3992   -1282.7054    16970.962    8.5805262 
    4930    1052.8741   -9117.3611   -8999.9114   -1720.8645    16963.985    8.5778217 
    4940    1028.3454   -9115.2865    -9000.573     557.2344    16956.104    8.5731319 
    4950     988.3758   -9111.5452   -9001.2904     2274.884    16948.761    8.5721389 
    4960    984.69152   -9111.8578    -9002.014    3099.6234    16943.186    8.5764068 
    4970    923.59959   -9105.6711   -9002.6422     3618.064    16939.971    8.5871527 
    4980    967.17647   -9111.0436   -9003.1536    1540.1677    16939.282    8.6076421 
    4990    1010.6318   -9116.3882   -9003.6507   -95.516098    16939.767    8.6380324 
    5000    951.42185   -9110.2678   -9004.1353    873.74479    16940.372     8.671744 
Loop time of 2041.97 on 16 procs for 3000 steps with 864 atoms

Performance: 0.127 ns/day, 189.071 hours/ns, 1.469 timesteps/s
97.2% CPU use with 16 MPI tasks x 1 OpenMP threads

MPI task timing breakdown:
Section |  min time  |  avg time  |  max time  |%varavg| %total
---------------------------------------------------------------
Pair    | 441.5      | 1156.8     | 2009.8     |1609.3 | 56.65
Bond    | 0.00025129 | 0.00096495 | 0.0023446  |   0.0 |  0.00
Neigh   | 0.022263   | 0.055647   | 0.10435    |  11.6 |  0.00
Comm    | 8.3727     | 647.16     | 1416.4     |1818.4 | 31.69
Output  | 0.24198    | 0.24455    | 0.28065    |   1.9 |  0.01
Modify  | 8.0822     | 237.71     | 728.64     |1505.1 | 11.64
Other   |            | 0.01707    |            |       |  0.00

Nlocal:        54.0000 ave          86 max          27 min
Histogram: 4 2 0 2 1 1 0 2 1 3
Nghost:        549.562 ave         768 max         335 min
Histogram: 2 2 0 2 2 2 2 1 1 2
Neighs:         0.00000 ave           0 max           0 min
Histogram: 16 0 0 0 0 0 0 0 0 0
FullNghs:      3095.00 ave        6139 max         734 min
Histogram: 5 1 0 2 2 0 2 0 0 4

Total # of neighbors = 49520
Ave neighs/atom = 57.314815
Ave special neighs/atom = 0.0000000
Neighbor list builds = 300
Dangerous builds = 300
unfix   2

fix     3 all npt temp 975.0 975.0 $(100.0*dt) aniso 1.01325 1.01325 $(1000.0*dt)
fix     3 all npt temp 975.0 975.0 0.10000000000000000555 aniso 1.01325 1.01325 $(1000.0*dt)
fix     3 all npt temp 975.0 975.0 0.10000000000000000555 aniso 1.01325 1.01325 1
run     20000
Per MPI rank memory allocation (min/avg/max) = 8.895 | 8.912 | 8.921 Mbytes
Step Temp PotEng TotEng Press Volume c_msd[4] 
    5000    951.42185   -9110.2678   -9004.1353    873.74479    16940.372     8.671744 
    5010    978.99184   -9113.3306   -9004.1226    536.39028     16940.72     8.695251 
    5020    1004.1505   -9116.1271   -9004.1126   -325.22421    16941.432    8.7037419 
    5030    968.49609   -9112.1741   -9004.1369    1605.6852    16942.113    8.7045972 
    5040    995.09159   -9115.1801   -9004.1762    3282.6846    16943.938    8.6986453 
    5050    1029.0213   -9119.0716   -9004.2827    4223.5276    16948.148    8.6899872 
    5060    1009.6424   -9117.1364   -9004.5092    4521.5399    16955.469    8.6891175 
    5070    1019.2237   -9118.5509   -9004.8549    2929.7301    16966.031    8.7000954 
    5080    995.82788   -9116.3883   -9005.3022    1699.2558    16978.836    8.7212238 
    5090    972.84967   -9114.3401   -9005.8173    202.50076    16992.929    8.7462072 
    5100    970.89048   -9114.6607   -9006.3564   -1688.1448    17007.166    8.7708323 
    5110    961.84243   -9114.2269   -9006.9319   -1714.2556    17020.324    8.7923519 
    5120    966.37474   -9115.3283   -9007.5278   -1299.0713    17032.299    8.8075786 
    5130    992.53343   -9118.8843   -9008.1657   -1819.8505    17043.268    8.8138824 
    5140    979.53599   -9118.1268   -9008.8581   -2200.6723    17052.921    8.8125658 
    5150    977.99235    -9118.687   -9009.5905   -3120.7859    17060.899    8.8127997 
    5160    992.08531   -9121.0358   -9010.3671    -3563.348    17066.586    8.8193717 
    5170    982.00707    -9120.753   -9011.2087   -2252.7212    17069.738     8.828802 
    5180    962.66438   -9119.4248   -9012.0382   -1299.9066    17071.184    8.8388905 
    5190    973.00031    -9121.355   -9012.8153   -801.79668    17071.651    8.8468301 
    5200    966.85293   -9121.3841   -9013.5302    238.67322    17071.544    8.8568294 
    5210     960.2736   -9121.2842   -9014.1642    1318.8903    17071.629    8.8777819 
    5220    993.60937   -9125.5636    -9014.725    1579.1546    17072.638    8.9100498 
    5230    1028.2412   -9129.9954   -9015.2936    2134.1964    17074.863    8.9472056 
    5240    1045.1911   -9132.5296   -9015.9369     3258.084    17078.729    8.9864566 
    5250    957.70007   -9123.4174   -9016.5845    3863.8099    17084.969    9.0259048 
    5260    949.60136   -9123.0246   -9017.0951    3639.4329     17094.11    9.0537575 
    5270    1006.3206   -9129.7901   -9017.5335    1082.8972    17105.864    9.0752675 
    5280    1004.1866   -9129.9735    -9017.955   -494.73864    17118.584    9.1054369 
    5290    993.86375   -9129.2436   -9018.3766   -1645.8771    17131.029    9.1503134 
    5300    967.55764   -9126.6659   -9018.7334   -3225.8869    17142.236    9.1972427 
    5310    1033.3442   -9134.3415   -9019.0704   -3849.3763    17151.008    9.2380052 
    5320    998.23736   -9130.6924   -9019.3375   -2436.9293    17156.923    9.2859713 
    5330    1067.0871   -9138.8107   -9019.7755    116.97436    17161.016    9.3469841 
    5340    975.80123   -9129.0797   -9020.2276    1809.7353    17165.052    9.4077851 
    5350    1022.6741   -9134.7836   -9020.7028    1852.0084    17170.263    9.4568839 
    5360    991.39609   -9131.6806   -9021.0889   -148.60504    17176.628    9.5108224 
    5370    1032.1981   -9136.7145   -9021.5712   -560.62144    17182.925    9.5791362 
    5380    1012.2181   -9135.0373   -9022.1229   -177.32736    17188.822    9.6622029 
    5390    942.25987   -9127.7753   -9022.6648    313.66077    17194.593    9.7384126 
    5400    991.15554   -9133.7472   -9023.1823   -58.408222    17200.461    9.7942123 
    5410    989.31449   -9133.9601   -9023.6006   -682.70642    17206.195    9.8420889 
    5420    1093.5701   -9146.3702   -9024.3809   -541.88787    17211.336    9.8892729 
    5430    1020.5563   -9138.9153   -9025.0707    268.32358    17216.004     9.935741 
    5440    1034.5369   -9141.3143   -9025.9101    1218.6152    17220.788    9.9788285 
    5450    1005.1305   -9138.8503   -9026.7265    1967.5609    17226.361     10.02455 
    5460    1057.5225   -9145.6356   -9027.6674    2943.8683    17233.318    10.079122 
    5470    1010.4504   -9141.1792   -9028.4619    3789.0049    17242.302    10.136524 
    5480     1007.541   -9141.7381   -9029.3454    4219.6052    17253.983    10.185919 
    5490    1007.0234   -9142.5028   -9030.1678    3105.2743    17268.574    10.251204 
    5500    1008.7515   -9143.4839   -9030.9561    2002.9198    17285.272    10.321275 
    5510    1041.5498   -9147.9467   -9031.7602    1998.3472    17303.279    10.369266 
    5520     1000.725   -9144.0965   -9032.4642    1442.6905    17322.378    10.418164 
    5530    986.14211   -9143.2017   -9033.1961    1203.2055    17342.175    10.482938 
    5540    1001.7041   -9145.5742   -9033.8326  -0.51757412    17362.372    10.551297 
    5550    957.11087    -9141.143   -9034.3758    1.2913927    17382.229    10.622635 
    5560    986.45473   -9144.9424   -9034.9019    64.620723    17401.637    10.684409 
    5570    951.83421   -9141.4039   -9035.2254   -2310.7121     17420.44    10.735213 
    5580    1006.5264   -9147.8879   -9035.6083   -4571.0654        17437    10.777257 
    5590    986.82167   -9145.9887   -9035.9072   -5201.6771    17449.699    10.813972 
    5600    959.76438   -9143.3304   -9036.2672   -4413.6724    17458.161    10.851909 
    5610    1026.0886    -9151.182   -9036.7203   -3462.3866    17462.976    10.886058 
    5620    988.80876   -9147.3917   -9037.0886   -2129.5505    17464.958    10.916488 
    5630    1025.4534   -9151.9947   -9037.6039   -741.67481    17465.219    10.942926 
    5640     974.0411   -9146.7328   -9038.0771    8.8811165    17464.844    10.971011 
    5650    1002.8236   -9150.5273   -9038.6608    294.24945    17464.447    11.000251 
    5660    972.79613   -9147.6827   -9039.1658    547.64239    17464.281    11.038842 
    5670    963.85861   -9147.0997   -9039.5798    1683.3587    17464.613    11.081757 
    5680    946.69621     -9145.69   -9040.0846    2374.3333    17466.235    11.127954 
    5690     961.6768   -9147.7974   -9040.5209    2372.4735     17469.65    11.179576 
    5700     949.6086   -9146.8727   -9040.9425     3083.825     17474.91    11.228533 
    5710    925.36742    -9144.515   -9041.2889    4169.3216    17482.538    11.268512 
    5720    999.30386   -9153.1242   -9041.6504    3525.6682    17493.127    11.315557 
    5730    974.52885   -9150.6036   -9041.8935     2405.943     17506.18    11.370186 
    5740    999.29749   -9153.7204   -9042.2472     2205.574    17520.883     11.41165 
    5750    935.53467    -9146.831   -9042.4707    522.32774    17536.803    11.449828 
    5760    983.84623   -9152.4541   -9042.7046   -1381.4762    17552.776    11.511643 
    5770    967.49937   -9150.7265   -9042.8005   -3898.7727    17567.224    11.580997 
    5780    964.83835   -9150.5641   -9042.9349   -4342.1264    17578.472    11.639583 
    5790    916.92591   -9145.3546   -9043.0701   -4320.6477     17586.11    11.702186 
    5800    936.09434   -9147.5557    -9043.133   -5171.8398    17590.181     11.75603 
    5810    938.51939   -9147.8237   -9043.1305   -5463.7396    17590.194    11.775028 
    5820    971.71375   -9151.4846   -9043.0884   -4805.4986    17585.965    11.767262 
    5830    944.35266   -9148.3655   -9043.0215   -1651.9234    17578.271    11.755927 
    5840    978.31075   -9152.0424   -9042.9103    1499.0611    17569.414    11.745217 
    5850    947.22103   -9148.3947   -9042.7308    2559.6224    17561.761    11.738602 
    5860    996.99381   -9153.7499   -9042.5338     1708.385      17556.1    11.737677 
    5870    993.09683   -9153.1332   -9042.3517    2021.7604    17551.991    11.748857 
    5880    972.28085   -9150.6323   -9042.1729    2928.5482     17549.63    11.775575 
    5890    992.36644   -9152.7023   -9042.0024    1948.1285    17549.483     11.80816 
    5900    956.85256   -9148.4783     -9041.74    1735.0409        17551    11.848107 
    5910     965.2331    -9149.165   -9041.4918     950.3892    17553.804    11.901128 
    5920    946.83396   -9146.6888   -9041.0681   -518.47137    17557.284    11.954055 
    5930    1028.5384   -9155.3735   -9040.6385   -1258.3295    17560.348    11.993153 
    5940    968.21256   -9148.1863   -9040.1807   -981.17198    17562.392    12.027293 
    5950    1021.1358   -9153.6261   -9039.7169   -47.012344    17563.635     12.06227 
    5960    950.11554   -9145.2661   -9039.2792    773.27192    17564.748    12.094853 
    5970    1032.1564    -9153.848   -9038.7094    1327.8271    17566.408    12.114616 
    5980    986.04791   -9148.0066   -9038.0115     626.3996    17568.946    12.121997 
    5990    1021.0119   -9151.3118   -9037.4164    363.06246    17571.971    12.118876 
    6000    951.21946   -9142.8778   -9036.7679   -51.454866    17575.191    12.107071 
    6010    980.71877   -9145.5221   -9036.1214   -970.24575    17578.302    12.095602 
    6020    972.43473    -9143.945   -9035.4685     -3029.43    17580.548    12.078478 
    6030    1021.5588   -9148.7701   -9034.8137   -4225.5257    17580.427    12.048022 
    6040    967.68568   -9142.1794   -9034.2326   -2706.9622    17577.199    12.015798 
    6050    958.80779   -9140.5725    -9033.616   -954.06204    17571.896    11.984362 
    6060    967.71907   -9140.9484   -9032.9979    712.75076    17565.938    11.951887 
    6070    1000.7674   -9143.9048   -9032.2677    756.33832    17560.517    11.923498 
    6080    1083.8021   -9152.6646   -9031.7649    239.92978    17555.706    11.903835 
    6090    1004.0542   -9143.7775   -9031.7738     442.0986    17551.186     11.89334 
    6100    1064.5577   -9150.3733   -9031.6203    752.75726    17547.014    11.895059 
    6110    1016.3913   -9144.8933   -9031.5133    2161.4948    17543.517    11.910412 
    6120     1063.507   -9150.3829   -9031.7471    3685.9044    17541.729    11.939076 
    6130    996.40528   -9142.9428   -9031.7923    3075.5128    17542.697    11.970136 
    6140     1064.579     -9150.82   -9032.0646    -343.9868    17545.864    11.987697 
    6150    1034.8156   -9148.0334   -9032.5982   -1684.7436    17548.917    12.005687 
    6160    1011.4745   -9146.1059   -9033.2744    -1436.483    17550.738    12.030715 
    6170    1006.5477   -9146.2939    -9034.012   -2182.3112    17551.321     12.05143 
    6180    1018.5178   -9148.4411   -9034.8239   -1355.9979    17550.363    12.061707 
    6190    998.66155   -9147.0605   -9035.6583   -1658.9552     17548.25     12.07604 
    6200     1011.737   -9149.3321   -9036.4713   -3364.1214    17544.755    12.086498 
    6210    1005.0345   -9149.4174   -9037.3043   -4110.6108    17538.746    12.087189 
    6220    966.11163   -9145.8393   -9038.0681   -4988.6949    17529.473    12.097402 
    6230    981.59524   -9148.2396   -9038.7411   -4188.5918    17516.461    12.106434 
    6240    954.00584   -9145.5898    -9039.169   -2884.5241     17500.23    12.106451 
    6250      1010.96   -9152.3704   -9039.5963   -402.74922    17481.907    12.110735 
    6260    972.27599   -9148.3039   -9039.8451    1799.6347    17463.313    12.113691 
    6270    998.63424   -9151.5289   -9040.1297    2567.6311    17446.123    12.098901 
    6280     983.0055   -9150.0279   -9040.3722    2968.3726    17431.079    12.095789 
    6290     970.2196   -9148.6592   -9040.4298    2786.5331    17418.428    12.105522 
    6300    983.34863   -9150.3384   -9040.6444    2991.0658    17408.073    12.103612 
    6310     957.7316   -9147.6002   -9040.7638    2789.9397    17400.136    12.098018 
    6320    997.82882   -9152.2858   -9040.9765    1184.4275     17394.34    12.100203 
    6330    994.76497   -9152.1974   -9041.2299    1577.4537    17389.692    12.101617 
    6340    939.20097   -9146.2352   -9041.4659    1784.3431    17386.256    12.089401 
    6350    1020.4284   -9155.5402   -9041.7099     718.4448    17384.103    12.065458 
    6360     1019.546   -9155.7343   -9042.0024    977.49648    17382.671    12.053367 
    6370    1024.8616   -9156.7385   -9042.4137    1960.9801    17382.066    12.047679 
    6380    1008.4943   -9155.3934   -9042.8943    2060.8218    17382.961    12.041824 
    6390    992.46655   -9153.9424   -9043.2312    1869.7291    17385.498    12.043456 
    6400    998.26693   -9155.1778   -9043.8196    1005.6221    17389.436    12.051882 
    6410    991.57857   -9155.0693   -9044.4572   -473.50105    17394.162    12.063537 
    6420    1026.3894   -9159.6272    -9045.132   -2666.5888    17398.443    12.072973 
    6430    989.51228   -9156.2656    -9045.884   -3530.5745     17400.76    12.081877 
    6440    955.47386   -9153.1633   -9046.5788   -3025.3796    17400.403    12.089178 
    6450    927.89247   -9150.5968    -9047.089   -3410.4104    17397.637    12.094884 
    6460    969.95911   -9155.7539   -9047.5535   -3323.3591    17392.286    12.092512 
    6470    941.88941   -9153.0151    -9047.946   -2726.8204    17384.456    12.090046 
    6480    956.29028   -9154.9517   -9048.2761   -3485.1389     17374.48    12.087346 
    6490     924.5379   -9151.6966    -9048.563   -3113.3222    17362.013    12.083638 
    6500    940.01162   -9153.5966   -9048.7369   -1934.9332    17347.276    12.076508 
    6510    961.73571   -9156.1015   -9048.8185   -861.27091    17331.149    12.060925 
    6520    977.93009   -9157.9862   -9048.8966   -254.61128    17314.444     12.05041 
    6530    980.87943    -9158.411   -9048.9924    1211.6972    17297.738    12.062951 
    6540    966.10852   -9156.8663   -9049.0955    2823.5546    17282.087    12.080403 
    6550     999.9502   -9160.7386   -9049.1926    4158.9451    17268.616    12.084125 
    6560    941.97298   -9154.3315    -9049.253    5854.8229    17258.425    12.091012 
    6570    955.25377     -9155.82     -9049.26    6544.3279    17252.703    12.103517 
    6580    941.81703   -9154.3623   -9049.3012    5924.9207    17251.939    12.111273 
    6590    998.62251   -9160.7061   -9049.3082     4691.995     17255.68    12.116494 
    6600    949.72151    -9155.179   -9049.2361    3002.0776    17262.917    12.120173 
    6610    992.72121   -9159.9129   -9049.1734     1495.664    17272.435    12.122608 
    6620    960.82133   -9156.2484   -9049.0674    612.06843    17283.162    12.133597 
    6630    980.48365   -9158.3929   -9049.0185   -1887.4647    17294.222    12.138195 
    6640    986.56356   -9158.9595   -9048.9068   -5109.7628    17303.761    12.133594 
    6650    996.93297   -9160.0635   -9048.8541   -5875.2643    17309.549     12.12507 
    6660    965.02863    -9156.527   -9048.8766   -5381.1936    17310.929     12.11947 
    6670    1009.3215   -9161.5418   -9048.9504   -6162.4553    17308.074    12.107078 
    6680    986.88073   -9159.1533   -9049.0653    -6063.901    17300.594    12.087783 
    6690    953.97919   -9155.7286   -9049.3108   -4393.2619    17288.589    12.067688 
    6700    951.38756    -9155.631   -9049.5023    -4175.526    17273.118    12.043927 
    6710    1037.8203   -9165.5911   -9049.8207   -3254.6559    17254.505    12.018326 
    6720    936.92975   -9154.6046   -9050.0887   -198.59255    17233.528    11.996594 
    6730    951.97089   -9156.5913   -9050.3975    3250.2834    17212.459    11.968312 
    6740     952.9281    -9156.967   -9050.6665     4547.658    17193.712    11.935205 
    6750    966.70792   -9158.7581   -9050.9204    6889.4788    17178.635    11.919606 
    6760    949.03222   -9157.0122   -9051.1462    7432.6034    17168.737    11.920452 
    6770    1027.7314   -9166.2403   -9051.5953    7004.5516    17164.412     11.91413 
    6780    945.65616   -9157.5685   -9052.0791    7863.3472    17165.494    11.912567 
    6790    940.64023   -9157.5572   -9052.6273    6740.8228    17172.409    11.919624 
    6800    976.66792   -9162.2752   -9053.3264    3878.3088    17184.398    11.939347 
    6810    956.58911   -9160.6572   -9053.9482    1818.2628    17199.451    11.976622 
    6820    963.24422   -9161.9777   -9054.5264    825.02992    17215.935    12.020221 
    6830     902.7009   -9155.7021   -9055.0044    -248.0306     17233.02    12.065615 
    6840    993.48762   -9166.2719   -9055.4469   -1644.9938     17249.86    12.112282 
    6850    931.69844   -9159.6492   -9055.7169    -2543.171    17265.449    12.154283 
    6860    996.42639   -9167.2465   -9056.0936   -3257.9531     17279.06    12.189089 
    6870    939.03721   -9161.0881   -9056.3371   -4548.4693    17289.993    12.225535 
    6880    939.59291   -9161.3893   -9056.5763   -4640.9121    17297.486      12.2491 
    6890    892.37189   -9156.2844    -9056.739   -4022.2572    17301.486    12.262941 
    6900     917.9271   -9159.1772   -9056.7811   -4692.0717    17302.333    12.284665 
    6910     936.3807   -9161.1576    -9056.703   -5444.7504    17299.621    12.317028 
    6920    933.56228   -9160.7083    -9056.568   -4378.3493    17292.867    12.338526 
    6930    934.87212   -9160.6367   -9056.3503   -3229.9281    17282.787    12.346756 
    6940    958.06137   -9162.9299   -9056.0567   -2182.1229    17270.233    12.362629 
    6950    938.53682   -9160.3701    -9055.675   -688.60205    17256.121    12.391755 
    6960    1000.1444   -9166.8002   -9055.2326   -649.86413    17241.443    12.410926 
    6970    1014.2599   -9167.8591   -9054.7168    493.22481    17226.381    12.420327 
    6980    993.25328   -9165.1387   -9054.3398    3489.7404    17211.881    12.445514 
    6990    952.54739   -9160.5092   -9054.2511    4304.4197    17199.906    12.476868 
    7000    991.83069   -9164.5072    -9053.867    4281.1535    17191.178    12.484757 
    7010    960.10755    -9160.551   -9053.4495    4766.5351    17185.752    12.489155 
    7020    999.53893   -9164.6324   -9053.1323    5678.2382    17183.977    12.513044 
    7030     942.8733   -9157.7059   -9052.5269    4786.2215    17186.318    12.540463 
    7040    1047.5302   -9168.8794   -9052.0259    2852.8512    17192.181    12.568536 
    7050    987.43549   -9161.6786   -9051.5287    2813.5662    17200.291    12.602835 
    7060    973.82729   -9159.7661   -9051.1342    3773.6256     17210.59    12.637017 
    7070    962.70428   -9158.0548   -9050.6637    2058.1837    17223.557    12.663608 
    7080    990.92846   -9160.6953   -9050.1557    17.215178    17238.088    12.683464 
    7090    960.58068    -9156.715   -9049.5608   -1670.2322    17252.683    12.708409 
    7100    1060.1865   -9167.2549   -9048.9895   -4129.6169    17265.949    12.725907 
    7110    999.31063   -9159.9054   -9048.4308   -5026.7563    17276.199    12.739351 
    7120    975.29466   -9156.6876    -9047.892   -6022.8088    17282.603    12.755187 
    7130    970.54333   -9155.7543   -9047.4887   -6399.1491    17284.491     12.75973 
    7140    988.82782   -9157.2886   -9046.9833   -4984.4288     17281.64    12.748859 
    7150    1004.6651    -9158.677   -9046.6051   -3031.2084    17275.014    12.742819 
    7160    997.30272   -9157.4707   -9046.2201   -1732.4803    17266.056    12.745647 
    7170    1032.0056   -9161.0186   -9045.8968   -1295.0277    17255.721    12.738364 
    7180    1016.5981   -9159.0326   -9045.6296    1046.0736    17244.551    12.727354 
    7190    973.04884   -9153.9244   -9045.3794    3288.1663    17234.221     12.73077 
    7200    1034.2731   -9160.4875   -9045.1128    4263.9957    17226.327    12.739891 
    7210    992.21356   -9155.5782   -9044.8953    5613.6637    17221.754    12.751273 
    7220    1024.2899   -9159.0065   -9044.7454    5179.3564    17221.356    12.770516 
    7230    1000.6107   -9156.2872   -9044.6675    3863.5387    17224.848    12.787824 
    7240    1038.8281   -9160.4519    -9044.569    2661.2961    17231.285    12.788851 
    7250    1008.9499   -9157.2023   -9044.6524    397.31728    17239.641    12.789008 
    7260     1053.455   -9162.5776   -9045.0631   -547.75267    17248.414    12.800908 
    7270    1011.1408   -9158.3744   -9045.5801   -847.96965    17256.798    12.816444 
    7280    1054.5346   -9163.8727   -9046.2378   -1165.5599    17264.552    12.820905 
    7290    1004.2383   -9159.2411   -9047.2168   -2430.5207    17271.332    12.825234 
    7300    1025.9147   -9162.8467   -9048.4044   -2689.7763    17276.313    12.837255 
    7310    972.41174   -9158.1132   -9049.6392   -3030.3483    17279.219    12.849057 
    7320    1002.9607   -9162.7658    -9050.884   -4075.9203     17279.74    12.861895 
    7330    987.74733   -9162.1822   -9051.9975   -5899.7261    17277.058    12.883575 
    7340    1047.8614   -9169.9959   -9053.1054    -6981.535    17269.858     12.89666 
    7350    967.84956   -9162.0064   -9054.0414   -4516.4019    17257.535    12.898229 
    7360    1018.4264   -9168.5287   -9054.9217   -2271.3716    17241.661    12.908787 
    7370    959.17728   -9162.5856   -9055.5879    632.16282    17224.094    12.932812 
    7380    1008.0786   -9168.7002   -9056.2475    2647.3503    17206.904    12.948267 
    7390    968.57661    -9164.719   -9056.6728    2694.3568    17191.563    12.969193 
    7400    1021.5951   -9171.1693   -9057.2088    1321.1342    17178.121    13.007077 
    7410    964.25856   -9165.1916   -9057.6271    624.89088    17165.725    13.031165 
    7420    983.46374   -9167.7978    -9058.091    954.84495    17153.892    13.026721 
    7430    953.75928   -9164.9187   -9058.5254    3579.0512    17142.986    13.027722 
    7440    928.01048    -9162.432    -9058.911    5065.4801    17134.753    13.042364 
    7450    974.82848   -9167.9617   -9059.2181    4233.8815    17130.228    13.055362 
    7460    961.83763   -9166.7248   -9059.4304    3047.7255    17128.877    13.071655 
    7470    1007.8389   -9172.2742   -9059.8483    3525.5857    17129.933     13.09855 
    7480    915.81094   -9162.1155   -9059.9554    4934.0019      17133.7    13.118094 
    7490    1021.0195   -9174.1473    -9060.251    3550.6837    17140.973    13.113532 
    7500     951.3469   -9166.5127   -9060.3885    2375.9282    17150.948     13.11184 
    7510    976.03241   -9169.4851   -9060.6072    1497.9664    17162.785    13.119532 
    7520    942.47531   -9165.8405   -9060.7059   -1320.0059    17175.653    13.125938 
    7530    972.94137   -9169.3294   -9060.7963   -3132.0414    17187.632    13.126052 
    7540    934.39594   -9165.1064   -9060.8732   -3632.9166    17197.394    13.129597 
    7550    953.62431   -9167.2514   -9060.8732   -3931.8081    17204.468    13.126586 
    7560    946.26546   -9166.2353    -9060.678   -4193.6393    17208.564    13.113587 
    7570    954.73716   -9167.1151   -9060.6128   -2772.6914    17209.588     13.09536 
    7580    905.26403   -9161.4511   -9060.4675   -1209.8079    17208.522    13.071318 
    7590    941.11268   -9165.2045   -9060.2219    683.40058    17206.585      13.0439 
    7600    924.20808   -9162.9461   -9059.8493    1994.0552    17205.193    13.023726 
    7610    943.59294   -9164.6647   -9059.4055    1135.2988    17205.244     13.00877 
    7620    1005.2771   -9170.5826   -9058.4424    123.27691    17206.189    12.998898 
    7630    940.29055   -9162.7775   -9057.8867   -1065.3412    17207.231    13.002255 
    7640    991.65227   -9167.7505   -9057.1302   -3783.0922    17207.342    13.006595 
    7650    964.46691   -9164.1421   -9056.5544   -5343.7324    17204.654    13.005974 
    7660    974.14006   -9164.6324   -9055.9656   -5204.6805    17197.966    13.000524 
    7670    959.02791   -9162.3481   -9055.3671   -3885.9575    17187.405    12.982298 
    7680    923.14138   -9157.7189   -9054.7411   -1691.8577    17173.967    12.962693 
    7690    1001.9773     -9165.88   -9054.1079    -69.56874    17159.085    12.947987 
    7700    955.95636   -9159.9401   -9053.3017    2127.6213    17144.073    12.939175 
    7710    1029.9651   -9167.5505   -9052.6564    4005.5078     17130.54     12.92298 
    7720    962.52111   -9159.3901   -9052.0194    4098.9367    17119.827    12.917784 
    7730    969.88782   -9159.7032   -9051.5108    3270.2357    17112.114    12.928381 
    7740    975.07769   -9159.8133   -9051.0419    1755.8512    17106.815    12.946153 
    7750    1032.0853   -9165.7929   -9050.6623    1019.2205    17102.851    12.965994 
    7760     978.7075   -9159.4631   -9050.2868    1096.5177    17099.599     12.98767 
    7770    1008.2318   -9162.4835   -9050.0137   -515.49659    17096.997    13.013471 
    7780    1052.7501   -9167.2594   -9049.8236   -810.26806    17094.158      13.0419 
    7790    980.46367   -9159.2277   -9049.8555    1063.3114    17090.861    13.060541 
    7800    969.42214   -9158.0431   -9049.9026    1322.8361    17088.194    13.058638 
    7810    1062.7347   -9168.4303   -9049.8806    1307.6938     17086.48    13.034372 
    7820    977.45584   -9159.0081   -9049.9714    1524.7472    17085.616    13.006449 
    7830    981.42266   -9159.6547   -9050.1756    1828.4181    17085.857    12.983251 
    7840    962.28166   -9157.6485   -9050.3045    1149.7169    17087.365    12.962832 
    7850    1033.5138   -9165.7878   -9050.4978    247.08153     17089.72    12.949802 
    7860    990.21894   -9161.1199   -9050.6595   -666.39133    17092.234    12.942263 
    7870    1056.4413   -9168.7726    -9050.925   -971.46426    17094.259    12.935734 
    7880    1035.1763   -9166.7261   -9051.2506    43.150486    17095.662    12.935514 
    7890    981.69419   -9161.2602   -9051.7507    1273.1012    17097.108    12.940246 
    7900    1002.8404   -9164.1847   -9052.3163    756.22278    17099.407    12.934772 
    7910    994.43643   -9163.7162   -9052.7854   -1177.0371     17102.16    12.917204 
    7920    998.58261   -9164.6841   -9053.2908   -2311.3316    17104.095    12.909072 
    7930    967.61488   -9161.7524   -9053.8135   -3695.4547    17104.318    12.911464 
    7940    1009.4511   -9166.9263   -9054.3205   -4840.3246    17101.797    12.900786 
    7950    1014.2313   -9168.0356   -9054.8965   -3580.4166    17095.821    12.882536 
    7960    968.11034   -9163.3923   -9055.3982   -2418.9166    17087.092    12.881633 
    7970     998.3116   -9167.1392    -9055.776   -1809.3148    17076.433    12.900993 
    7980    966.09248    -9163.859   -9056.0899   -1705.5135    17064.306    12.915338 
    7990    1007.0359    -9168.741   -9056.4046   -1853.6441    17050.781    12.907458 
    8000    976.35284   -9165.6196   -9056.7059   -532.78559    17035.916    12.898086 
    8010    1026.3548   -9171.5524    -9057.061    1280.6488    17020.594    12.895675 
    8020    990.00452   -9167.8448   -9057.4083    4044.2453    17006.246    12.889968 
    8030    980.78291   -9167.1565   -9057.7487    5998.0987    16994.768    12.890432 
    8040    1023.4678   -9172.2522   -9058.0828    6082.4438    16987.593    12.917447 
    8050    1014.7562    -9171.624   -9058.4265    5729.7494    16984.933    12.959042 
    8060    1023.5125   -9173.0392   -9058.8648    4735.5678    16986.507    12.990505 
    8070    1002.4732   -9171.1471   -9059.3197    3680.4183    16991.645      13.0145 
    8080    950.30919   -9165.8084      -9059.8    3766.7555    16999.682    13.031721 
    8090    953.44859   -9166.5901   -9060.2315    1626.0615    17010.468    13.034531 
    8100    969.03504   -9168.6804   -9060.5831   -752.98395    17022.628    13.039529 
    8110    967.16067   -9168.7823    -9060.894   -2057.5975    17034.467     13.05575 
    8120    959.68157    -9168.199   -9061.1451    -2415.682    17044.996    13.066833 
    8130    961.22618   -9168.5998   -9061.3735   -2297.2946    17053.911    13.063485 
    8140    967.88365   -9169.5657   -9061.5968   -3213.9319    17061.129    13.067329 
    8150    941.38016   -9166.7369   -9061.7245   -3747.9565    17066.111    13.079376 
    8160    974.40874   -9170.5958   -9061.8991   -4816.4676    17068.334     13.07347 
    8170    992.04272    -9172.756   -9062.0921   -5027.9191    17067.073     13.05809 
    8180    1006.6205   -9174.6675   -9062.3775   -3823.4098    17062.149    13.062535 
    8190    946.09131   -9168.2055   -9062.6676   -1453.8536    17054.392    13.078861 
    8200    1018.0332    -9176.562   -9062.9988    1364.8639    17045.469    13.083482 
    8210    948.30697   -9169.0235   -9063.2384    3435.8886    17037.347    13.092927 
    8220    1013.4842    -9176.554   -9063.4983    3798.3421      17031.6    13.103509 
    8230    1004.6705   -9175.7996   -9063.7271      1792.33    17028.416    13.099749 
    8240    1015.7829   -9177.4315   -9064.1194    2655.1824    17026.754     13.09188 
    8250    893.67269   -9164.1513   -9064.4608    3646.9061    17027.048     13.09096 
    8260    1008.6019   -9177.3177   -9064.8067    2990.0683    17029.938    13.089376 
    8270    950.35526   -9171.1278   -9065.1142    3000.0844    17035.162    13.102296 
    8280     979.8241   -9174.8137   -9065.5129    3188.3029    17042.689    13.127983 
    8290    941.15416   -9170.8731   -9065.8859    3175.6382    17052.717    13.165076 
    8300    990.18236   -9176.7638   -9066.3075    1892.1874    17065.168    13.202606 
    8310    944.26437   -9171.9795   -9066.6454    366.88489    17079.179    13.232159 
    8320    990.09938   -9177.5044   -9067.0573   -728.80492    17093.608    13.243131 
    8330    903.00604   -9168.0698   -9067.3381   -1222.4938    17107.684    13.251408 
    8340    976.85765   -9176.7129    -9067.743   -2879.6113    17120.896    13.261183 
    8350    888.66137    -9166.912   -9067.7805   -5502.5246    17131.935    13.274933 
    8360     978.0424   -9177.4234   -9068.3213   -8745.5927    17138.804    13.284013 
    8370    957.73267   -9175.1599   -9068.3234   -11153.278    17139.071    13.290596 
    8380    981.20044   -9177.8066   -9068.3522   -9796.3519    17131.109    13.296494 
    8390    906.87534   -9169.5077   -9068.3444   -6946.3377    17115.768    13.295494 
    8400    931.87225   -9172.1145   -9068.1628   -4064.1266     17095.13    13.278531 
    8410     955.3651   -9174.4064    -9067.834   -1761.1172    17071.285    13.253425 
    8420    924.93393    -9170.437   -9067.2592    542.22587    17046.068    13.235068 
    8430    964.48133   -9174.0675   -9066.4781     2111.246    17021.163    13.214243 
    8440     956.0974   -9172.1081    -9065.454    3931.3619    16997.881    13.196413 
    8450    986.76972   -9174.4679   -9064.3922     6264.795    16977.577    13.195529 
    8460     942.1245   -9168.3909   -9063.2955      7990.55    16961.827    13.203824 
    8470    958.19723   -9169.0489   -9062.1606    9425.4084    16951.968    13.201116 
[...]
   22890    927.41339   -9209.1587   -9105.7044    -932.4906    17726.649    21.545363 
   22900    910.71294    -9207.527   -9105.9356    778.24026    17719.329    21.535423 
   22910    933.17068   -9209.9093   -9105.8127    2659.0348    17712.665    21.505777 
   22920    958.76232    -9212.612   -9105.6607     3869.699    17708.118    21.482835 
   22930     950.9195   -9211.6011   -9105.5246    3759.1683    17706.621    21.470696 
   22940    1005.0947   -9217.4055   -9105.2857    2761.0563    17708.077    21.466152 
   22950    972.01341   -9213.4729   -9105.0433    1383.1187    17711.659    21.491177 
   22960    994.89563   -9215.9498   -9104.9677    1653.7283    17716.481    21.536481 
   22970    885.73798   -9203.4502   -9104.6448     2352.284    17722.669    21.565877 
   22980    968.98046   -9212.4602    -9104.369     1486.315    17730.645    21.563251 
   22990    947.94331   -9209.8219   -9104.0774    1241.0977    17739.955    21.550764 
   23000    958.90438   -9210.7405   -9103.7733    1510.9258    17750.404    21.531524 
   23010    948.31687   -9209.2759   -9103.4897    1625.9992    17762.197    21.513501 
   23020    962.53594    -9210.605   -9103.2327    2231.8041    17775.431     21.52297 
   23030    919.27486   -9205.4896   -9102.9432    1141.2361    17790.427      21.5672 
   23040    974.31568   -9211.2565   -9102.5702   -1627.2684    17806.363      21.6235 
   23050     951.8529   -9208.4423   -9102.2616   -3538.3813    17821.185    21.691684 
   23060    956.43256   -9208.6432   -9101.9517   -5617.6883    17833.206    21.769717 
   23070    973.50436   -9210.2915   -9101.6956   -5929.0063    17840.837     21.83356 
   23080    939.87331   -9206.3307   -9101.4864   -4912.1138    17843.748    21.873942 
   23090     974.9866   -9210.0859   -9101.3247   -4530.2683    17842.603    21.908231 
   23100    951.84123   -9207.3596   -9101.1802    -3320.422    17837.866    21.950043 
   23110    964.85065   -9208.7244   -9101.0939   -2325.7686    17830.457    21.999389 
   23120     952.5448   -9207.1511   -9100.8933   -2192.1701    17821.051    22.056461 
   23130    925.04304   -9203.8854   -9100.6954   -713.17987     17809.99    22.108307 
   23140    882.94065   -9198.8158   -9100.3224   -221.85856    17798.264    22.138091 
   23150    986.00571   -9209.9729   -9099.9825    -347.2119    17786.305    22.144851 
   23160    960.63909   -9206.5909   -9099.4301    -562.8764    17773.989    22.157969 
   23170    1009.1361   -9211.6418   -9099.0711     1141.708    17761.353    22.192164 
   23180    928.06665    -9202.116   -9098.5888     3531.856    17749.713    22.237934 
   23190    1008.4607   -9210.7184   -9098.2231    4155.5946    17740.801    22.270499 
   23200    1015.3781    -9211.102    -9097.835    4192.8993    17735.184    22.293011 
   23210    1030.4624   -9212.6272   -9097.6775    5890.2208     17733.07    22.319271 
   23220     976.1833   -9206.4499   -9097.5552     6182.645    17735.533    22.344181 
   23230    1007.8673   -9210.0106   -9097.5815    5640.5943    17742.928    22.362172 
   23240    969.47549   -9205.6994    -9097.553    4540.7948    17754.816     22.37949 
   23250    1015.5623   -9210.9721   -9097.6846    2637.9201    17770.315    22.390097 
   23260     963.3271   -9205.1638   -9097.7032    374.67367     17787.86    22.397594 
   23270    960.25374   -9204.8461   -9097.7283   -813.90295    17805.703    22.407821 
   23280    921.69793   -9200.4578   -9097.6411   -1436.1458    17822.918     22.41847 
   23290    950.76608   -9203.5381   -9097.4787   -3509.9272    17838.779    22.413226 
   23300    976.29366    -9206.009   -9097.1019      -4384.5    17851.804    22.398374 
   23310    955.89022   -9203.4828   -9096.8518   -3225.5863    17861.329    22.380305 
   23320    974.17372   -9205.1882   -9096.5176   -1137.3851    17868.259    22.349723 
   23330    963.71817    -9203.821   -9096.3168    391.22822    17874.212    22.297369 
   23340    971.21032   -9204.3346   -9095.9946    114.57371    17880.259    22.234122 
   23350    975.13879   -9204.7266   -9095.9484   -75.754948    17886.395    22.192652 
   23360    1001.6665   -9207.4405   -9095.7031   -1250.4223    17892.307    22.174192 
   23370    960.79422   -9202.6045   -9095.4264   -1621.1339    17897.211     22.17161 
   23380    1037.5069   -9211.0261   -9095.2906   -1554.7112    17900.747    22.180454 
   23390     984.6019   -9204.7714   -9094.9376   -2033.2015    17902.858    22.197263 
   23400    1049.2578   -9211.4363     -9094.39   -1306.0185    17903.359    22.218195 
   23410    942.23957   -9199.2635   -9094.1553   -1049.7414    17902.634    22.237995 
   23420    1034.4949   -9209.4065   -9094.0071   -1656.5518    17900.918    22.244121 
   23430    995.81198   -9204.7859   -9093.7016   -1614.7351    17897.839    22.253318 
   23440    960.66854   -9200.6286   -9093.4646    317.78877    17893.602    22.275599 
   23450    981.03669   -9202.6675   -9093.2314    1897.6866    17889.628    22.306478 
   23460    957.23735   -9199.7512   -9092.9699    2128.8116    17887.114    22.349791 
   23470    991.35815   -9203.1865    -9092.599    2665.5655    17886.435    22.399653 
   23480    1010.3848   -9205.1025   -9092.3925    2430.8282    17887.929    22.453321 
   23490    987.28831   -9202.1658   -9092.0323    1876.6309     17891.43     22.50727 
   23500    950.29025   -9197.5323    -9091.526    1052.5586    17896.486    22.554168 
   23510    993.27841   -9201.8822   -9091.0805   -486.22886    17902.361    22.585408 
   23520    1027.1326   -9205.1186   -9090.5404   -895.79355    17907.935    22.601087 
   23530     963.3957   -9197.4392   -9089.9709   -1644.4819    17912.711    22.624133 
   23540    1085.0946   -9210.9083   -9089.8644   -4125.4602    17915.927    22.657035 
   23550    977.87196   -9198.4834   -9089.4003   -4708.9323    17915.798     22.68478 
   23560    1023.9859   -9203.3474   -9089.1202   -4202.0956    17911.809     22.69271 
   23570    1021.6672   -9202.8381   -9088.8696   -2748.6764    17904.443    22.694471 
   23580    981.61339   -9198.2345    -9088.734     246.7285    17895.018    22.684164 
   23590    1050.7073   -9205.4953   -9088.2873     1918.911    17885.775    22.657207 
   23600    988.31022   -9198.6114   -9088.3639    3479.8968    17878.189    22.621888 
   23610    1002.8876   -9200.3839   -9088.5102    3908.2765    17873.417    22.588135 
   23620    1019.0249   -9202.3773   -9088.7035    4208.6142    17871.934    22.567441 
   23630    967.92684   -9197.0258   -9089.0521    5596.5568    17874.088    22.556424 
   23640    1030.0874   -9204.2721   -9089.3643    4060.7098    17880.605    22.558978 
   23650    961.54798     -9197.07   -9089.8079    2013.4438    17890.444    22.584496 
   23660    1053.4783   -9207.9947   -9090.4776   -572.36739    17901.834    22.618201 
   23670    1020.8311   -9204.8885   -9091.0133   -2859.1854    17912.576    22.648498 
   23680    959.23997   -9198.6867    -9091.682   -766.77334    17921.291    22.669496 
   23690    952.93426   -9198.7372   -9092.4359    579.97899    17929.386    22.681862 
   23700    999.98853   -9204.8234   -9093.2731   -1243.5817    17937.769    22.697965 
   23710    1047.4629   -9210.8839   -9094.0379   -1095.8382      17945.3    22.715178 
   23720    905.19132   -9195.7126   -9094.7371    562.87509        17952    22.734155 
   23730    989.55716   -9205.8007   -9095.4141   -1131.4441    17958.861    22.761756 
   23740    958.35638   -9202.8431   -9095.9371   -2290.5173     17964.89    22.795035 
   23750     938.5415   -9201.1086   -9096.4129    -2733.548    17969.102    22.815565 
   23760      1015.31     -9210.14   -9096.8806   -4586.8164    17970.893    22.811472 
   23770    923.75598   -9200.0638   -9097.0175   -5057.3554    17968.946    22.803869 
   23780    958.84341   -9204.2706   -9097.3101   -5166.7317    17962.734    22.807536 
   23790    946.15834   -9203.0224   -9097.4771   -4114.6869    17952.355    22.817465 
   23800    941.60012   -9202.6211   -9097.5842   -2506.3012    17938.676    22.821582 
   23810    945.82263   -9203.1165   -9097.6086   -995.78452    17922.951    22.814304 
   23820    951.40745   -9203.7052   -9097.5743    716.02388    17906.474    22.804293 
   23830    1048.0361     -9214.48     -9097.57    2723.4426    17890.586    22.795018 
   23840    959.81315   -9204.6156    -9097.547    4902.4809    17876.904    22.791463 
   23850    986.99305   -9207.6911   -9097.5906    6278.8543    17867.169    22.810432 
   23860    923.26057    -9200.544   -9097.5529    6288.9572    17862.489    22.840571 
   23870    1010.3604   -9210.3188   -9097.6116    3910.3213    17862.753     22.86641 
   23880    928.95754   -9201.0973   -9097.4707    2378.4692    17866.245     22.89428 
   23890    995.93756   -9208.5462   -9097.4478    2263.6498    17871.765    22.931902 
   23900    944.66134    -9202.668   -9097.2896     2609.503    17879.174    22.969848 
   23910    983.57551   -9206.6309   -9096.9115    1847.2614    17888.589    22.989113 
   23920    973.08443   -9205.3006   -9096.7516    1229.6713    17899.552    23.000147 
   23930    977.38588    -9205.583   -9096.5541    1515.9561    17911.632     23.01622 
   23940    992.07774   -9207.0506   -9096.3829    1228.3359    17925.022    23.035825 
   23950    983.37817   -9205.9507   -9096.2533   -45.058641    17939.503    23.050598 
   23960    1004.9705   -9208.2874   -9096.1814   -1500.4759    17953.962    23.061354 
   23970    951.60465   -9202.1851   -9096.0321   -2036.0136    17967.255    23.079512 
   23980    969.55231   -9203.9844   -9095.8294   -4275.8324    17978.705    23.105123 
   23990    1019.9922   -9209.3861   -9095.6044   -6012.6893    17986.704    23.123017 
   24000    978.35509   -9204.5795   -9095.4426   -6799.0307    17989.767     23.13068 
   24010    959.51782   -9202.3199   -9095.2843   -6111.7947    17987.293    23.123448 
   24020    1018.1248   -9208.7359   -9095.1625   -3909.9576    17979.852     23.10834 
   24030    959.60445   -9202.1112   -9095.0659   -1704.9634    17969.089    23.086792 
   24040    960.73309   -9201.9935   -9094.8223   -696.20838    17956.787    23.060971 
   24050    998.50896   -9205.9762   -9094.5911    381.00844    17943.898    23.036281 
   24060    949.34442   -9200.0208     -9094.12    1084.3764    17931.178    23.031383 
   24070    993.59987   -9204.4516   -9093.6141    2370.1039    17919.335    23.044847 
   24080    979.18984   -9202.2909   -9093.0608    3929.5386    17909.477    23.067028 
   24090    974.00135   -9200.9934   -9092.3421    2837.9786    17902.692    23.088856 
   24100    1016.8906   -9205.1026   -9091.6669    1436.0876    17898.278    23.108412 
   24110    977.49093   -9200.1065   -9091.0659    1273.2471    17895.109    23.127928 
   24120    1087.6288   -9211.9356    -9090.609    2898.3145    17893.075    23.154111 
   24130    980.62806   -9199.2736   -9089.8831    3649.3228    17893.231    23.200996 
   24140    1043.7874   -9205.9752   -9089.5391    3056.4263    17896.277    23.267596 
   24150    1015.2768   -9202.3401   -9089.0845    1348.8291    17901.674    23.341135 
   24160    1004.2119   -9200.9467   -9088.9253    1580.4712    17908.306    23.406276 
   24170    952.18395   -9194.8992   -9088.6817    2917.6113    17916.403    23.446516 
   24180     982.1976   -9198.0046    -9088.439    2519.5096    17926.818    23.459354 
   24190    990.32725   -9198.3603   -9087.8879    1508.7139    17939.385    23.464501 
   24200    957.56928    -9194.585   -9087.7667    520.36208    17953.321    23.473859 
   24210    989.37657    -9197.934   -9087.5676   -1574.3437    17967.679    23.489755 
   24220     999.2469   -9198.8834   -9087.4159   -3190.8344    17980.888    23.508383 
   24230    966.01125   -9194.9638   -9087.2038   -4279.7101    17991.566    23.524393 
   24240    1018.0328   -9200.4029   -9086.8398    -4790.201     17998.82    23.528097 
   24250     992.9602   -9197.5902    -9086.824   -3638.7854    18002.293    23.515651 
   24260    976.34521   -9195.7774   -9086.8646   -2607.4361    18002.716    23.484601 
   24270    1052.5453   -9204.3967   -9086.9837   -1755.7006    18000.955    23.438905 
   24280    1004.3283   -9199.0571   -9087.0227   -748.69484     17997.68    23.397206 
   24290    1048.4681   -9204.3471   -9087.3889   -230.05615    17993.679    23.359255 
   24300    988.26762   -9198.0024   -9087.7597    233.88055    17989.453    23.337487 
   24310    1004.0987   -9200.2614   -9088.2527     668.1979    17985.386    23.338185 
   24320    1018.8782   -9202.6518   -9088.9944    -190.0116    17981.761    23.355178 
   24330     1009.442   -9202.5418   -9089.9371   -1493.5279    17977.961    23.371158 
   24340     1030.539   -9205.9338   -9090.9756   -1254.8348    17973.004     23.37224 
   24350    952.36457   -9198.1702   -9091.9325   -825.97458    17966.912    23.362072 
   24360    1008.9237   -9205.4377   -9092.8908    -1118.079    17960.003    23.354094 
   24370    952.12798   -9199.7617   -9093.5503    104.70172    17952.281    23.360401 
   24380    967.57798   -9202.2688    -9094.334    1277.1653    17944.576    23.365304 
   24390    963.54362   -9202.5779   -9095.0931    2038.2528    17937.907    23.360024 
   24400    981.15256   -9205.1059   -9095.6569    2823.9297    17932.973    23.352349 
   24410     979.7983    -9205.429    -9096.131    4269.4464    17930.479    23.340472 
   24420    958.94538   -9203.5334   -9096.5616    5345.1657    17931.561    23.323138 
   24430    1040.8413   -9213.3124    -9097.205    4945.3332    17936.969    23.321086 
   24440    971.50244   -9205.7971   -9097.4245    3664.9759    17946.373    23.344796 
   24450    984.16811   -9207.5879   -9097.8025    2385.8344      17958.9    23.381157 
   24460    929.75685   -9201.8472   -9098.1314    1853.7165    17973.681    23.429108 
   24470     958.7433   -9205.3515   -9098.4023   -285.51098    17990.043    23.489139 
   24480    926.63956   -9201.8983   -9098.5302   -3318.8954    18006.272    23.554607 
   24490    987.90499   -9208.7976   -9098.5953   -5676.9779    18019.951    23.624907 
   24500    957.88649   -9205.4803   -9098.6266   -7195.9607    18029.061    23.704342 
   24510    914.90644   -9200.7328   -9098.6736   -7474.7886    18032.313    23.774326 
   24520    936.65714   -9203.0897   -9098.6042   -7410.0527    18029.384    23.832741 
   24530      930.959   -9202.3508   -9098.5009   -6688.4491    18020.313    23.879189 
   24540    976.82629   -9207.3074    -9098.341    -4777.714    18005.696    23.898436 
   24550     1004.155   -9210.2097   -9098.1947   -3039.7141    17986.974    23.893247 
   24560    979.62047   -9207.4718   -9098.1937    332.87016    17965.783    23.871927 
   24570    925.79782   -9201.3576   -9098.0835    3235.8468    17944.723    23.831506 
   24580    965.98281   -9205.5501   -9097.7932     5349.561    17926.215    23.773563 
   24590    969.50689   -9205.7415   -9097.5916    6684.4647    17912.008    23.723028 
   24600    1002.0255   -9209.1453   -9097.3679    6268.9347    17903.154    23.698564 
   24610    997.56854   -9208.5366   -9097.2563     4855.509     17899.38    23.704075 
   24620    966.38143   -9205.0317   -9097.2304     3649.979    17899.665    23.725754 
   24630    932.23531   -9201.1577   -9097.1655    2917.2595    17903.082     23.74317 
   24640    1022.8642    -9211.244   -9097.1419    2229.5957    17908.926    23.744628 
   24650    986.47841   -9206.8528   -9096.8096    1545.1454    17916.547    23.736877 
   24660    978.12452    -9205.765   -9096.6537    1221.6259    17925.485    23.734044 
   24670    965.64957   -9204.1516    -9096.432   -881.28624    17935.341    23.731059 
   24680    1029.5619   -9211.0255   -9096.1763   -3023.5037      17944.5    23.720658 
   24690    983.33901   -9205.6587   -9095.9657   -2957.6148    17951.399    23.720357 
   24700    1030.3612   -9210.8388   -9095.9005   -2010.6979     17955.94    23.718902 
   24710    990.34838   -9206.3002   -9095.8253    178.93634    17958.894    23.700761 
   24720    1032.9134   -9211.1873   -9095.9642    2402.7038    17962.002    23.679498 
   24730    956.87862   -9202.8037   -9096.0625    2234.2425    17966.892    23.663552 
   24740    1046.1221   -9213.0511   -9096.3546    1230.8621    17973.594     23.65015 
   24750    915.86679   -9198.7034   -9096.5371    567.19596     17981.32    23.649218 
   24760    999.05922     -9208.24   -9096.7935    -1074.377     17989.45    23.666478 
   24770    988.12794   -9207.1301   -9096.9029   -3512.1646    17996.615    23.687258 
   24780    1007.1065   -9209.5978   -9097.2536   -4643.5288    18000.932    23.704894 
   24790    937.32903   -9202.0914    -9097.531   -4832.3756    18001.389    23.734661 
   24800    1002.2184   -9209.7653   -9097.9663   -4789.7608    17997.747    23.771458 
   24810    950.38754   -9204.3732    -9098.356   -3347.5116    17990.155    23.808752 
   24820    973.46151   -9207.4044   -9098.8133   -1203.7071    17979.758     23.83896 
   24830    950.29531   -9205.1515   -9099.1447   -142.49547      17968.2     23.85292 
   24840    989.67659   -9209.9135   -9099.5136   -218.19595    17956.378    23.842911 
   24850    929.39848   -9203.5865   -9099.9107    1452.8643    17944.561    23.826276 
   24860    968.69072   -9208.3444   -9100.2855     3474.883    17933.939    23.829744 
   24870    932.05883   -9204.4105    -9100.438    5138.6234    17926.124    23.843661 
   24880    983.43271   -9210.5252   -9100.8218    7243.3329    17922.565     23.84145 
   24890    908.14253   -9202.3387    -9101.034    7582.1328    17924.837    23.844976 
   24900    974.43943   -9209.9391    -9101.239    5317.1991    17933.216    23.863797 
   24910    953.90563   -9207.8445   -9101.4349    3191.0895     17946.09    23.891532 
   24920    947.23141   -9207.2713   -9101.6062    1602.1238    17961.708     23.93793 
   24930    912.28171   -9203.4609   -9101.6946     299.5728    17978.789    24.010287 
   24940    958.94121   -9208.6255   -9101.6541   -2441.4308    17996.037    24.074848 
   24950    954.74378   -9208.0056   -9101.5025    -5129.396    18011.306    24.107532 
   24960    963.27393   -9208.7609   -9101.3062   -6877.6581    18022.406    24.109388 
   24970    956.18131   -9207.8121   -9101.1486   -7543.1257    18027.871    24.081655 
   24980    963.70679   -9208.4221   -9100.9192   -7496.4131    18027.104     24.02919 
   24990    955.92355   -9207.3907   -9100.7559    -5827.667    18020.242    23.964963 
   25000    964.75206   -9208.1759   -9100.5563   -4781.4577     18008.52    23.887713 
Loop time of 13697.6 on 16 procs for 20000 steps with 864 atoms

Performance: 0.126 ns/day, 190.245 hours/ns, 1.460 timesteps/s
97.0% CPU use with 16 MPI tasks x 1 OpenMP threads

MPI task timing breakdown:
Section |  min time  |  avg time  |  max time  |%varavg| %total
---------------------------------------------------------------
Pair    | 2112.8     | 7521.1     | 13608      |4942.6 | 54.91
Bond    | 0.0015173  | 0.0052023  | 0.013023   |   4.4 |  0.00
Neigh   | 0.12451    | 0.37256    | 0.6751     |  34.6 |  0.00
Comm    | 34.046     | 5080.8     | 10667      |5196.0 | 37.09
Output  | 1.5788     | 1.6546     | 2.7855     |  22.7 |  0.01
Modify  | 52.47      | 1093.6     | 4970.9     |4587.0 |  7.98
Other   |            | 0.1082     |            |       |  0.00

Nlocal:        54.0000 ave          88 max          22 min
Histogram: 5 1 0 2 0 2 0 0 2 4
Nghost:        531.500 ave         803 max         261 min
Histogram: 2 2 0 2 1 3 2 1 1 2
Neighs:         0.00000 ave           0 max           0 min
Histogram: 16 0 0 0 0 0 0 0 0 0
FullNghs:      3091.88 ave        6244 max         533 min
Histogram: 5 1 2 0 2 0 0 2 0 4

Total # of neighbors = 49470
Ave neighs/atom = 57.256944
Ave special neighs/atom = 0.0000000
Neighbor list builds = 2000
Dangerous builds = 2000
unfix   3
                
Total wall time: 4:47:00
