LAMMPS (29 Sep 2021 - Update 3)
OMP_NUM_THREADS environment is not set. Defaulting to 1 thread. (src/comm.cpp:98)
  using 1 OpenMP thread(s) per MPI task
units	metal
atom_style	full

read_data	mixed.data
Reading data file ...
  orthogonal box = (0.0000000 0.0000000 0.0000000) to (15.969932 15.719106 81.083077)
  2 by 1 by 8 MPI processor grid
  reading atoms ...
  864 atoms
Finding 1-2 1-3 1-4 neighbors ...
  special bond factors lj:    0        0        0       
  special bond factors coul:  0        0        0       
     0 = max # of 1-2 neighbors
     0 = max # of 1-3 neighbors
     0 = max # of 1-4 neighbors
     1 = max # of special neighbors
  special bonds CPU = 0.006 seconds
  read_data CPU = 0.023 seconds

pair_style	quip
pair_coeff	* * /ocean/projects/cts180021p/wuziqi/clease/mint-PD/PhaseDiagram-Clease/Liquid/GAP_potential/gap_LiKCl.xml "Potential xml_label=GAP_2021_9_27_0_1_17_37_618" 17 19 3

neighbor	0.3 bin
neigh_modify	delay 10

timestep	0.001
compute	msd all msd
thermo_style	custom step temp pe etotal press vol c_msd[4]
thermo	10
dump	1 all custom 10 xyz-mix.dump type id x y z
dump	2 all custom 10 force-mix.dump type id fx fy fz

fix     1 all nve
run     2000
Neighbor list info ...
  update every 1 steps, delay 10 steps, check yes
  max neighbors/atom: 2000, page size: 100000
  master list distance cutoff = 6.22
  ghost atom cutoff = 6.22
  binsize = 3.11, bins = 6 6 27
  1 neighbor lists, perpetual/occasional/extra = 1 0 0
  (1) pair quip, perpetual
      attributes: full, newton on
      pair build: full/bin
      stencil: full/bin/3d
      bin: standard
Per MPI rank memory allocation (min/avg/max) = 8.888 | 8.903 | 8.913 Mbytes
Step Temp PotEng TotEng Press Volume c_msd[4] 
       0            0   -6930.8241   -6930.8241   -4495.9065    20354.533            0 
      10    65.904237   -6938.1841   -6930.8324   -5379.5912    20354.533 0.0005000384 
      20    168.73131   -6949.6632    -6930.841   -6364.5261    20354.533 0.0061479459 
      30    200.57733   -6953.2127    -6930.838   -5696.6671    20354.533  0.020662009 
      40    199.55606   -6953.0935   -6930.8327   -4580.1506    20354.533   0.03833664 
      50    226.88579   -6956.1474   -6930.8379   -4419.7801    20354.533  0.051806208 
      60    238.47957   -6957.4392   -6930.8365   -4645.7272    20354.533  0.061424452 
      70    236.06355   -6957.1692   -6930.8359    -4807.043    20354.533  0.069853138 
      80    232.99362   -6956.8259   -6930.8351    -5036.908    20354.533  0.079308594 
      90    234.23747   -6956.9654   -6930.8358   -5260.6038    20354.533  0.090830495 
     100    232.00556   -6956.7159   -6930.8353   -5208.0306    20354.533   0.10432197 
     110    232.79067   -6956.8033   -6930.8352   -5031.3164    20354.533   0.11840709 
     120    238.30149    -6957.419   -6930.8361   -4942.2097    20354.533   0.13201584 
     130    238.74514   -6957.4687   -6930.8363   -4988.8033    20354.533   0.14538478 
     140    232.54984   -6956.7771   -6930.8358   -4942.4536    20354.533   0.15867927 
     150    225.40044   -6955.9792   -6930.8355   -4787.8719    20354.533   0.17110203 
     160    224.38726   -6955.8659   -6930.8352   -4620.0724    20354.533    0.1817825 
     170    231.86358   -6956.7009   -6930.8362   -4442.3359    20354.533   0.19072597 
     180    237.58036   -6957.3391   -6930.8366   -4192.2572    20354.533   0.19889867 
     190    235.69365   -6957.1279    -6930.836   -3927.7806    20354.533   0.20710191 
     200    234.44619   -6956.9885   -6930.8356   -3773.8119    20354.533   0.21513007 
     210    236.73114   -6957.2437    -6930.836   -3777.5502    20354.533   0.22305549 
     220    238.14425   -6957.4012   -6930.8359   -3899.9101    20354.533    0.2315521 
     230     238.4388   -6957.4341   -6930.8359   -4006.5782    20354.533   0.24098695 
     240    239.23886    -6957.523   -6930.8356   -3984.7528    20354.533   0.25141959 
     250     242.0724   -6957.8401   -6930.8366   -3793.3442    20354.533   0.26265129 
     260       239.05   -6957.5024    -6930.836   -3540.3897    20354.533   0.27417391 
     270    235.84511    -6957.145   -6930.8361   -3272.6541    20354.533   0.28493922 
     280    231.62838   -6956.6748   -6930.8363   -2948.2435    20354.533   0.29437431 
     290    226.51317   -6956.1028    -6930.835   -2633.8875    20354.533   0.30220439 
     300    232.88912   -6956.8151    -6930.836   -2478.1682    20354.533   0.30835486 
     310    239.65399   -6957.5709   -6930.8371   -2317.7128    20354.533   0.31386348 
     320    236.98534   -6957.2718   -6930.8357   -2020.1819    20354.533   0.31985126 
     330    235.73864   -6957.1329   -6930.8359   -1957.4113    20354.533   0.32664959 
     340    236.09186   -6957.1723   -6930.8359   -2003.6376    20354.533   0.33435107 
     350    237.19352   -6957.2955   -6930.8363   -2145.8328    20354.533   0.34289663 
     360     235.6501   -6957.1226   -6930.8355   -2186.0282    20354.533   0.35153924 
     370      237.245   -6957.3009   -6930.8359   -2246.4379    20354.533   0.35886165 
     380     239.0727   -6957.5047   -6930.8358   -2396.5837    20354.533   0.36451066 
     390    241.64207   -6957.7913   -6930.8358   -2701.0958    20354.533   0.36907283 
     400    244.68963   -6958.1321   -6930.8366    -3058.184    20354.533   0.37340775 
     410    240.84575   -6957.7024   -6930.8357   -3233.9135    20354.533   0.37836011 
     420    237.91038    -6957.375   -6930.8357   -3296.1667    20354.533    0.3837999 
     430    237.53548   -6957.3335    -6930.836     -3297.92    20354.533   0.38923076 
     440    236.65311   -6957.2351   -6930.8361   -3132.9159    20354.533   0.39408345 
     450    236.54722   -6957.2227   -6930.8355   -2838.3736    20354.533   0.39819744 
     460    240.22636   -6957.6339   -6930.8363   -2750.9298    20354.533   0.40204023 
     470    240.52465   -6957.6669    -6930.836   -2995.4918    20354.533   0.40599969 
     480    237.66852   -6957.3482   -6930.8359   -3342.9489    20354.533   0.40967234 
     490     233.8587   -6956.9231   -6930.8358   -3484.3142    20354.533   0.41268728 
     500    232.08796   -6956.7258   -6930.8361   -3205.4816    20354.533   0.41521326 
     510    230.70203   -6956.5715   -6930.8364   -2716.5526    20354.533   0.41731564 
     520    228.05602   -6956.2759   -6930.8359   -2363.5724    20354.533   0.41870774 
     530    227.97164    -6956.267   -6930.8365   -2215.6832    20354.533   0.41939371 
     540    224.82248   -6955.9152   -6930.8359   -2142.5726    20354.533   0.41965215 
     550    224.12424   -6955.8368   -6930.8354   -2230.4398    20354.533   0.41896539 
     560    230.14975   -6956.5094   -6930.8358   -2549.6413    20354.533   0.41694428 
     570    236.18881   -6957.1833   -6930.8361   -2919.3179    20354.533   0.41431605 
     580    239.11248   -6957.5092   -6930.8358   -3311.7801    20354.533   0.41218239 
     590    240.41038    -6957.654   -6930.8359   -3417.9605    20354.533   0.41128732 
     600     241.9108   -6957.8213   -6930.8358   -3319.9933    20354.533   0.41181297 
     610    244.71998   -6958.1355   -6930.8366   -3218.6172    20354.533   0.41378595 
     620     241.0794   -6957.7291   -6930.8363   -3147.9995    20354.533   0.41727735 
     630    235.50013   -6957.1059   -6930.8355   -3135.0665    20354.533   0.42154918 
     640    235.11112   -6957.0634   -6930.8364   -3257.6948    20354.533   0.42544554 
     650    231.17765   -6956.6238   -6930.8356   -3363.2824    20354.533   0.42831027 
     660    230.96587      -6956.6   -6930.8354    -3278.616    20354.533   0.42962018 
     670    236.71051   -6957.2418   -6930.8364   -3057.6575    20354.533   0.43008462 
     680    237.89077   -6957.3735   -6930.8365   -2729.6334    20354.533   0.43147958 
     690    233.77068   -6956.9134    -6930.836   -2455.8007    20354.533   0.43467882 
     700    232.73214   -6956.7972   -6930.8356   -2458.1317    20354.533   0.43896836 
     710     238.6713   -6957.4612    -6930.837     -2772.14    20354.533   0.44306523 
     720    238.40713   -6957.4307    -6930.836    -2807.083    20354.533   0.44626276 
     730     240.4682   -6957.6606    -6930.836   -2649.5036    20354.533   0.44805059 
     740    245.36669   -6958.2082   -6930.8372   -2598.8991    20354.533   0.44927166 
     750    241.62154   -6957.7892    -6930.836   -2531.0184    20354.533   0.45180545 
     760    240.83361   -6957.7015   -6930.8361   -2663.8574    20354.533   0.45609454 
     770    242.81641   -6957.9232   -6930.8366   -2904.7405    20354.533   0.46149917 
     780    240.55873   -6957.6716   -6930.8369   -3011.4883    20354.533   0.46731331 
     790    234.48344    -6956.992    -6930.835   -2984.9723    20354.533   0.47270083 
     800    241.36903   -6957.7616   -6930.8365   -3043.6074    20354.533   0.47702973 
     810    248.02611   -6958.5044   -6930.8367   -3212.7271    20354.533   0.48113406 
     820    247.07524   -6958.3983   -6930.8367   -3298.0857    20354.533   0.48604281 
     830    241.62282   -6957.7892   -6930.8358   -3451.0521    20354.533   0.49200069 
     840    241.09937   -6957.7309   -6930.8359   -3767.5583    20354.533    0.4980224 
     850    243.86884   -6958.0407   -6930.8367   -3969.0277    20354.533   0.50315689 
     860    240.67295   -6957.6839   -6930.8364   -3878.9651    20354.533   0.50749313 
     870    234.88256   -6957.0377   -6930.8362   -3705.4216    20354.533   0.51123394 
     880     230.9712   -6956.6008   -6930.8356   -3732.8653    20354.533   0.51418617 
     890    234.71187   -6957.0191   -6930.8366   -3903.3458    20354.533   0.51649556 
     900    236.69755   -6957.2408   -6930.8368   -4096.5729    20354.533   0.51925856 
     910    234.14135   -6956.9543   -6930.8355   -4214.9524    20354.533   0.52270274 
     920     239.2214   -6957.5215    -6930.836    -4371.806    20354.533    0.5260843 
     930    246.23434   -6958.3046   -6930.8368   -4388.3174    20354.533   0.52947161 
     940    244.93011   -6958.1585   -6930.8361    -4140.633    20354.533    0.5331014 
     950    244.54566   -6958.1146   -6930.8351   -3874.4856    20354.533   0.53608506 
     960     253.5944   -6959.1267   -6930.8378   -3771.8165    20354.533   0.53803089 
     970     248.3829   -6958.5442   -6930.8367   -3524.3442    20354.533   0.53986141 
     980    238.35135   -6957.4243   -6930.8358   -3260.4338    20354.533   0.54101785 
     990    236.50322   -6957.2181   -6930.8358   -3175.8957    20354.533   0.54134372 
    1000    241.19481   -6957.7423   -6930.8367   -3304.4267    20354.533   0.54225539 
    1010    241.95562   -6957.8272   -6930.8367   -3391.2596    20354.533   0.54502288 
    1020    240.16869   -6957.6269   -6930.8357   -3447.0496    20354.533   0.54930268 
    1030    245.53617   -6958.2267   -6930.8368   -3456.4918    20354.533   0.55419445 
    1040    247.77076    -6958.476   -6930.8368   -3298.5887    20354.533   0.55950896 
    1050     244.2442   -6958.0816   -6930.8358   -3136.4369    20354.533   0.56417367 
    1060    244.98518   -6958.1647   -6930.8363    -3248.508    20354.533   0.56688242 
    1070    245.91228   -6958.2687   -6930.8368   -3519.1406    20354.533   0.56812185 
    1080    243.86214    -6958.039   -6930.8358   -3692.2455    20354.533   0.56934968 
    1090    246.84293   -6958.3726   -6930.8369   -3906.5524    20354.533   0.57178329 
    1100      244.881   -6958.1533   -6930.8365   -4089.2355    20354.533   0.57651628 
    1110    240.43499   -6957.6569    -6930.836   -4077.0823    20354.533    0.5832495 
    1120    237.92872   -6957.3775   -6930.8362   -4003.4461    20354.533   0.59023617 
    1130    236.51172   -6957.2189   -6930.8357   -4042.4172    20354.533   0.59550452 
    1140    238.96444   -6957.4936   -6930.8368   -4040.0227    20354.533   0.59831056 
    1150    235.78148   -6957.1379   -6930.8361   -3879.2914    20354.533   0.59921996 
    1160    234.20341   -6956.9615   -6930.8358   -3837.8249    20354.533    0.5985221 
    1170    240.41902   -6957.6544   -6930.8353    -3935.141    20354.533   0.59722217 
    1180    255.54411   -6959.3435   -6930.8372     -4092.55    20354.533   0.59743217 
    1190    258.99242   -6959.7285   -6930.8375   -4046.2257    20354.533    0.6011544 
    1200    248.88394   -6958.5986   -6930.8352   -3714.2841    20354.533   0.60762836 
    1210    248.47025   -6958.5542    -6930.837   -3470.6197    20354.533   0.61448368 
    1220    244.95446   -6958.1613   -6930.8363   -3177.7538    20354.533   0.62050251 
    1230     241.8534   -6957.8153   -6930.8362   -3046.6572    20354.533   0.62473384 
    1240    239.93171   -6957.6017    -6930.837   -2953.8402    20354.533   0.62763822 
    1250    233.26136   -6956.8559   -6930.8352   -2777.3686    20354.533   0.63038166 
    1260    237.93988   -6957.3787   -6930.8361   -2775.1391    20354.533    0.6330371 
    1270    246.35675   -6958.3182   -6930.8368   -2888.4422    20354.533   0.63643977 
    1280    248.45813   -6958.5525   -6930.8366   -2920.0425    20354.533   0.64183599 
    1290    245.47675   -6958.2198   -6930.8365   -2685.1116    20354.533   0.64908358 
    1300    241.63357   -6957.7906    -6930.836   -2354.7632    20354.533   0.65669456 
    1310    242.43427   -6957.8804   -6930.8365   -2080.8148    20354.533   0.66291632 
    1320    245.28186   -6958.1979   -6930.8364   -1915.3295    20354.533    0.6669735 
    1330    248.60459   -6958.5691   -6930.8369   -2012.6907    20354.533   0.66938419 
    1340    247.35187   -6958.4291   -6930.8367   -2148.5782    20354.533   0.67162517 
    1350    244.12194   -6958.0683   -6930.8361   -1975.6824    20354.533   0.67460298 
    1360    246.17117   -6958.2975   -6930.8367   -1695.7314    20354.533   0.67795806 
    1370    247.81913   -6958.4815   -6930.8369   -1406.6961    20354.533   0.68155459 
    1380    246.54204   -6958.3387   -6930.8366   -1365.9532    20354.533   0.68550067 
    1390    245.37096   -6958.2083   -6930.8368   -1609.7263    20354.533   0.68946972 
    1400    243.36629   -6957.9841   -6930.8362   -2040.6718    20354.533   0.69316197 
    1410    243.94371   -6958.0489   -6930.8367    -2492.182    20354.533   0.69632692 
    1420    241.91407   -6957.8222   -6930.8364   -2641.5513    20354.533   0.69908731 
    1430    240.29252    -6957.641   -6930.8361   -2738.6597    20354.533   0.70169952 
    1440    243.00906   -6957.9446   -6930.8366   -2920.7186    20354.533   0.70454594 
    1450    244.25454   -6958.0838   -6930.8369   -3048.4377    20354.533   0.70795341 
    1460    242.09952    -6957.843   -6930.8364   -2976.5792    20354.533   0.71130224 
    1470    243.45842   -6957.9943   -6930.8362   -3081.8274    20354.533    0.7132231 
    1480    250.70065   -6958.8033   -6930.8373   -3338.8349    20354.533   0.71370178 
    1490    252.18388   -6958.9685    -6930.837   -3376.1382    20354.533    0.7144344 
    1500    251.43885   -6958.8853   -6930.8369   -3315.8008    20354.533   0.71637247 
    1510    251.24938    -6958.864   -6930.8368   -3301.7557    20354.533   0.71942223 
    1520    249.70733   -6958.6922    -6930.837   -3282.0336    20354.533   0.72323431 
    1530    244.44696   -6958.1054    -6930.837   -3302.2244    20354.533   0.72763008 
    1540    236.75683   -6957.2464   -6930.8358   -3274.9713    20354.533    0.7323608 
    1550    237.57971   -6957.3389   -6930.8365   -3428.4116    20354.533   0.73683196 
    1560    241.15015   -6957.7371   -6930.8364   -3593.4236    20354.533   0.74115804 
    1570    245.97302   -6958.2754   -6930.8368   -3733.6516    20354.533   0.74547586 
    1580    248.38573   -6958.5448    -6930.837   -3697.1233    20354.533   0.74963233 
    1590    246.86432   -6958.3746   -6930.8366   -3466.8015    20354.533   0.75351214 
    1600     247.7118   -6958.4687    -6930.836   -3388.9239    20354.533   0.75677589 
    1610    253.82537   -6959.1519   -6930.8373    -3531.034    20354.533   0.75955216 
    1620    251.92871   -6958.9401   -6930.8371   -3648.0728    20354.533   0.76294914 
    1630    244.66821   -6958.1291    -6930.836   -3657.5504    20354.533   0.76703359 
    1640    244.28177   -6958.0866   -6930.8366   -3671.0399    20354.533   0.77099433 
    1650    244.83575   -6958.1483   -6930.8365   -3788.3144    20354.533   0.77508445 
    1660    246.40424   -6958.3232   -6930.8364    -3813.853    20354.533   0.77989624 
    1670     250.2724    -6958.755   -6930.8367   -3565.9239    20354.533   0.78529205 
    1680    252.16532   -6958.9666   -6930.8372   -3320.4462    20354.533   0.79034429 
    1690    248.06278   -6958.5083   -6930.8366    -3241.467    20354.533   0.79410211 
    1700    246.18953   -6958.2989   -6930.8361   -3435.3007    20354.533   0.79613512 
    1710    251.37963   -6958.8788   -6930.8371   -3765.1983    20354.533   0.79697816 
    1720    252.49637   -6959.0036   -6930.8373   -4015.6546    20354.533   0.79809077 
    1730    246.19105   -6958.2991   -6930.8361   -4012.8085    20354.533   0.80001418 
    1740    244.72061   -6958.1349   -6930.8359   -3836.2711    20354.533   0.80174398 
    1750    250.77886   -6958.8116   -6930.8368   -3664.5304    20354.533   0.80300604 
    1760    253.23106   -6959.0851   -6930.8368   -3574.9487    20354.533   0.80474848 
    1770     250.9182   -6958.8268   -6930.8365   -3643.0638    20354.533   0.80759401 
    1780    248.19059    -6958.522   -6930.8359    -3925.933    20354.533   0.81194222 
    1790    251.50586   -6958.8923   -6930.8365   -4358.7518    20354.533   0.81788965 
    1800    254.74644   -6959.2547   -6930.8373   -4555.0094    20354.533   0.82537267 
    1810    250.83969   -6958.8178   -6930.8362   -4276.5786    20354.533   0.83331392 
    1820     251.8855   -6958.9345   -6930.8362   -4012.9598    20354.533   0.83972246 
    1830      255.594   -6959.3496   -6930.8377   -3901.3718    20354.533   0.84445553 
    1840    246.70995   -6958.3569   -6930.8361   -3626.6691    20354.533   0.84851616 
    1850    241.86654   -6957.8157   -6930.8351   -3456.7016    20354.533   0.85180041 
    1860    250.43531   -6958.7737   -6930.8372    -3514.864    20354.533    0.8548436 
    1870    251.67809   -6958.9117   -6930.8366    -3317.435    20354.533   0.85904271 
    1880    249.74232   -6958.6953   -6930.8361   -2814.4162    20354.533   0.86408884 
    1890    251.03758   -6958.8407    -6930.837   -2598.2462    20354.533   0.86903478 
    1900    247.47063   -6958.4421   -6930.8364   -2762.2368    20354.533   0.87371783 
    1910    246.41436   -6958.3238   -6930.8359   -3170.3298    20354.533   0.87809892 
    1920    252.32808   -6958.9847   -6930.8371   -3481.0709    20354.533    0.8826292 
    1930    251.70282   -6958.9148    -6930.837   -3522.0143    20354.533   0.88826081 
    1940    246.41342   -6958.3234   -6930.8356   -3409.4835    20354.533   0.89502972 
    1950     251.5574   -6958.8983   -6930.8367   -3383.3627    20354.533   0.90192896 
    1960    256.70331    -6959.473   -6930.8374   -3284.7665    20354.533   0.90797257 
    1970    251.99325   -6958.9465   -6930.8363   -3170.8424    20354.533   0.91214044 
    1980    249.36931   -6958.6536    -6930.836    -3268.664    20354.533   0.91382089 
    1990    253.19383   -6959.0808   -6930.8367   -3484.4565    20354.533   0.91429439 
    2000    255.75062   -6959.3664    -6930.837   -3645.8324    20354.533   0.91593526 
Loop time of 893.708 on 16 procs for 2000 steps with 864 atoms

Performance: 0.193 ns/day, 124.126 hours/ns, 2.238 timesteps/s
97.1% CPU use with 16 MPI tasks x 1 OpenMP threads

MPI task timing breakdown:
Section |  min time  |  avg time  |  max time  |%varavg| %total
---------------------------------------------------------------
Pair    | 376.29     | 634.19     | 893.39     | 545.2 | 70.96
Bond    | 0.00012422 | 0.00050029 | 0.0011733  |   0.0 |  0.00
Neigh   | 0.014964   | 0.023649   | 0.030851   |   3.3 |  0.00
Comm    | 0.16434    | 237.65     | 469.02     | 862.7 | 26.59
Output  | 0.10237    | 11.161     | 25.071     | 294.7 |  1.25
Modify  | 0.0070882  | 0.0078218  | 0.0090964  |   0.5 |  0.00
Other   |            | 10.68      |            |       |  1.19

Nlocal:        54.0000 ave          71 max          39 min
Histogram: 3 2 1 1 0 4 1 0 3 1
Nghost:        497.125 ave         591 max         387 min
Histogram: 1 2 1 1 1 3 2 1 2 2
Neighs:         0.00000 ave           0 max           0 min
Histogram: 16 0 0 0 0 0 0 0 0 0
FullNghs:      2382.00 ave        3956 max        1259 min
Histogram: 3 2 2 0 2 3 1 1 1 1

Total # of neighbors = 38112
Ave neighs/atom = 44.111111
Ave special neighs/atom = 0.0000000
Neighbor list builds = 199
Dangerous builds = 198
unfix   1

velocity    all create 337.5 1312343 dist gaussian
fix     2 all npt temp 337.5 337.5 $(100.0*dt) aniso 0.0 1.01325 $(1000.0*dt)
fix     2 all npt temp 337.5 337.5 0.10000000000000000555 aniso 0.0 1.01325 $(1000.0*dt)
fix     2 all npt temp 337.5 337.5 0.10000000000000000555 aniso 0.0 1.01325 1
run     3000
Per MPI rank memory allocation (min/avg/max) = 8.897 | 8.905 | 8.914 Mbytes
Step Temp PotEng TotEng Press Volume c_msd[4] 
    2000        337.5   -6959.3664   -6921.7178   -3167.2929    20354.533   0.91593526 
    2010    324.26237    -6957.895    -6921.723   -2648.4979    20349.791    0.9197315 
    2020     298.7216   -6955.0314   -6921.7085    -1629.033    20337.013   0.92571671 
    2030    289.01639   -6953.8645   -6921.6243   -781.67756    20319.177   0.93035861 
    2040    291.46211   -6953.9559   -6921.4429   -263.97605    20298.867   0.93224238 
    2050    289.91975   -6953.5077   -6921.1667    28.438583    20277.699   0.93242154 
    2060    289.07083    -6953.058   -6920.8117    326.41367    20256.647   0.93262192 
    2070    302.82064   -6954.1822   -6920.4021    635.04786    20236.611    0.9346942 
    2080     306.8944   -6954.2211   -6919.9866    1109.1256    20218.586   0.94033912 
    2090    300.93109   -6953.1914    -6919.622    1441.0494    20203.924   0.94857905 
    2100     305.0071   -6953.3321   -6919.3081    1417.9815    20193.582   0.95672427 
    2110    308.75019   -6953.4669   -6919.0253    1133.0587    20187.505   0.96372085 
    2120    310.04338   -6953.3481   -6918.7623    623.78011    20184.824   0.96958853 
    2130    310.13512   -6953.1035   -6918.5075     177.8093    20184.067   0.97460805 
    2140    304.14176   -6952.1748   -6918.2474    57.926588    20183.935   0.97925999 
    2150    303.02933   -6951.7714    -6917.968    94.119163    20184.015   0.98393503 
    2160    308.50248   -6952.0694   -6917.6555    246.65712    20184.417   0.98915431 
    2170    308.43149   -6951.7241   -6917.3181     550.2802    20185.609   0.99493842 
    2180    312.58417   -6951.8388   -6916.9696    591.00643    20188.375    1.0006423 
    2190    314.25711   -6951.6696   -6916.6138    274.16924    20192.825    1.0064557 
    2200    315.05539   -6951.4015   -6916.2566   -352.19235    20197.994    1.0121393 
    2210    318.60921   -6951.4347   -6915.8934   -917.10326    20202.095    1.0170194 
    2220    323.33779   -6951.5923   -6915.5235   -1300.9409    20203.436    1.0209625 
    2230    327.25468   -6951.6637   -6915.1579   -1398.3287    20200.894    1.0248222 
    2240    320.54553   -6950.5625   -6914.8052   -1037.1529    20194.296    1.0303774 
    2250    316.97311   -6949.8239   -6914.4651   -752.51618     20184.62    1.0381953 
    2260    317.62833   -6949.5584   -6914.1265   -481.27115    20172.818    1.0477756 
    2270    316.80856   -6949.1282   -6913.7877    -284.7343    20159.708    1.0588403 
    2280    316.81431   -6948.7861   -6913.4449   -210.24419    20145.896    1.0709835 
    2290    320.17524   -6948.8064   -6913.0904   -158.26832    20131.661    1.0830262 
    2300    327.91102   -6949.3018   -6912.7228   -110.23456    20117.179    1.0939726 
    2310    335.49298   -6949.7807    -6912.356    48.396263    20102.644    1.1043233 
    2320    343.59212   -6950.3388   -6912.0105    297.56779    20088.521    1.1152681 
    2330    347.94831   -6950.5182    -6911.704    654.22958    20075.557    1.1280396 
    2340    349.25283   -6950.4088   -6911.4491    811.78889    20064.718     1.143046 
    2350    348.07378   -6950.0728   -6911.2446    621.74935    20056.382    1.1598204 
    2360    348.73596   -6949.9846   -6911.0826    453.59983    20050.043    1.1779009 
    2370     346.4625   -6949.6026   -6910.9542    504.48858    20045.207    1.1971986 
    2380    341.19045   -6948.9131   -6910.8528    748.34198        20042    1.2171461 
    2390    335.52722   -6948.1948   -6910.7662     850.3552    20041.048    1.2371349 
    2400    340.87839   -6948.7087   -6910.6832    594.61635    20042.543    1.2573817 
    2410    349.32019   -6949.5661   -6910.5989    264.72988    20045.771    1.2789522 
    2420    349.43272    -6949.507   -6910.5273    304.21605    20049.861    1.3023345 
    2430    345.26169   -6948.9909   -6910.4764    470.58253    20054.822    1.3267725 
    2440    343.41812   -6948.7506   -6910.4418    442.32287     20061.04     1.349365 
    2450    344.95021   -6948.9058   -6910.4261    245.33729    20068.403    1.3665404 
    2460    342.52451   -6948.6356   -6910.4265    185.99077    20076.415    1.3779668 
    2470    346.22864   -6949.0562   -6910.4339   -17.529979    20084.759     1.386587 
    2480    343.52808   -6948.7683   -6910.4472   -155.15944    20092.905     1.396639 
    2490    334.16103   -6947.7442   -6910.4681    -418.5661    20100.389    1.4093182 
    2500    332.19627   -6947.5408   -6910.4839   -903.83013    20106.405    1.4236626 
    2510     348.3164   -6949.3561   -6910.5009   -1382.8299    20109.575    1.4398587 
    2520    357.72259   -6950.4568   -6910.5523   -1337.7148     20108.69     1.459185 
    2530    342.96369   -6948.9053   -6910.6472   -685.39443    20104.015    1.4808762 
    2540    333.76155   -6947.9847   -6910.7531    -103.2137    20097.402    1.5015099 
    2550     340.8874     -6948.88   -6910.8535    43.003393    20090.509    1.5195507 
    2560    339.18576   -6948.7921   -6910.9554    209.64807    20083.913    1.5357898 
    2570    334.18055   -6948.3378   -6911.0594    642.59538    20078.157    1.5504484 
    2580    339.12783   -6948.9933   -6911.1631    1139.8793    20074.444    1.5632629 
    2590    348.48591   -6950.1577   -6911.2836    1308.8873    20074.111    1.5745933 
    2600    347.51299   -6950.2011   -6911.4355    1189.7724    20077.617    1.5857118 
    2610    340.94067   -6949.6458   -6911.6134    1057.4801    20084.594    1.5965039 
    2620    340.96011   -6949.8376   -6911.8029    618.54811    20094.473    1.6049315 
    2630    340.14729   -6949.9372   -6911.9932    167.22327    20106.027    1.6096018 
    2640    340.96997   -6950.2217    -6912.186    -290.2214    20117.838    1.6101076 
    2650    335.72944   -6949.8324   -6912.3813   -459.81841    20128.618    1.6074349 
    2660    322.62407   -6948.5514   -6912.5622   -291.77532    20137.921    1.6025151 
    2670     318.5934   -6948.2484   -6912.7088    -197.1424    20146.173    1.5960505 
    2680    325.84928   -6949.1667   -6912.8177   -361.03654    20153.628    1.5901141 
    2690     330.1149   -6949.7257   -6912.9009   -653.59598    20159.841    1.5869728 
    2700    325.92507   -6949.3237   -6912.9662   -854.67793    20164.031    1.5866887 
    2710    322.39196   -6948.9704    -6913.007   -1163.1514    20165.561    1.5879391 
    2720    325.84928   -6949.3726   -6913.0236   -1361.1511    20163.605    1.5896716 
    2730    321.18099   -6948.8426   -6913.0144   -925.56761    20157.771    1.5908739 
    2740    322.50859   -6948.9457   -6912.9694   -232.39756    20149.346    1.5891677 
    2750    333.85817   -6950.1263   -6912.8839    63.107215    20140.257    1.5834878 
    2760    345.25959   -6951.2941   -6912.7798     179.6282    20131.467    1.5748892 
    2770    349.03853    -6951.622   -6912.6863    308.74538    20123.347    1.5653971 
    2780    338.00056   -6950.3137   -6912.6092    615.82715    20116.334    1.5574367 
    2790    336.58677   -6950.0844   -6912.5377    798.83777    20111.243    1.5522407 
    2800    337.60283   -6950.1199   -6912.4598    711.31495    20108.544    1.5503447 
    2810    339.00596   -6950.1943   -6912.3776    320.46097     20107.95    1.5506496 
    2820    341.14949   -6950.3511   -6912.2954    -302.8633    20108.258    1.5515086 
    2830    333.00959   -6949.3618    -6912.214    -470.8238    20107.792    1.5531876 
    2840    326.49148   -6948.5411   -6912.1205   -453.59605    20105.971    1.5566707 
    2850    334.09622   -6949.2707   -6912.0018   -674.20501    20102.746     1.562385 
    2860    334.35801   -6949.1589   -6911.8608   -840.76336    20097.551    1.5705493 
    2870    328.72196   -6948.3724    -6911.703   -759.79549    20089.989    1.5797477 
    2880    330.98154   -6948.4427   -6911.5212   -691.64844    20080.231    1.5883529 
    2890    331.54877   -6948.2958   -6911.3111   -261.10535    20068.643    1.5967846 
    2900    334.41673   -6948.3793   -6911.0746    190.35596    20056.403    1.6040594 
    2910    337.72663   -6948.4888   -6910.8149    453.60669    20044.839    1.6082584 
    2920    345.59839   -6949.0995   -6910.5475    355.64569    20034.633    1.6093408 
    2930    347.59707   -6949.0692   -6910.2942     471.0054    20025.655    1.6098507 
    2940    343.27939    -6948.362   -6910.0686    879.59451    20018.272     1.611806 
    2950    349.68392   -6948.8786   -6909.8709    1056.2845    20013.508    1.6147102 
    2960    354.27351   -6949.2264   -6909.7067    1185.6788    20011.909    1.6173619 
    2970    351.10264   -6948.7541   -6909.5881     1335.031    20013.848     1.618387 
    2980    347.45209   -6948.2685   -6909.5097    1160.0946    20019.648    1.6161991 
    2990    351.74349   -6948.6985   -6909.4609    792.85966    20028.815    1.6106885 
    3000    351.41848   -6948.6423   -6909.4411    489.91672    20040.298    1.6037022 
    3010    346.09559   -6948.0573   -6909.4499     327.3866    20053.217    1.5963712 
    3020    342.49562    -6947.684   -6909.4781    135.60157    20067.012    1.5884152 
    3030    337.25487   -6947.1375   -6909.5162   -18.770164    20081.132    1.5790214 
    3040    328.61541   -6946.2068   -6909.5492   -96.873493    20095.142    1.5674261 
    3050    329.07002   -6946.2718   -6909.5635   -426.44772    20108.696     1.554184 
    3060    339.01171   -6947.3768   -6909.5595   -942.65693    20120.843     1.542337 
    3070    346.63621   -6948.2261   -6909.5583   -1290.0168    20130.125     1.535432 
    3080    339.94525   -6947.4975   -6909.5761   -1261.8958    20135.577      1.53474 
    3090    333.03937   -6946.7524   -6909.6014   -1177.0084    20137.222    1.5384731 
    3100    347.55411   -6948.4001   -6909.6299   -1117.1126    20135.311    1.5444131 
    3110     359.7724   -6949.8187   -6909.6855   -781.92225    20130.126    1.5521599 
    3120    353.87136   -6949.2692   -6909.7943   -149.94542    20122.685    1.5612765 
    3130    342.79524   -6948.1897   -6909.9503    545.73499    20114.827    1.5698675 
    3140    339.24895   -6947.9845   -6910.1408    1073.6983    20108.586    1.5755214 
    3150     336.7017   -6947.9265   -6910.3669    1469.0319    20105.558    1.5777324 
    3160    336.94801   -6948.2248   -6910.6377    1734.8858    20106.923    1.5775736 
    3170    335.15351   -6948.3485   -6910.9617     1866.204    20113.467    1.5756661 
    3180    333.82928   -6948.5721   -6911.3329    1668.5175    20125.551     1.571419 
    3190    341.93738   -6949.8956    -6911.752    990.31691    20142.527    1.5651827 
    3200    337.37554   -6949.8319   -6912.1971    341.96629    20162.489    1.5590613 
    3210    334.61672   -6949.9543   -6912.6273   -98.601506    20183.522    1.5538279 
    3220    338.39257   -6950.7625   -6913.0143    -660.7986     20204.18    1.5486987 
    3230    337.15191   -6950.9496   -6913.3398   -1065.6406    20222.879    1.5421146 
    3240    330.33923   -6950.4442   -6913.5943   -1112.9613    20238.423    1.5339328 
    3250    322.35498    -6949.733   -6913.7738   -919.22664    20250.634    1.5267131 
    3260    317.32724   -6949.2796   -6913.8812    -878.2893    20260.003    1.5224529 
    3270     316.1688    -6949.194   -6913.9249   -1175.2869    20266.599    1.5210175 
    3280    322.85499   -6949.9384   -6913.9234   -1422.7077    20269.629    1.5212337 
    3290    332.01668   -6950.9375   -6913.9005   -1192.6757    20268.458    1.5222119 
    3300    330.27262   -6950.7105   -6913.8681   -618.86639    20263.724    1.5233124 
    3310    329.19581   -6950.5462   -6913.8239   -99.755105     20257.09    1.5232175 
    3320    334.31568   -6951.0567   -6913.7632    131.83602    20250.078    1.5213988 
    3330    340.06088   -6951.6313    -6913.697    111.66829    20243.387    1.5193166 
    3340    338.51995   -6951.3981   -6913.6357     213.6986    20237.077    1.5193888 
    3350    331.76096   -6950.5859   -6913.5774     552.4515    20231.496    1.5224482 
    3360    325.49401   -6949.8179   -6913.5086    817.33512    20227.591    1.5267388 
    3370    326.96131   -6949.8927   -6913.4197    818.94178    20226.091    1.5293077 
    3380    328.93565   -6950.0003    -6913.307    858.33369    20227.103    1.5292647 
    3390    325.43154   -6949.4752   -6913.1728    1046.1474    20230.764    1.5275413 
    3400     327.7161    -6949.575   -6913.0177    1019.1037    20237.558    1.5235027 
    3410    335.95378   -6950.3207   -6912.8445    775.46932    20247.425    1.5168167 
    3420    333.02135    -6949.811   -6912.6619    723.67292    20259.748    1.5097981 
    3430    335.37767   -6949.8882   -6912.4763    401.65585    20274.227    1.5035103 
    3440    343.67193   -6950.6193   -6912.2821   -403.19053    20289.827    1.4976417 
    3450    347.71494   -6950.8814   -6912.0933   -1352.4346    20304.183    1.4921334 
    3460    342.24757   -6950.1048   -6911.9266   -1901.8482    20314.523    1.4871665 
    3470    334.02002   -6949.0431   -6911.7827   -2001.5435    20319.139    1.4833267 
    3480    325.50609   -6947.9535   -6911.6428   -1845.3706    20317.689    1.4815016 
    3490    325.39516   -6947.7865   -6911.4882   -1522.8097    20310.613    1.4807494 
    3500    334.21603   -6948.5939   -6911.3116   -1047.9776    20298.883    1.4792052 
    3510    344.17829   -6949.5199   -6911.1263   -520.31596     20283.95    1.4768422 
    3520    348.46098   -6949.8275   -6910.9561   -30.340552    20267.397    1.4752524 
    3530    339.31651   -6948.6598   -6910.8085    454.52301    20250.754    1.4760224 
    3540    334.51968   -6947.9904   -6910.6742    524.16143    20235.362    1.4795776 
    3550    335.48366   -6947.9649   -6910.5412    315.56799    20221.481    1.4862422 
    3560    337.17997   -6948.0222   -6910.4092     150.6486    20208.535    1.4959404 
    3570    345.77187   -6948.8534   -6910.2821    245.24451    20196.107    1.5078415 
    3580    358.91125    -6950.213   -6910.1759    636.99389    20184.499     1.520959 
    3590    364.09786    -6950.732   -6910.1164    1122.5535    20174.844     1.534555 
    3600    362.30455   -6950.5393   -6910.1236     1237.435    20168.476    1.5474798 
    3610    351.71564   -6949.4237   -6910.1893    1203.5863    20165.816    1.5583372 
    3620    348.82305   -6949.2072   -6910.2955    1097.2293    20166.773    1.5655965 
    3630    342.91937   -6948.6762    -6910.423    1269.7131    20171.166    1.5698738 
    3640    339.91546     -6948.48   -6910.5619    1233.6541    20179.355    1.5726272 
    3650    341.19234    -6948.768   -6910.7075     854.9359    20191.228    1.5756367 
    3660    339.31025   -6948.7113   -6910.8607    433.19883    20205.732    1.5798401 
    3670    333.22728   -6948.1858   -6911.0138    4.2285661    20221.603    1.5830888 
    3680    331.73129    -6948.157   -6911.1519   -484.85614     20237.51    1.5826394 
    3690    339.33597   -6949.1288   -6911.2753   -905.02073     20251.99     1.578539 
    3700    338.18964   -6949.1209   -6911.3953     -796.338    20263.894    1.5732757 
    3710    334.95667   -6948.8843   -6911.5194   -363.42534    20273.481     1.567828 
    3720    334.42583    -6948.948   -6911.6423   -125.65139    20281.925     1.562513 
    3730    334.08847   -6949.0335   -6911.7654   -192.42614    20289.921    1.5581973 
    3740    323.87861   -6948.0087   -6911.8795   -307.97618    20297.337    1.5550896 
    3750     322.2039   -6947.9137   -6911.9714   -639.96511    20303.759    1.5526725 
    3760    331.26577   -6948.9936   -6912.0404   -1265.0727    20308.153    1.5519621 
    3770    335.59575   -6949.5397   -6912.1035    -1746.621    20308.709    1.5549571 
    3780     335.0178   -6949.5449   -6912.1732   -1806.8542    20304.025    1.5621129 
    3790    338.71094   -6950.0408   -6912.2571   -1510.0189    20293.895    1.5718211 
    3800    341.33502   -6950.4452   -6912.3688    -1104.685    20279.144    1.5822228 
    3810    338.20212   -6950.2476   -6912.5207   -729.96744    20260.971    1.5918852 
    3820    337.56966   -6950.3775   -6912.7211   -432.41155    20240.523    1.5991846 
    3830    339.25675   -6950.8273   -6912.9827   -25.776591    20218.787    1.6034876 
    3840    332.04081   -6950.3551   -6913.3155     426.9472    20196.964    1.6059673 
    3850    318.92213   -6949.2647   -6913.6885    621.07452    20176.374    1.6072208 
    3860    323.64151   -6950.1767    -6914.074    434.95726    20157.551    1.6066431 
    3870    330.88227   -6951.3697   -6914.4593    589.67084    20140.137    1.6046712 
    3880     332.3552   -6951.8994   -6914.8246    1146.5147    20124.637    1.6019157 
    3890    332.84934   -6952.2848    -6915.155    1639.9781    20112.576    1.5986871 
    3900    332.28399   -6952.5099   -6915.4431     1885.242     20105.39    1.5949199 
    3910    329.76067   -6952.4818   -6915.6965    1801.9239     20103.79    1.5899503 
    3920    321.36121   -6951.7553    -6915.907    1438.6502    20107.538    1.5833266 
    3930    322.22382   -6952.0122   -6916.0676    588.32528    20115.482    1.5748048 
    3940    320.87665   -6951.9697   -6916.1755   -150.97187    20125.264    1.5645059 
    3950    316.44576   -6951.5307   -6916.2307   -470.83467    20134.694    1.5520678 
    3960    318.66344   -6951.7832   -6916.2358   -535.51307     20142.76    1.5382806 
    3970    322.37379   -6952.1597   -6916.1984   -455.46269    20149.242    1.5259756 
    3980    328.76572   -6952.8083    -6916.134   -221.27511    20154.397     1.516736 
    3990    335.80951   -6953.5205   -6916.0604   -16.879213    20158.853    1.5102063 
    4000    327.63199   -6952.5314   -6915.9836    231.21593    20163.301    1.5056405 
    4010    324.48851   -6952.0902    -6915.893   -6.2450257    20168.307    1.5017769 
    4020    334.11274   -6953.0429   -6915.7721   -521.42259    20173.199    1.4979531 
    4030    332.33577   -6952.7017   -6915.6291    -620.5808    20176.627     1.494748 
    4040    320.65499   -6951.2394   -6915.4698   -307.30868     20178.28    1.4927641 
    4050    318.42281   -6950.7984   -6915.2779   -32.892475    20178.979    1.4925592 
    4060    325.03369   -6951.3044   -6915.0464    84.471178    20179.554     1.495498 
    4070    328.10066   -6951.3899   -6914.7897    296.17168    20180.417    1.5018968 
    4080    322.68419   -6950.5187   -6914.5228    672.45011     20182.23    1.5094106 
    4090    331.55025   -6951.2354   -6914.2504    595.63135    20185.962    1.5145771 
    4100    339.59311   -6951.8633   -6913.9811    184.74136    20191.404    1.5163829 
    4110    331.95067   -6950.7686    -6913.739   -158.24921    20197.424    1.5153983 
    4120    331.77491   -6950.5338   -6913.5238   -488.65619    20202.952    1.5118898 
    4130    335.37822   -6950.7356   -6913.3237   -582.04978    20207.064    1.5072116 
    4140    332.48966   -6950.2337   -6913.1439   -453.14428    20209.482    1.5039243 
    4150    325.79261    -6949.322   -6912.9793   -490.26474    20210.477    1.5038701 
    4160    325.59735    -6949.138   -6912.8171   -909.17335    20209.898    1.5065322 
    4170    334.27616   -6949.9444   -6912.6554   -1332.2091    20206.571    1.5105956 
    4180    342.06809   -6950.6667   -6912.5085   -1448.2461    20199.267    1.5153602 
    4190    343.24575   -6950.6802   -6912.3906   -1199.3959    20187.676    1.5204265 
    4200    336.79273   -6949.8667    -6912.297   -640.01853    20172.543    1.5262689 
    4210    330.16112   -6949.0389   -6912.2089    37.934849    20155.546    1.5337136 
    4220    337.02957   -6949.7133   -6912.1172    301.66279    20138.563    1.5431398 
    4230    345.78987   -6950.6046   -6912.0312    400.74855    20122.494    1.5549177 
    4240    343.38522   -6950.2683   -6911.9632    506.29035    20107.661     1.568359 
    4250    338.58443   -6949.6817   -6911.9121    707.24698    20094.384    1.5822567 
    4260    332.46003   -6948.9513   -6911.8649    1103.9848    20083.306    1.5961039 
    4270    328.12546   -6948.4112   -6911.8083    1469.4424    20075.561    1.6083913 
    4280    338.72936   -6949.5283   -6911.7425    1445.8165    20072.127    1.6167591 
    4290    343.68474   -6950.0171   -6911.6785    1303.4405    20073.023     1.621015 
    4300    345.05198   -6950.1216   -6911.6305    1045.6587    20077.813      1.62309 
    4310    350.63862   -6950.7204   -6911.6061    677.50104    20085.689    1.6259434 
    4320    340.84065   -6949.6272   -6911.6059     725.7348    20095.715    1.6316387 
    4330    329.05548   -6948.3202   -6911.6135    925.88917    20107.967    1.6383569 
    4340     338.2667   -6949.3454   -6911.6112    673.54452    20122.851    1.6444195 
    4350    352.39512    -6950.917   -6911.6068    294.74691    20139.685    1.6512539 
    4360    348.75552   -6950.5288   -6911.6246    447.34851    20157.504    1.6592795 
    4370    341.48903   -6949.7613   -6911.6676    682.69974    20176.626    1.6664039 
    4380    347.44277   -6950.4834   -6911.7256    342.58545    20197.558    1.6721006 
    4390    349.06731   -6950.7412   -6911.8022   -109.01703    20219.402    1.6788029 
    4400    342.11101   -6950.0647   -6911.9017   -402.67341    20240.827    1.6879531 
    4410     335.3235   -6949.4201   -6912.0142    -612.2582      20260.9    1.6980694 
    4420    335.30367   -6949.5352   -6912.1316   -972.91577    20278.915    1.7058219 
    4430     345.5864    -6950.818   -6912.2673    -1598.897    20293.721      1.70939 
    4440    348.56968   -6951.3344   -6912.4509   -2079.7054    20303.554    1.7106018 
    4450    340.11319   -6950.6377   -6912.6976    -2185.173    20307.052     1.711956 
    4460     331.4492   -6949.9637     -6912.99   -2195.5783     20303.86    1.7149527 
    4470    329.95216   -6950.1093   -6913.3027   -2091.3596    20294.022    1.7193148 
    4480     333.5419   -6950.8283   -6913.6212   -1535.6232    20278.026    1.7237577 
    4490    331.23474   -6950.8804   -6913.9306   -601.42384    20257.618    1.7278337 
    4500    320.58806   -6949.9651    -6914.203     406.4896    20235.634    1.7313558 
    4510      314.724   -6949.5227   -6914.4147    958.68338    20215.003    1.7330571 
    4520    323.12568   -6950.6215   -6914.5763     902.4892    20197.337    1.7310043 
    4530    328.23095   -6951.3213   -6914.7067    735.15345    20182.581    1.7251184 
    4540    326.20484   -6951.1987     -6914.81    772.76571    20170.268    1.7169023 
    4550    324.86916   -6951.1235   -6914.8839    776.25904    20160.391    1.7078948 
    4560    321.18976   -6950.7533   -6914.9241    873.33381    20152.986    1.6985942 
    4570    322.04083   -6950.8518   -6914.9276    1068.6046    20148.312    1.6883335 
    4580    331.30297   -6951.8611   -6914.9037     1094.756    20146.842    1.6774402 
    4590    330.85498   -6951.7719   -6914.8646    1130.8023    20148.683    1.6677874 
    4600    321.86733   -6950.7173   -6914.8126    1183.8533    20153.906    1.6590008 
    4610    320.80835   -6950.5243   -6914.7376    1039.1475    20162.593    1.6477491 
    4620    327.08017   -6951.1227   -6914.6364    694.61628    20174.263    1.6317872 
    4630    326.50114   -6950.9347    -6914.513    337.10278    20187.912    1.6115388 
    4640    326.53445   -6950.7953   -6914.3699   -179.38073    20202.397    1.5895696 
    4650    337.20113   -6951.8265   -6914.2112   -791.68479    20216.158    1.5694181 
    4660    341.08753   -6952.1064   -6914.0575   -909.57326    20227.512    1.5535992 
    4670    336.10266   -6951.4206   -6913.9278   -701.35281    20236.069      1.54213 
    4680    332.42847   -6950.8946   -6913.8117    -817.5067    20242.295    1.5336905 
    4690    335.70665   -6951.1458   -6913.6972   -1077.4071    20245.938    1.5276799 
    4700    338.36935   -6951.3347   -6913.5891   -1295.8994    20246.276    1.5249278 
    4710    331.08538   -6950.4288   -6913.4958   -1226.7618    20242.767    1.5260196 
    4720    325.94956   -6949.7683   -6913.4082   -1035.5805    20235.623    1.5292189 
    4730    334.46488    -6950.629   -6913.3189   -944.40987    20225.396    1.5330725 
    4740    342.23377   -6951.4164   -6913.2397    -584.7058    20212.517    1.5391311 
    4750    338.39354   -6950.9258   -6913.1775    187.89235    20198.175    1.5490168 
    4760    337.40848   -6950.7647   -6913.1262    919.25228     20184.58    1.5613685 
    4770    340.66668    -6951.085   -6913.0831    1371.8181    20173.859    1.5739418 
    4780    342.36637   -6951.2476   -6913.0561    1370.9878    20167.286    1.5859276 
    4790    338.94714   -6950.8571    -6913.047    1180.2676    20164.862    1.5967294 
    4800    338.04016   -6950.7584   -6913.0495    1063.9137    20166.038    1.6054796 
    4810    343.07707   -6951.3304   -6913.0596    993.18745    20170.409    1.6133028 
    4820    342.60711   -6951.2981   -6913.0797    1057.2216    20177.763    1.6226537 
    4830    336.99505   -6950.6957   -6913.1034    785.04712     20188.14     1.634565 
    4840    342.57885    -6951.341   -6913.1258    23.286889    20200.634    1.6487433 
    4850    337.71264   -6950.8171   -6913.1447   -355.04488    20213.196    1.6648881 
    4860    326.42284   -6949.5695   -6913.1565   -658.02764    20224.548    1.6805795 
    4870    324.51115   -6949.3439   -6913.1442   -1042.1992    20233.763    1.6931051 
    4880    331.29688   -6950.0617   -6913.1051   -1292.1982    20239.763    1.7024362 
    4890    337.57785    -6950.711   -6913.0537   -1425.7142    20241.811    1.7102341 
    4900    334.89867   -6950.3619   -6913.0034   -1402.0487    20239.556    1.7182966 
    4910    328.36104   -6949.5835   -6912.9543   -1100.1564    20233.159    1.7273275 
    4920    321.38609    -6948.739   -6912.8879   -692.24305    20223.548    1.7370059 
    4930    326.37371   -6949.1965    -6912.789   -466.43001    20211.912     1.746354 
    4940    339.98318   -6950.5884   -6912.6627   -343.50647    20198.968      1.75463 
    4950    337.79595   -6950.2051   -6912.5235   -4.9540195    20185.193    1.7617153 
    4960    334.66479   -6949.7092   -6912.3768    402.32464    20171.576    1.7668226 
    4970    340.60772   -6950.2109   -6912.2156    730.58405    20159.307    1.7694565 
    4980    352.23016   -6951.3431   -6912.0513    1016.3061    20149.377    1.7700728 
    4990    359.75401   -6952.0413   -6911.9102    1359.3184    20142.645     1.770378 
    5000    359.98523   -6951.9734   -6911.8165     1611.393    20140.033    1.7715189 
Loop time of 1420.17 on 16 procs for 3000 steps with 864 atoms

Performance: 0.183 ns/day, 131.498 hours/ns, 2.112 timesteps/s
97.0% CPU use with 16 MPI tasks x 1 OpenMP threads

MPI task timing breakdown:
Section |  min time  |  avg time  |  max time  |%varavg| %total
---------------------------------------------------------------
Pair    | 659.4      | 1008.2     | 1419.6     | 675.9 | 70.99
Bond    | 0.00024605 | 0.00080875 | 0.0020688  |   0.0 |  0.00
Neigh   | 0.023307   | 0.036133   | 0.049943   |   4.3 |  0.00
Comm    | 0.083818   | 285.52     | 624.61     |1237.0 | 20.10
Output  | 0.24435    | 0.24701    | 0.28604    |   2.0 |  0.02
Modify  | 0.1751     | 126.12     | 310.74     | 979.6 |  8.88
Other   |            | 0.01089    |            |       |  0.00

Nlocal:        54.0000 ave          73 max          40 min
Histogram: 3 3 0 1 0 4 2 2 0 1
Nghost:        504.125 ave         558 max         423 min
Histogram: 1 2 1 1 1 0 2 0 7 1
Neighs:         0.00000 ave           0 max           0 min
Histogram: 16 0 0 0 0 0 0 0 0 0
FullNghs:      2404.50 ave        3901 max        1372 min
Histogram: 3 3 0 1 3 2 1 1 1 1

Total # of neighbors = 38472
Ave neighs/atom = 44.527778
Ave special neighs/atom = 0.0000000
Neighbor list builds = 300
Dangerous builds = 300
unfix   2

fix     3 all npt temp 337.5 337.5 $(100.0*dt) aniso 1.01325 1.01325 $(1000.0*dt)
fix     3 all npt temp 337.5 337.5 0.10000000000000000555 aniso 1.01325 1.01325 $(1000.0*dt)
fix     3 all npt temp 337.5 337.5 0.10000000000000000555 aniso 1.01325 1.01325 1
run     20000
Per MPI rank memory allocation (min/avg/max) = 8.898 | 8.906 | 8.914 Mbytes
Step Temp PotEng TotEng Press Volume c_msd[4] 
    5000    359.98523   -6951.9734   -6911.8165     1611.393    20140.033    1.7715189 
    5010    352.31648   -6951.1431   -6911.8417    1761.5342    20142.572     1.770448 
    5020    350.00252   -6950.9538   -6911.9105    1586.1323    20150.354    1.7672612 
    5030    351.47783   -6951.2209    -6912.013    1224.6639    20162.914      1.76097 
    5040    355.16695   -6951.7737   -6912.1543    819.76992    20179.197    1.7518786 
    5050    351.27356   -6951.5216   -6912.3365    511.73288    20198.038    1.7398196 
    5060    343.55787   -6950.8738   -6912.5494    305.79949    20218.497    1.7238482 
    5070    339.82558   -6950.6819   -6912.7739    99.341193    20239.928    1.7046686 
    5080    339.91279    -6950.919   -6913.0013   -476.58301     20261.58    1.6853042 
    5090    331.53543   -6950.2016   -6913.2184   -979.12703    20281.842     1.669181 
    5100    323.92956   -6949.5457   -6913.4109   -1307.8828    20299.202    1.6573032 
    5110    321.38699   -6949.4186   -6913.5674   -1546.3026      20312.6    1.6488378 
    5120    331.34514   -6950.6581    -6913.696    -1865.717    20321.233      1.64221 
    5130     341.1386   -6951.8735   -6913.8189   -2180.4648    20324.141    1.6370749 
    5140    335.74634      -6951.4    -6913.947    -2100.912    20320.475    1.6337506 
    5150    333.63719   -6951.2958   -6914.0781   -1865.0462    20310.375    1.6305808 
    5160    329.68531   -6950.9774   -6914.2006   -1231.6672    20294.662     1.625488 
    5170    325.78163   -6950.6385   -6914.2971   -483.71411    20275.201    1.6170638 
    5180    325.79297   -6950.6989   -6914.3562    11.980827      20254.2    1.6061533 
    5190    326.72318   -6950.8263   -6914.3799    222.86361    20233.185    1.5956263 
    5200     332.3611   -6951.4534   -6914.3781    368.56543    20212.877    1.5878579 
    5210    339.52044   -6952.2414   -6914.3674    544.74877    20193.738    1.5833011 
    5220    335.83974   -6951.8222   -6914.3588    870.69869    20176.336    1.5805416 
    5230    330.12576   -6951.1706   -6914.3445    1314.8846    20161.651    1.5766577 
    5240    332.78881   -6951.4401    -6914.317    1838.2808    20151.014    1.5694827 
    5250    331.72668   -6951.2802   -6914.2756    2425.3018    20145.979    1.5591701 
    5260    329.17297   -6950.9435   -6914.2238    2881.7964    20148.254    1.5462975 
    5270    335.07176   -6951.5425   -6914.1647    2665.1125    20159.038    1.5318983 
    5280    340.33344   -6952.0656   -6914.1009    1876.3329    20177.685      1.51859 
    5290     334.6359   -6951.3607   -6914.0315    923.13014     20201.87    1.5083682 
    5300    331.61974   -6950.9405   -6913.9478    12.477735    20228.767    1.5010042 
    5310    330.61991    -6950.718   -6913.8368   -867.71068    20255.581    1.4957985 
    5320    328.81917   -6950.3797   -6913.6994   -1366.8145    20279.724    1.4922067 
    5330    331.19813   -6950.4841   -6913.5384   -1597.6862    20299.617    1.4897644 
    5340    332.85466   -6950.4839   -6913.3535   -1735.0678    20314.539    1.4883947 
    5350     331.0932    -6950.073    -6913.139   -1904.2324    20324.057    1.4885277 
    5360    336.31733   -6950.3972   -6912.8805   -2184.7573    20327.636    1.4907236 
    5370    339.76375   -6950.4693   -6912.5681   -2375.6828    20324.516    1.4959897 
    5380    342.86979   -6950.4483   -6912.2006   -2399.7173    20314.181    1.5044648 
    5390    351.35324   -6950.9686   -6911.7746   -2087.1936    20296.672    1.5155884 
    5400    356.16078   -6951.0359   -6911.3056    -1138.095    20273.114    1.5288202 
    5410    355.05513   -6950.4362   -6910.8293     98.63262    20246.375    1.5430408 
    5420    351.92953    -6949.645   -6910.3867    994.81303    20220.083    1.5563276 
    5430    358.07541   -6949.9558   -6910.0119    1351.2063    20196.906    1.5677068 
    5440    366.22477   -6950.5878   -6909.7349    1505.1229    20177.983    1.5791735 
    5450    357.91611   -6949.4961   -6909.5701    1701.5046    20163.825    1.5931082 
    5460    352.31574   -6948.7933    -6909.492    1417.2461     20154.81    1.6090724 
    5470    357.21793   -6949.3168   -6909.4686    737.59819    20150.039    1.6258297 
    5480     357.0911   -6949.3212   -6909.4871    176.35213    20147.559    1.6424536 
    5490    357.36744   -6949.4062   -6909.5413   -146.96302    20145.691    1.6575625 
    5500    354.77564   -6949.2007   -6909.6249    -267.0935    20143.438    1.6705366 
    5510    348.46551      -6948.6   -6909.7282   -270.59099    20140.431    1.6814916 
    5520    350.68896   -6948.9708   -6909.8509   -262.03491    20136.636    1.6906959 
    5530    345.59934   -6948.5418   -6909.9897    54.658024    20132.194    1.6994277 
    5540    339.97002   -6948.0575   -6910.1334    370.90306    20127.985    1.7078547 
    5550    342.30041   -6948.4582   -6910.2741    267.81138    20124.806    1.7159486 
    5560    346.99159   -6949.1232   -6910.4158    248.51077     20122.51    1.7242384 
    5570    350.78698   -6949.6994   -6910.5686    417.27496    20121.061    1.7313307 
    5580    356.51465   -6950.5151   -6910.7453    467.97269    20120.841    1.7347673 
    5590    362.63576    -6951.414   -6910.9614    390.60774    20121.993    1.7341083 
    5600    362.31914   -6951.6401   -6911.2228    404.05263    20124.338    1.7304663 
    5610     359.7365   -6951.6581   -6911.5289     413.2191    20127.868    1.7252872 
    5620    350.62914   -6950.9715   -6911.8583    308.01932    20132.573    1.7210224 
    5630    342.76982   -6950.4107   -6912.1742    216.33027    20138.163    1.7194396 
    5640    343.32282   -6950.7535   -6912.4553      100.464    20144.331    1.7202236 
    5650    350.82681   -6951.8475   -6912.7122   -105.31506    20150.703    1.7217467 
    5660    350.82851   -6952.1007   -6912.9653   -117.71854    20156.756    1.7223545 
    5670    341.93429   -6951.3563    -6913.213    66.556584    20162.442    1.7204608 
    5680    338.43251   -6951.1948   -6913.4421    179.09938    20168.238    1.7154151 
    5690    337.85292   -6951.3333   -6913.6453    200.19382    20174.501    1.7084125 
    5700    337.91792   -6951.5185   -6913.8233    60.944645    20181.267    1.7009416 
    5710    341.59015   -6952.0938   -6913.9889   -239.41714     20188.08    1.6947859 
    5720    338.99758   -6951.9656   -6914.1499   -157.74006    20194.229    1.6914952 
    5730    334.69915   -6951.6408   -6914.3046    35.850505    20199.857    1.6904841 
    5740    332.23684   -6951.5057   -6914.4442   -41.355773    20205.454    1.6906327 
    5750    331.97539   -6951.5962   -6914.5638   -281.25107    20210.832     1.691317 
    5760    333.74951   -6951.8967   -6914.6665   -463.04136    20215.306    1.6923202 
    5770    330.05585   -6951.5708   -6914.7526   -321.90702    20218.438     1.693843 
    5780    327.87973   -6951.3932   -6914.8177   -209.49048    20220.554    1.6960476 
    5790    336.57974   -6952.4117   -6914.8657   -362.31983    20221.943    1.6986025 
    5800    342.06327   -6953.0686   -6914.9109   -699.32821    20222.176    1.7015422 
    5810    339.64911   -6952.8546   -6914.9662   -1037.7203    20220.296    1.7050502 
    5820    336.13624   -6952.5281   -6915.0316   -1059.3155    20215.386    1.7091314 
    5830    334.18716   -6952.3765   -6915.0974   -608.36751    20207.459    1.7138447 
    5840    330.60685   -6952.0315   -6915.1518    89.646901    20197.854    1.7194674 
    5850    327.52926   -6951.7265   -6915.1901    625.79572    20188.587    1.7257137 
    5860    323.98388   -6951.3475   -6915.2066    905.18362    20181.255    1.7319063 
    5870    329.85858   -6951.9937   -6915.1975    870.67405    20176.662     1.736908 
    5880    340.45814   -6953.1499   -6915.1713    610.82026    20174.695    1.7402749 
    5890    335.89251   -6952.6106   -6915.1412    288.86922    20174.572    1.7424855 
    5900    327.35472   -6951.6193   -6915.1024   -179.41778    20175.272    1.7436956 
    5910    329.73788    -6951.825   -6915.0423   -539.89696    20175.454    1.7444084 
    5920    340.49468   -6952.9436   -6914.9609     -516.738    20174.118    1.7453963 
    5930    353.90076   -6954.3603   -6914.8821   -446.19301     20171.24    1.7477022 
    5940    346.34044   -6953.4618    -6914.827   -266.40495    20167.087    1.7535163 
    5950     335.5587    -6952.222   -6914.7899   -304.56765    20162.125    1.7633827 
    5960    334.55966   -6952.0706   -6914.7499   -568.89761     20156.24    1.7759959 
    5970    330.76944   -6951.5957   -6914.6978   -725.01058    20148.729    1.7902722 
    5980    321.37758   -6950.4747   -6914.6245   -778.18399    20139.151    1.8043855 
    5990    318.40134   -6950.0282   -6914.5101   -543.16781    20127.419    1.8156387 
    6000    330.00986    -6951.152   -6914.3389   -85.825578    20114.225    1.8230154 
    6010    339.79205   -6952.0209   -6914.1166    432.90426    20100.912    1.8288983 
    6020    338.52763   -6951.6267   -6913.8634    1084.0208    20089.062     1.836444 
    6030    340.86932   -6951.6146   -6913.5901    1509.5319    20080.511    1.8465391 
    6040     342.9826   -6951.5681   -6913.3079    1596.5825    20076.458      1.85906 
    6050    336.19284   -6950.5372   -6913.0344    1838.7599    20077.281    1.8718012 
    6060     340.2545   -6950.7298   -6912.7739    2031.0671    20083.577     1.880215 
    6070    349.34587   -6951.4985   -6912.5284    1975.8345    20095.858    1.8826397 
    6080     354.0736   -6951.8151   -6912.3177    1513.0485     20113.88    1.8808851 
    6090    354.80227   -6951.7297    -6912.151    806.56356    20136.277    1.8775894 
    6100    348.61321    -6950.911   -6912.0226    55.611874    20160.953     1.875397 
    6110    347.69484   -6950.7052   -6911.9193   -669.30964    20185.624    1.8757388 
    6120    354.98816   -6951.4391   -6911.8397    -1114.639    20208.178    1.8789296 
    6130     352.3788   -6951.1041   -6911.7957   -1314.5381     20227.26    1.8849747 
    6140    341.84419   -6949.9179   -6911.7847   -1630.2512    20242.151    1.8928048 
    6150    341.45541   -6949.8805   -6911.7906   -2024.8266    20251.955    1.9013051 
    6160    345.46913   -6950.3503   -6911.8127   -2095.5082    20255.625    1.9110669 
    6170    342.47662    -6950.061   -6911.8572   -1635.2523    20253.039    1.9232758 
    6180    339.84564   -6949.8242   -6911.9139   -953.79953      20245.6    1.9375737 
    6190     349.2079   -6950.9351   -6911.9804   -417.32946    20235.304     1.952788 
    6200    356.41721   -6951.8326   -6912.0737    4.1152846      20223.8    1.9691529 
    6210    354.91866   -6951.8021   -6912.2104    286.55577    20212.371    1.9872295 
    6220    353.14769   -6951.7853   -6912.3911    541.80421     20201.89     2.005648 
    6230    354.05315   -6952.1081   -6912.6129    1080.7051    20193.212    2.0215058 
    6240    351.91518   -6952.1317   -6912.8751    1738.5491    20187.908    2.0339406 
    6250    345.68067   -6951.7283   -6913.1671    1887.8909    20187.752    2.0436853 
    6260    338.37656   -6951.2134    -6913.467    1572.3291    20193.205    2.0505561 
    6270    334.29722    -6951.035   -6913.7436    876.90993    20203.275    2.0543412 
    6280    337.31975   -6951.6144   -6913.9858    184.69511    20215.934     2.056294 
    6290    332.02704   -6951.2271    -6914.189   -264.13271    20229.119    2.0588999 
    6300    325.98498   -6950.7085   -6914.3444   -486.72622    20241.479    2.0626006 
    6310    329.80826     -6951.24   -6914.4494   -770.74291    20252.251    2.0656777 
    6320    342.03621   -6952.6789   -6914.5242   -1025.5228    20260.617    2.0670129 
    6330    345.32614   -6953.1162   -6914.5946   -1135.0973    20265.858    2.0670087 
    6340     337.8257   -6952.3523   -6914.6674   -1088.9908    20267.646    2.0663212 
    6350    330.81166   -6951.6301   -6914.7276   -1026.0186    20266.109     2.065477 
    6360    334.11707   -6952.0415   -6914.7702   -1069.5244    20261.432    2.0651865 
    6370    332.31266   -6951.8653   -6914.7954   -888.43617    20253.605    2.0671576 
    6380    332.34216   -6951.8789   -6914.8056    -692.8886    20243.136     2.072122 
    6390    338.38709   -6952.5541   -6914.8066   -679.15142    20230.602    2.0797451 
    6400    340.84617   -6952.8333   -6914.8114   -635.22723    20216.111    2.0893657 
    6410    335.82886   -6952.2845   -6914.8223   -385.99635    20199.853    2.0987721 
    6420    329.90984   -6951.6275   -6914.8255   -8.3126636    20182.592    2.1055467 
    6430    331.14296   -6951.7484   -6914.8089    345.49847    20165.454    2.1095892 
    6440    341.00183   -6952.8179   -6914.7787    528.18632     20149.44    2.1126347 
    6450    349.24086   -6953.7156   -6914.7572    681.31902    20135.115    2.1157096 
    6460    344.91247   -6953.2306   -6914.7551    1187.9676    20123.091    2.1182702 
    6470    340.13084   -6952.7112   -6914.7691    1425.2057    20114.649    2.1188875 
    6480    337.21152   -6952.4081   -6914.7917    1320.8094    20110.462    2.1166568 
    6490     335.6416   -6952.2582   -6914.8169    1045.1406    20110.221    2.1117684 
    6500     340.8093   -6952.8632   -6914.8454    880.78512    20113.144    2.1051195 
    6510    346.23689   -6953.5114   -6914.8881    1039.3282    20118.764    2.0989609 
    6520    345.06187   -6953.4487   -6914.9566    1431.1227    20127.524     2.095507 
    6530    342.45592   -6953.2541   -6915.0526    1834.0744    20140.547    2.0948246 
    6540    340.18934   -6953.1198   -6915.1712    1796.2565    20158.903    2.0948387 
    6550    337.26893   -6952.9203   -6915.2975    1016.9297    20182.367    2.0927583 
    6560    336.48397   -6952.9519   -6915.4166   -133.72544    20208.649    2.0875578 
    6570    327.99119     -6952.11   -6915.5221   -779.55398    20234.487    2.0799716 
    6580     320.9394   -6951.4134   -6915.6122   -865.86868    20257.911    2.0706366 
    6590    314.10929   -6950.7113    -6915.672   -805.15014    20278.566    2.0620124 
    6600    318.06383   -6951.1686   -6915.6881   -1072.8286    20296.512    2.0563654 
    6610    332.02366   -6952.7024   -6915.6647   -1658.3109    20310.935    2.0537986 
    6620     341.6195   -6953.7376   -6915.6294   -1899.9991    20320.279    2.0532551 
    6630    339.08824   -6953.4313   -6915.6055   -1696.4956    20323.841    2.0537398 
    6640      332.968   -6952.7304   -6915.5874   -1291.4654    20322.235    2.0546406 
    6650    330.02937   -6952.3745   -6915.5592   -981.63663    20316.662    2.0563375 
    6660    324.75747    -6951.733   -6915.5058    -737.0026    20308.151     2.059543 
    6670    327.32821   -6951.9301   -6915.4161   -754.39478    20297.399    2.0644861 
    6680     332.1889   -6952.3395   -6915.2834   -619.30974    20284.515    2.0715688 
    6690    333.62752   -6952.3275   -6915.1108   -125.92875    20269.986    2.0794805 
    6700    333.37121   -6952.0868   -6914.8987    477.96433    20255.253    2.0859611 
    6710    338.34514   -6952.3912   -6914.6483    974.88368    20242.118    2.0900478 
    6720    346.85001   -6953.0647   -6914.3731    1053.1926    20231.975    2.0927899 
    6730    345.80666   -6952.6741   -6914.0989    891.16165    20225.082    2.0958055 
    6740    340.08437   -6951.7764   -6913.8395    778.98546    20220.986     2.099727 
    6750    342.31446   -6951.7767    -6913.591    667.75779     20219.28    2.1050838 
    6760    334.21749   -6950.6338   -6913.3514    846.14656    20219.706    2.1128938 
    6770    322.74687   -6949.1185   -6913.1156    1001.9616    20222.691     2.121751 
    6780    335.12664   -6950.2513   -6912.8674    702.58552    20228.567    2.1288727 
    6790    343.58046   -6950.9409    -6912.614    485.77251    20236.554      2.13358 
    6800    341.28196   -6950.4571   -6912.3865    477.06369    20246.011    2.1354665 
    6810    347.57486   -6950.9621   -6912.1896     185.8362    20256.743    2.1341821 
    6820    349.96026    -6951.063   -6912.0244    63.270988    20268.007    2.1310185 
    6830    345.58984   -6950.4482   -6911.8971    26.458848    20279.376    2.1274722 
    6840    352.44102   -6951.1183    -6911.803   -86.838772    20290.699    2.1244397 
    6850    360.86737   -6952.0045   -6911.7492    19.783737    20301.731    2.1234361 
    6860    357.24848   -6951.6008   -6911.7492    184.79955    20312.749    2.1250578 
    6870    346.33874   -6950.4271   -6911.7925     136.2785    20324.179    2.1280728 
    6880    336.63787   -6949.4029   -6911.8505   -159.02897    20335.866    2.1315083 
    6890    339.19789   -6949.7424   -6911.9043   -666.58243    20346.931    2.1357089 
    6900    343.95629   -6950.3286   -6911.9598   -1085.9025    20355.883    2.1414202 
    6910    336.80178   -6949.5941   -6912.0233   -1086.9634     20361.54    2.1482584 
    6920      334.178   -6949.3671    -6912.089   -960.29842    20363.841    2.1551943 
    6930    336.66824   -6949.7065   -6912.1506   -828.96403    20363.172    2.1621332 
    6940     335.4948   -6949.6324   -6912.2074   -642.83289    20359.977    2.1688878 
    6950    338.72358   -6950.0467   -6912.2616   -559.26981    20354.807    2.1742151 
    6960    341.17651   -6950.3784   -6912.3196   -445.14544    20347.988     2.177365 
    6970    339.01607   -6950.2021   -6912.3844   -262.73096     20339.91    2.1788433 
    6980    347.68826   -6951.2481   -6912.4629   -461.77471    20330.975    2.1799507 
    6990    349.88212   -6951.5997   -6912.5698   -718.35762    20320.673    2.1831551 
    7000    343.48177   -6951.0223   -6912.7064   -698.99815    20308.359    2.1888268 
    7010    349.64402   -6951.8773    -6912.874   -524.22891    20294.046    2.1954067 
    7020    346.79273   -6951.7618   -6913.0765   -53.430139    20278.326    2.2016166 
    7030    337.77103   -6950.9814   -6913.3026    432.21003      20262.6    2.2046883 
    7040    341.59057   -6951.6517   -6913.5468    229.84654    20248.122    2.2026947 
    7050     347.6281   -6952.6053   -6913.8269   -172.16777    20234.414    2.1983249 
    7060    338.03713   -6951.8444   -6914.1359   -116.42839    20220.439    2.1965158 
    7070    332.69373   -6951.5568   -6914.4444    293.33771    20206.325    2.1991386 
    7080     335.1773   -6952.1257   -6914.7362    737.03636    20193.242    2.2059588 
    7090    335.32644   -6952.4141   -6915.0079    1078.6365    20182.482    2.2165022 
    7100    335.01045   -6952.6224   -6915.2515    1444.6323    20175.079    2.2294742 
    7110    341.28395   -6953.5424   -6915.4716    1701.5162    20172.056    2.2424599 
    7120    339.35803   -6953.5265   -6915.6706    1827.9162    20174.147    2.2528019 
    7130    327.89714   -6952.4127   -6915.8352    1686.6522    20181.647    2.2577644 
    7140    318.07649   -6951.4278   -6915.9459    1369.9213    20194.149    2.2556428 
    7150    320.72117   -6951.7783   -6916.0013    866.73903    20210.648    2.2478725 
    7160    327.38431   -6952.5331   -6916.0129    394.60513    20229.671    2.2386618 
    7170    330.68414   -6952.8862   -6915.9979    21.653076    20249.792     2.231142 
    7180    330.44305   -6952.8302   -6915.9687   -182.52793    20269.881    2.2263118 
    7190    326.27038   -6952.3252   -6915.9292   -131.28462    20289.342    2.2249581 
    7200    327.16853   -6952.3731   -6915.8769   -147.35619    20308.235    2.2281101 
    7210    329.71207   -6952.5906   -6915.8107   -346.08438    20326.477    2.2354523 
    7220     323.5034   -6951.8146   -6915.7273   -624.59036    20343.512    2.2439483 
    7230    330.93578   -6952.5395   -6915.6231   -1251.9448    20358.371    2.2491414 
    7240    340.07864   -6953.4427   -6915.5064   -1770.1729    20369.286    2.2503514 
    7250    332.91756   -6952.5352   -6915.3977   -2020.4417    20374.733    2.2495527 
    7260    333.22078    -6952.468   -6915.2968   -2100.4578    20373.964    2.2475431 
    7270     342.4104   -6953.3956   -6915.1992   -1786.2989     20366.85    2.2456924 
    7280    343.71792   -6953.4546   -6915.1123   -1017.3728    20354.438    2.2454306 
    7290    337.97378   -6952.7344    -6915.033   -101.87875    20339.081    2.2465436 
    7300    334.70122   -6952.2856   -6914.9492    663.39336    20323.551    2.2489434 
    7310    334.19259   -6952.1359   -6914.8562     870.5425    20310.077    2.2537914 
    7320     330.2644   -6951.5966   -6914.7551     689.7085    20299.322    2.2614308 
    7330    326.47481   -6951.0575   -6914.6388    417.89092     20290.77    2.2701164 
    7340    332.35252   -6951.5766   -6914.5022     12.12943    20283.552    2.2777682 
    7350    341.76572   -6952.4773   -6914.3528   -389.59386     20276.46    2.2842652 
    7360    343.96622   -6952.5791   -6914.2092   -556.15382    20268.328    2.2910564 
    7370    334.52253   -6951.3939   -6914.0774   -351.52049    20258.692    2.2993091 
    7380    328.71781   -6950.6098   -6913.9409   -110.91048    20248.105    2.3091675 
    7390     339.7917   -6951.6928   -6913.7885   -164.51886    20237.217    2.3201213 
    7400    344.14731   -6952.0216   -6913.6315   -184.97233    20225.981     2.331797 
    7410     335.9895    -6950.963   -6913.4829   -18.177922    20214.366    2.3430175 
    7420     334.2461   -6950.6179   -6913.3323    313.43258    20202.895    2.3522351 
    7430    337.52649    -6950.819   -6913.1674    644.73479    20192.518    2.3603613 
    7440    348.62377   -6951.8901   -6913.0006    806.50163    20184.166    2.3701836 
    7450    350.70511   -6951.9733   -6912.8516    1028.5806    20178.368    2.3834391 
    7460    340.76058   -6950.7443   -6912.7319    1425.9059    20175.806    2.3982337 
    7470    332.54067   -6949.7201   -6912.6247    1589.2802     20177.51    2.4112717 
    7480    334.67868   -6949.8452   -6912.5113    1325.6527     20183.87    2.4213861 
    7490    342.79546   -6950.6252   -6912.3859    866.06991    20194.116     2.429626 
    7500    350.70537   -6951.3853   -6912.2636    589.24824    20206.912    2.4379099 
    7510    346.11506   -6950.7702   -6912.1605    608.05538    20221.435    2.4466436 
    7520    335.09591   -6949.4544   -6912.0739    745.70891    20237.683    2.4533669 
    7530    335.11587   -6949.3665   -6911.9838    686.00567    20255.961    2.4555545 
    7540    340.92685   -6949.9083   -6911.8774    355.59791     20276.06    2.4539793 
    7550     340.9866   -6949.7938   -6911.7562   -88.315996    20297.038     2.451794 
    7560    343.19606   -6949.9053   -6911.6212   -788.80393    20317.452    2.4509276 
    7570    342.03419   -6949.6255   -6911.4711   -1214.7291    20335.328    2.4514148 
    7580     338.3427   -6949.0501   -6911.3075   -1348.5242     20349.37     2.452107 
    7590    339.89764   -6949.0383   -6911.1222   -1382.3814     20359.15    2.4518389 
    7600    340.93106    -6948.938   -6910.9067    -1249.982    20364.633    2.4508542 
    7610    343.77439   -6949.0075    -6910.659   -1081.2828    20366.228    2.4508259 
    7620    346.07152   -6948.9833   -6910.3785   -959.14516    20364.493    2.4530129 
    7630    349.01549   -6949.0058   -6910.0726   -1041.0889    20359.783    2.4562639 
    7640    354.09523    -6949.255   -6909.7552   -1145.0408    20351.947    2.4587556 
    7650    357.91887   -6949.3744    -6909.448   -1331.6804    20340.656    2.4600576 
    7660    358.43037   -6949.1559   -6909.1725   -1274.6367    20325.491    2.4611939 
    7670    360.16386   -6949.1172   -6908.9404   -870.34269    20306.712     2.462062 
    7680    356.64534   -6948.5359   -6908.7515   -276.80599    20285.574     2.461884 
    7690    354.80711   -6948.1821   -6908.6028    222.69024    20263.852     2.460587 
    7700    362.34125   -6948.9103   -6908.4906    499.43293    20243.057    2.4594184 
    7710    369.48467   -6949.6459   -6908.4293    699.18159    20224.063    2.4608886 
    7720    376.07016    -6950.396   -6908.4449    895.82728    20207.454    2.4665019 
    7730     371.4664   -6949.9913   -6908.5536    1181.1939    20193.788    2.4758287 
    7740    362.71015   -6949.2093   -6908.7484    1572.9203     20183.91    2.4862719 
    7750    354.12718   -6948.5134     -6909.01    1672.4154    20178.841    2.4950246 
    7760    351.68365     -6948.55   -6909.3191    1258.6753    20178.736    2.5008516 
    7770    355.93581   -6949.3694   -6909.6643    685.44808    20182.396    2.5049614 
    7780    355.21955   -6949.6587   -6910.0335    312.21224    20188.138    2.5080842 
    7790    351.69849   -6949.6317   -6910.3992     110.9747    20194.805    2.5090466 
    7800    357.24336   -6950.5968   -6910.7458   -121.09121    20201.708     2.508049 
    7810    355.45507   -6950.7165   -6911.0649   -48.341968    20208.271    2.5079679 
    7820    345.73097    -6949.907   -6911.3402    164.01298    20214.633    2.5106367 
    7830    347.30366   -6950.3105   -6911.5683    477.20686    20221.443    2.5149442 
    7840    355.84576   -6951.4659   -6911.7708    699.95992    20229.574    2.5184358 
    7850    357.00668   -6951.7932   -6911.9686    605.39318    20239.605    2.5197808 
    7860    355.60131   -6951.8377   -6912.1698    153.24711    20251.252    2.5201095 
    7870    354.56495   -6951.9281   -6912.3759   -516.83734    20263.149     2.521262 
    7880     348.9249   -6951.5093   -6912.5862   -789.78372     20273.44    2.5241933 
    7890    337.75438   -6950.4662   -6912.7891   -640.49816    20281.303     2.528885 
    7900     333.7778   -6950.2015    -6912.968   -399.06602    20287.128    2.5336522 
    7910     344.7312   -6951.5911   -6913.1358   -68.463575    20291.701     2.537492 
    7920    340.78835   -6951.3216   -6913.3062    341.47135    20296.048    2.5412305 
    7930    329.73828   -6950.2528     -6913.47    426.38628    20301.319    2.5443364 
    7940    331.14425   -6950.5526    -6913.613   -131.17834    20307.636    2.5451116 
    7950    336.19139   -6951.2404   -6913.7378   -719.87728    20313.474    2.5421715 
    7960    341.37243   -6951.9407   -6913.8601    -1051.823    20317.108    2.5343933 
    7970    347.08016   -6952.7142   -6913.9968   -996.67083    20317.582    2.5231159 
    7980    347.02722   -6952.8671   -6914.1557   -590.98033    20315.109    2.5105377 
    7990    341.95105   -6952.4782    -6914.333   -236.88157    20310.822    2.4974761 
    8000    335.67824   -6951.9583   -6914.5129    86.016745    20305.866    2.4849043 
    8010     338.5588   -6952.4551   -6914.6883    104.15841    20301.167     2.473487 
    8020    346.27084   -6953.4988   -6914.8718   -271.79316    20296.751    2.4627089 
    8030    343.60724   -6953.3986   -6915.0687   -606.64968    20291.588    2.4526959 
    8040    342.59147   -6953.4887   -6915.2721   -720.82505      20284.7    2.4438316 
    8050    346.85611   -6954.1765   -6915.4842   -452.91283    20275.829    2.4364499 
    8060    341.84137   -6953.8349   -6915.7019    93.210929    20265.782    2.4311739 
    8070    336.06698   -6953.3971   -6915.9084    565.65772    20256.136    2.4274842 
    8080    335.00823   -6953.4658   -6916.0952    899.70519    20248.334    2.4240596 
    8090    335.71425   -6953.7189   -6916.2694    994.70979    20243.309     2.419898 
    8100    336.43143    -6953.968   -6916.4386    1005.9917    20241.338     2.413882 
    8110    333.88871   -6953.8453   -6916.5996    1094.0531    20242.482    2.4052817 
    8120    331.66372   -6953.7473   -6916.7497    1034.7662    20246.885     2.395303 
    8130    326.18117   -6953.2654   -6916.8794    988.16357    20254.407    2.3867788 
    8140    329.56461   -6953.7492   -6916.9857    757.89784    20264.797    2.3814532 
    8150    333.06883   -6954.2268   -6917.0725    498.28345    20277.351    2.3795478 
    8160    329.78943   -6953.9321   -6917.1435    376.44515    20291.296    2.3798754 
    8170    327.94081   -6953.7799   -6917.1976    248.88514    20306.205    2.3799765 
    8180     324.1909   -6953.3928   -6917.2288     25.96385    20321.671    2.3779535 
    8190    320.36022   -6952.9659   -6917.2292   -414.53776    20336.967    2.3730863 
    8200    324.43668   -6953.3849   -6917.1935   -862.02363    20350.796    2.3658076 
    8210    328.42701   -6953.7655    -6917.129   -1052.1268    20361.885     2.358261 
    8220    322.53341   -6953.0194   -6917.0403   -1229.4954    20369.616     2.352731 
    8230     321.4243   -6952.7763    -6916.921   -1480.9318    20373.442    2.3504616 
    8240    321.28621   -6952.6003   -6916.7603   -1380.6221    20372.802    2.3519832 
    8250    322.69411   -6952.5543   -6916.5573   -1269.8898    20367.939    2.3563863 
    8260    333.00779   -6953.4646   -6916.3171   -1313.2142    20359.192    2.3622071 
    8270    341.47953    -6954.151   -6916.0585   -1218.0061    20346.598    2.3684441 
    8280    335.14326   -6953.1915   -6915.8058   -885.57107    20330.521    2.3745933 
    8290    331.05168   -6952.4892   -6915.5599   -481.42409    20311.993     2.380161 
    8300    341.11337   -6953.3679   -6915.3161   -243.69735    20292.204    2.3850495 
    8310     344.5474   -6953.5228    -6915.088    355.98527    20272.076    2.3902522 
    8320    340.64668   -6952.8884   -6914.8887    1116.5729    20253.373    2.3966159 
    8330    342.73393   -6952.9512   -6914.7187    1479.2691    20238.218    2.4030151 
    8340     342.5431   -6952.7896   -6914.5784    1717.0441    20227.733    2.4072092 
    8350    342.81039   -6952.7119   -6914.4709    2027.1927    20222.621    2.4080043 
    8360    345.03937   -6952.8877    -6914.398    2142.5501    20223.642    2.4073419 
    8370    344.47303   -6952.7869   -6914.3605    2159.4381     20231.11    2.4083132 
    8380    342.39907   -6952.5478   -6914.3527    1868.5389    20244.931    2.4124534 
    8390    335.03967   -6951.7307   -6914.3565    1515.8269    20264.243    2.4191325 
    8400    332.22972   -6951.4161   -6914.3553    1167.5585    20287.916     2.425165 
    8410     338.1565    -6952.066   -6914.3441    656.78468    20314.779    2.4280558 
    8420    339.96081   -6952.2535   -6914.3304    204.76976    20343.329    2.4282841 
    8430    332.84382   -6951.4472    -6914.318   -56.491377    20372.202    2.4272613 
    8440    323.00268   -6950.3236   -6914.2922   -245.90356    20400.518    2.4257112 
    8450    326.05688   -6950.6078   -6914.2357   -625.97709    20427.626    2.4234521 
    8460    340.35504   -6952.1172   -6914.1501   -1281.5727    20452.339     2.420936 
    8470    345.82251    -6952.642    -6914.065   -1775.7037    20472.755     2.419669 
[...]
   22890    343.71792     -6956.92   -6918.5778   -1251.5839    20317.997    3.1834086 
   22900    337.53766   -6956.3492   -6918.6964   -1696.0006    20327.306    3.1798032 
   22910    331.99526   -6955.8425    -6918.808   -1824.3706    20331.456    3.1802795 
   22920    331.16758   -6955.8499   -6918.9076   -1799.1189    20330.031    3.1826831 
   22930    322.54677    -6954.967   -6918.9865   -1585.3373    20323.136    3.1834206 
   22940    318.61902    -6954.575   -6919.0326   -1292.3799    20311.452    3.1800113 
   22950    322.26064   -6954.9877    -6919.039   -1087.5135    20295.863    3.1734509 
   22960    325.53353   -6955.3256   -6919.0119   -657.59811    20277.106    3.1667346 
   22970    323.29042   -6955.0155    -6918.952    227.75642    20256.586    3.1620004 
   22980    320.79802   -6954.6421   -6918.8566     1046.159    20236.873    3.1596112 
   22990    323.57262   -6954.8241   -6918.7291     1376.205    20220.339    3.1582336 
   23000    330.27264   -6955.4197   -6918.5773    1260.9052    20207.951     3.156288 
   23010     339.4033   -6956.2756   -6918.4146    1073.2764    20199.438    3.1532078 
   23020    346.00076   -6956.8557   -6918.2588    1013.0383    20194.253    3.1500124 
   23030    348.43439   -6956.9969   -6918.1285    1224.7685    20192.245    3.1485975 
   23040    345.22109   -6956.5397   -6918.0297      1519.09    20193.977     3.148363 
   23050    341.41557   -6956.0446   -6917.9592    1477.9951    20200.183    3.1464903 
   23060     340.6684   -6955.9081    -6917.906    1296.3257    20210.835    3.1410508 
   23070    342.24534     -6956.04    -6917.862    874.53414    20225.313    3.1319862 
   23080    343.97237   -6956.1962   -6917.8256    349.07422    20242.363    3.1220147 
   23090    344.67997   -6956.2455    -6917.796   -129.83943    20260.435    3.1142449 
   23100    353.83021   -6957.2556   -6917.7853    -486.4324    20278.051    3.1093362 
   23110    351.87741   -6957.0618   -6917.8093   -515.75918    20294.185    3.1067667 
   23120    342.58093    -6956.079   -6917.8636   -470.34226    20308.702    3.1052891 
   23130    347.26937   -6956.6766   -6917.9382   -442.65221     20321.73    3.1047019 
   23140    348.83498     -6956.95    -6918.037   -282.18062    20333.392    3.1067186 
   23150    340.91818   -6956.1914   -6918.1614   -160.35844    20344.132    3.1106382 
   23160    338.26748   -6956.0293   -6918.2951   -325.73983    20354.264      3.11277 
   23170     342.8485   -6956.6784   -6918.4331   -768.19232    20363.281    3.1110103 
   23180    340.20408   -6956.5289   -6918.5787   -1086.9687    20369.962     3.105763 
   23190     339.0246   -6956.5548   -6918.7361   -1217.9778    20373.321    3.0984112 
   23200    337.72584   -6956.5811   -6918.9073   -1024.0022    20373.004    3.0913012 
   23210    334.26467   -6956.3775   -6919.0897   -733.48134    20369.549    3.0869116 
   23220    328.01969   -6955.8682   -6919.2772   -396.42974    20363.864    3.0855697 
   23230    325.25421   -6955.7407   -6919.4582   -62.946129    20356.993    3.0846839 
   23240    332.37597   -6956.7141   -6919.6371    131.15813     20349.92    3.0815005 
   23250     335.9315   -6957.3027    -6919.829    295.70292    20343.271    3.0749856 
   23260    328.78204   -6956.7201    -6920.044    517.58629    20337.598    3.0654082 
   23270    323.81302   -6956.3978    -6920.276     457.1457    20333.485    3.0544605 
   23280    333.70351   -6957.7656   -6920.5405   -2.0116024    20330.688    3.0447739 
   23290    330.80846   -6957.7577   -6920.8555   -212.18371    20327.984    3.0381512 
   23300    320.32748   -6956.9439   -6921.2109   -31.287934    20324.766    3.0340129 
   23310    320.31444   -6957.3208   -6921.5893   -26.492374    20321.416    3.0315466 
   23320    319.09203    -6957.573   -6921.9778   -72.015018    20318.003    3.0312055 
   23330    313.72785   -6957.3466   -6922.3498   -121.89817    20314.376    3.0330751 
   23340     314.4969   -6957.7636    -6922.681   -112.70513    20310.407    3.0367343 
   23350    316.23666   -6958.2362   -6922.9595    303.80849    20306.241    3.0415414 
   23360    315.94593   -6958.4222    -6923.178    705.06828     20303.03    3.0451093 
   23370    322.13012   -6959.2771    -6923.343    581.37748    20301.845    3.0458777 
   23380    323.18856   -6959.5159   -6923.4637    323.60219    20302.416    3.0460407 
   23390    315.19655   -6958.6957    -6923.535    170.17259    20304.018    3.0485232 
   23400    316.61979   -6958.8732   -6923.5538    -155.2556    20306.087    3.0542338 
   23410    318.47959   -6959.0518    -6923.525   -546.47691    20307.652    3.0628114 
   23420     311.4261   -6958.1979   -6923.4578   -564.56797    20307.668    3.0735412 
   23430    306.86695   -6957.5838   -6923.3523   -503.33866    20305.971     3.086073 
   23440    311.27869   -6957.9319   -6923.2083     -554.158    20302.696    3.0989889 
   23450    319.56991   -6958.6853   -6923.0367   -583.26069    20297.737    3.1108024 
   23460    322.22512   -6958.7961   -6922.8514   -305.97075    20291.108    3.1215458 
   23470    317.07544   -6958.0291   -6922.6588    296.36426    20283.661    3.1310663 
   23480    316.70837   -6957.7879   -6922.4586    751.16753    20277.087    3.1387276 
   23490    322.64139   -6958.2462   -6922.2551    1037.6163    20272.799    3.1450199 
   23500    328.57987   -6958.7142   -6922.0607    1088.7474    20271.635    3.1511299 
   23510    323.80669   -6958.0019   -6921.8808    953.64435    20273.753    3.1578455 
   23520    312.79425   -6956.5976   -6921.7049    870.32628    20278.815    3.1647192 
   23530    310.15651   -6956.1135   -6921.5151    723.85747    20286.491    3.1698491 
   23540    316.44358   -6956.6007   -6921.3009    531.29671     20296.35    3.1722916 
   23550    322.97186   -6957.0981   -6921.0701    296.72442    20307.807    3.1727425 
   23560    323.78546   -6956.9554   -6920.8367    102.10367    20320.175    3.1722064 
   23570    324.14275    -6956.764   -6920.6054   -134.44191    20332.802    3.1712992 
   23580    329.49553   -6957.1294   -6920.3737   -315.65051     20345.01    3.1703859 
   23590    338.69913   -6957.9297   -6920.1473   -645.56961    20356.176    3.1701334 
   23600    341.00835   -6957.9809   -6919.9409   -808.14603    20365.368    3.1710791 
   23610    335.79757   -6957.2192   -6919.7604    -706.4241     20372.12    3.1724783 
   23620    333.06249   -6956.7459   -6919.5923   -652.04918    20376.676    3.1735434 
   23630    336.80983        -6957   -6919.4284   -983.12464    20379.101     3.174482 
   23640    337.93283   -6956.9705   -6919.2736   -1345.5767    20378.477    3.1759461 
   23650    334.90117   -6956.4922   -6919.1335   -1428.1848    20373.773    3.1785741 
   23660    337.67888   -6956.6694   -6919.0008   -1358.0776    20364.733    3.1827883 
   23670    343.21114   -6957.1613   -6918.8756   -1231.8015    20351.552    3.1885546 
   23680    340.75794   -6956.7737   -6918.7616   -729.67976     20334.74    3.1947748 
   23690    339.83418   -6956.5636   -6918.6546   -96.789878    20315.774    3.1996995 
   23700    331.94365   -6955.5707   -6918.5419    591.06068    20296.616    3.2027719 
   23710     326.4039   -6954.8269   -6918.4161    1110.8647    20279.296    3.2037686 
   23720    334.50372   -6955.5857   -6918.2713    1251.7595    20265.342    3.2026887 
   23730    345.57335   -6956.6704   -6918.1212    1163.9413    20255.202    3.2001251 
   23740    342.06849   -6956.1429   -6917.9847    1204.7418    20248.685     3.198093 
   23750    340.10524   -6955.8052   -6917.8659    1193.2904    20245.845     3.198419 
   23760     343.1657   -6956.0408   -6917.7601    1106.3006     20246.62    3.2008884 
   23770    338.37213   -6955.4161   -6917.6702     1313.066    20250.838     3.204169 
   23780    329.28158   -6954.3204   -6917.5885    1518.3344    20259.054    3.2063965 
   23790    331.51762   -6954.4759   -6917.4946    1261.9177    20271.775    3.2041454 
   23800    340.43117   -6955.3542   -6917.3786    639.09214     20288.21    3.1953458 
   23810    338.71906   -6955.0345   -6917.2498     152.6307    20306.611    3.1820056 
   23820    330.06615   -6953.9287   -6917.1093   -330.76709    20325.415    3.1668909 
   23830    334.61486   -6954.2724   -6916.9456   -722.69029    20343.159     3.151484 
   23840    342.72771   -6954.9968    -6916.765   -814.52419    20358.687    3.1390854 
   23850    342.96943   -6954.8493   -6916.5906   -806.76007    20371.641    3.1337901 
   23860    339.71805   -6954.3272   -6916.4312   -733.16157    20382.075    3.1356614 
   23870    340.00971   -6954.2085   -6916.2799   -790.14766    20390.142    3.1412143 
   23880    346.31065   -6954.7635    -6916.132   -826.36556    20395.728    3.1469899 
   23890    358.51702    -6955.991   -6915.9979   -801.62828     20398.76    3.1516284 
   23900    365.39749   -6956.6675   -6915.9068   -773.37196    20399.299    3.1565566 
   23910    354.44286   -6955.4154   -6915.8768   -532.84481    20397.522     3.163844 
   23920    348.10377    -6954.727   -6915.8955   -311.76054    20394.115    3.1726296 
   23930    347.53094   -6954.7123   -6915.9447   -217.63389    20389.728    3.1806361 
   23940      351.304   -6955.2158   -6916.0273   -262.74439     20384.66    3.1865199 
   23950     351.1383   -6955.3218   -6916.1518   -391.67575    20378.786    3.1914235 
   23960    346.25024   -6954.9456   -6916.3208   -414.25722    20371.755    3.1957652 
   23970    348.71434   -6955.4346    -6916.535   -439.78955    20363.454    3.1988544 
   23980    347.23334   -6955.5296   -6916.7952   -28.419473    20353.973    3.2026397 
   23990    337.70343    -6954.764   -6917.0927    432.00215    20344.471    3.2095018 
   24000    330.69697   -6954.2972   -6917.4074    363.71573    20336.217    3.2187599 
   24010     337.5926   -6955.3964   -6917.7374   -345.04178    20328.931    3.2284251 
   24020    340.57214   -6956.0755   -6918.0841   -923.45189    20320.664    3.2374159 
   24030    333.40231   -6955.6184   -6918.4269   -963.97483    20309.749     3.244358 
   24040    327.09334     -6955.22   -6918.7323    -665.4751    20296.003    3.2473922 
   24050    328.66052   -6955.6461   -6918.9835   -244.98442    20280.332    3.2471383 
   24060    334.05893   -6956.4513   -6919.1865     122.6674    20263.981    3.2472124 
   24070    332.28892    -6956.412   -6919.3446    501.77313    20248.106     3.251272 
   24080    331.56242   -6956.4468   -6919.4605      621.402    20233.785    3.2600702 
   24090    333.35668   -6956.7294    -6919.543    528.39443    20221.368    3.2718564 
   24100     335.8702   -6957.0703   -6919.6034    615.18356    20210.661    3.2839135 
   24110    336.97342   -6957.2386   -6919.6487      944.219     20201.95    3.2939537 
   24120    334.24173   -6956.9707   -6919.6856    1327.2652    20196.153    3.3008129 
   24130     329.0909   -6956.4213   -6919.7107    1694.2821     20194.41    3.3054506 
   24140    333.47277   -6956.9246   -6919.7252    1851.8877    20197.757    3.3097822 
   24150    337.56302   -6957.3915   -6919.7358    1769.5305    20206.631    3.3148684 
   24160    336.12929   -6957.2436   -6919.7479    1552.5344    20220.821    3.3195476 
   24170    340.41374   -6957.7342   -6919.7606    1039.7327    20239.611    3.3219279 
   24180    345.76888    -6958.347    -6919.776    401.71369    20261.485    3.3220697 
   24190    339.18701   -6957.6361   -6919.7993    203.62656    20284.659    3.3219547 
   24200    329.74627   -6956.6065   -6919.8228    199.35872    20308.447    3.3232196 
   24210    330.21506   -6956.6657   -6919.8298   -62.976067    20332.732    3.3256783 
   24220    336.27329   -6957.3277    -6919.816   -647.60827    20356.665    3.3290831 
   24230    337.20564   -6957.4052   -6919.7894   -1306.9456    20378.503    3.3338827 
   24240    334.58325   -6957.0808   -6919.7575   -1812.9903     20396.29    3.3390551 
   24250    334.52194   -6957.0418   -6919.7254   -2116.2099    20408.478    3.3438599 
   24260    327.60347   -6956.2347     -6919.69   -2109.7069    20414.173    3.3500204 
   24270     324.6158   -6955.8544    -6919.643    -1962.039    20413.351    3.3588949 
   24280    324.33133   -6955.7531   -6919.5735   -1583.2356    20406.538    3.3701143 
   24290    318.65583   -6955.0183   -6919.4718   -1064.6595    20394.893    3.3817637 
   24300    320.74973   -6955.1064   -6919.3262   -630.88669    20379.999    3.3922106 
   24310    328.13595   -6955.7351    -6919.131   -299.34223    20363.196    3.4026094 
   24320    326.59429   -6955.3285   -6918.8964    93.895694    20345.564     3.414646 
   24330    326.08358    -6955.007   -6918.6319    402.44393    20328.274    3.4273524 
   24340    328.48472   -6954.9814   -6918.3384    686.29815    20312.283    3.4397496 
   24350    330.95891    -6954.948   -6918.0291    842.74081    20298.431    3.4511746 
   24360    336.42039   -6955.2514   -6917.7232    645.93208    20287.123    3.4598501 
   24370    341.94969   -6955.5867   -6917.4417    424.14616    20277.833    3.4654797 
   24380    339.25171   -6955.0458   -6917.2018    641.52626     20270.01    3.4695225 
   24390    335.44777    -6954.422   -6917.0023    1007.6418    20264.214     3.472588 
   24400    345.12971    -6955.338   -6916.8382    1219.1439    20261.478    3.4755734 
   24410    348.48176   -6955.5878   -6916.7142    1293.4985    20262.454    3.4811576 
   24420    349.81184   -6955.6613   -6916.6393    1097.1502    20267.307    3.4914137 
   24430    352.84641   -6955.9676    -6916.607     750.6033    20275.464    3.5047575 
   24440    347.73819   -6955.3986   -6916.6079    514.82418    20285.924    3.5168718 
   24450    342.02692    -6954.782   -6916.6283    373.05676    20297.942     3.524944 
   24460    342.85687   -6954.9031   -6916.6569    151.83395    20311.011    3.5292872 
   24470    337.58691   -6954.3484     -6916.69    160.38483    20324.575    3.5318831 
   24480    333.48507   -6953.9221   -6916.7213    81.650125    20338.557    3.5342065 
   24490     342.4117   -6954.9462   -6916.7496   -263.65445    20352.642    3.5376826 
   24500    351.94701   -6956.0491   -6916.7889   -547.74013    20365.866    3.5439977 
   24510    354.83669   -6956.4409   -6916.8583   -754.44506    20377.342    3.5534954 
   24520    345.08607   -6955.4517   -6916.9568   -802.62148    20386.479    3.5652594 
   24530    331.16036   -6954.0009   -6917.0595   -707.18443    20393.136    3.5775187 
   24540     332.7219   -6954.2618   -6917.1461   -567.78882    20397.599    3.5878976 
   24550    344.28835    -6955.632   -6917.2261    -539.2038    20400.244    3.5963964 
   24560    343.69409   -6955.6552   -6917.3156   -216.92255     20401.31    3.6048923 
   24570    340.63867    -6955.419   -6917.4202   -43.294998    20401.659    3.6135022 
   24580    341.98311   -6955.6831   -6917.5343   -296.88072    20401.773    3.6214107 
   24590    350.78724   -6956.7995   -6917.6687   -719.64307    20400.904    3.6283537 
   24600    348.47787   -6956.7064   -6917.8331   -668.95905    20397.957    3.6354071 
   24610    343.07653   -6956.2926   -6918.0219   -310.27784    20393.043    3.6423451 
   24620    338.23355   -6955.9531   -6918.2226    46.745305    20387.192    3.6483154 
   24630    326.80528   -6954.8718   -6918.4162    256.96091    20381.497    3.6532548 
   24640    324.49159   -6954.7848   -6918.5873    -21.35328    20376.499     3.657117 
   24650    326.48083   -6955.1501   -6918.7306   -476.46043    20371.424    3.6606034 
   24660    326.81326   -6955.3048   -6918.8482   -845.79953    20364.945    3.6641945 
   24670    330.94865   -6955.8619   -6918.9441   -1027.3497    20355.952    3.6674049 
   24680    334.69343   -6956.3608   -6919.0253   -905.07582    20343.912    3.6690979 
   24690     335.4781   -6956.5197   -6919.0966   -534.83214    20329.241    3.6674598 
   24700    341.56366    -6957.269    -6919.167    -238.3508    20312.995    3.6614811 
   24710    340.25278   -6957.2007   -6919.2449    77.179506    20296.131     3.652855 
   24720    332.88546   -6956.4606   -6919.3267    345.45209     20279.59    3.6441082 
   24730    337.26784   -6957.0266   -6919.4038    278.60365    20264.116    3.6366366 
   24740    348.79854   -6958.3975   -6919.4885   -32.388872    20249.542    3.6310733 
   24750    347.48197   -6958.3641    -6919.602   -139.36284    20235.034    3.6280085 
   24760    336.73225   -6957.3037   -6919.7407   -21.010768    20220.276     3.626202 
   24770    336.92252   -6957.4782    -6919.894    130.59726    20205.578    3.6229907 
   24780    336.21847   -6957.5665   -6920.0609     683.7327    20191.502    3.6175416 
   24790    330.61331   -6957.1183   -6920.2379     1488.827    20179.688    3.6098288 
   24800    334.42975   -6957.7378   -6920.4317    1722.4507    20172.309     3.599944 
   24810    338.10887   -6958.3728   -6920.6562    1581.8215    20170.114    3.5893495 
   24820    333.85913   -6958.1583   -6920.9158    1344.3158    20172.684    3.5793785 
   24830    334.20327   -6958.4933   -6921.2124    1030.3589    20179.249    3.5696722 
   24840    333.89849   -6958.7959    -6921.549    808.52041    20188.872    3.5609277 
   24850    326.94082   -6958.3797    -6921.909    761.31702    20200.899    3.5546831 
   24860    326.80573   -6958.7316   -6922.2759    487.71672    20215.031    3.5516588 
   24870    319.58763    -6958.274   -6922.6235     222.1555    20230.513    3.5520679 
   24880    314.27848   -6957.9756   -6922.9173   -152.98419    20246.453    3.5541472 
   24890    315.14773   -6958.2933   -6923.1381   -729.38244     20261.65    3.5562022 
   24900    310.01747   -6957.8644   -6923.2814    -1107.107    20274.487    3.5587477 
   24910    308.51641   -6957.7721   -6923.3567   -1070.5204    20283.901     3.561905 
   24920    312.33093   -6958.2149   -6923.3739   -674.02168    20290.026    3.5649534 
   24930    314.87455   -6958.4695   -6923.3448   -158.51031    20294.068    3.5673665 
   24940    317.13238   -6958.6541   -6923.2775   -6.9255589    20297.486    3.5688714 
   24950    319.88072    -6958.862   -6923.1788   -204.95489     20300.76    3.5696417 
   24960    320.98052   -6958.8644   -6923.0585   -408.25084    20303.379    3.5697756 
   24970    319.43037   -6958.5574   -6922.9245   -481.99424    20304.749    3.5687145 
   24980    316.07673    -6958.037   -6922.7782   -346.64418    20304.686    3.5660592 
   24990    314.54629   -6957.7031    -6922.615   -320.56112    20303.529    3.5627861 
   25000    322.29696   -6958.3868    -6922.434   -456.20269    20301.349    3.5611849 
Loop time of 9476.23 on 16 procs for 20000 steps with 864 atoms

Performance: 0.182 ns/day, 131.614 hours/ns, 2.111 timesteps/s
96.8% CPU use with 16 MPI tasks x 1 OpenMP threads

MPI task timing breakdown:
Section |  min time  |  avg time  |  max time  |%varavg| %total
---------------------------------------------------------------
Pair    | 4496.8     | 6620.3     | 9466.9     |1858.5 | 69.86
Bond    | 0.0061667  | 0.012758   | 0.025453   |   5.2 |  0.00
Neigh   | 0.30427    | 0.38269    | 0.47112    |   8.9 |  0.00
Comm    | 4.0285     | 2008.1     | 4826.3     |3346.1 | 21.19
Output  | 1.8791     | 1.9105     | 2.377      |   8.7 |  0.02
Modify  | 2.4995     | 845.04     | 1832.2     |2415.1 |  8.92
Other   |            | 0.453      |            |       |  0.00

Nlocal:        54.0000 ave          71 max          37 min
Histogram: 2 1 2 2 0 3 1 2 0 3
Nghost:        502.438 ave         595 max         443 min
Histogram: 4 3 1 0 0 3 3 1 0 1
Neighs:         0.00000 ave           0 max           0 min
Histogram: 16 0 0 0 0 0 0 0 0 0
FullNghs:      2389.12 ave        3862 max        1277 min
Histogram: 3 2 2 0 2 2 2 0 1 2

Total # of neighbors = 38226
Ave neighs/atom = 44.243056
Ave special neighs/atom = 0.0000000
Neighbor list builds = 2000
Dangerous builds = 2000
unfix   3
                
Total wall time: 3:16:40
