LAMMPS (29 Sep 2021 - Update 3)
OMP_NUM_THREADS environment is not set. Defaulting to 1 thread. (src/comm.cpp:98)
  using 1 OpenMP thread(s) per MPI task
units	metal
atom_style	full

read_data	mixed.data
Reading data file ...
  orthogonal box = (0.0000000 0.0000000 0.0000000) to (15.969932 15.719106 81.083077)
  2 by 1 by 8 MPI processor grid
  reading atoms ...
  864 atoms
Finding 1-2 1-3 1-4 neighbors ...
  special bond factors lj:    0        0        0       
  special bond factors coul:  0        0        0       
     0 = max # of 1-2 neighbors
     0 = max # of 1-3 neighbors
     0 = max # of 1-4 neighbors
     1 = max # of special neighbors
  special bonds CPU = 0.001 seconds
  read_data CPU = 0.016 seconds

pair_style	quip
pair_coeff	* * /ocean/projects/cts180021p/wuziqi/clease/mint-PD/PhaseDiagram-Clease/Liquid/GAP_potential/gap_LiKCl.xml "Potential xml_label=GAP_2021_9_27_0_1_17_37_618" 17 19 3

neighbor	0.3 bin
neigh_modify	delay 10

timestep	0.001
compute	msd all msd
thermo_style	custom step temp pe etotal press vol c_msd[4]
thermo	10
dump	1 all custom 10 xyz-mix.dump type id x y z
dump	2 all custom 10 force-mix.dump type id fx fy fz

fix     1 all nve
run     2000
Neighbor list info ...
  update every 1 steps, delay 10 steps, check yes
  max neighbors/atom: 2000, page size: 100000
  master list distance cutoff = 6.22
  ghost atom cutoff = 6.22
  binsize = 3.11, bins = 6 6 27
  1 neighbor lists, perpetual/occasional/extra = 1 0 0
  (1) pair quip, perpetual
      attributes: full, newton on
      pair build: full/bin
      stencil: full/bin/3d
      bin: standard
Per MPI rank memory allocation (min/avg/max) = 8.888 | 8.903 | 8.913 Mbytes
Step Temp PotEng TotEng Press Volume c_msd[4] 
       0            0   -6930.8241   -6930.8241   -4495.9065    20354.533            0 
      10    65.904237   -6938.1841   -6930.8324   -5379.5912    20354.533 0.0005000384 
      20    168.73131   -6949.6632    -6930.841   -6364.5261    20354.533 0.0061479459 
      30    200.57733   -6953.2127    -6930.838   -5696.6671    20354.533  0.020662009 
      40    199.55606   -6953.0935   -6930.8327   -4580.1506    20354.533   0.03833664 
      50    226.88579   -6956.1474   -6930.8379   -4419.7801    20354.533  0.051806208 
      60    238.47957   -6957.4392   -6930.8365   -4645.7272    20354.533  0.061424452 
      70    236.06355   -6957.1692   -6930.8359    -4807.043    20354.533  0.069853138 
      80    232.99362   -6956.8259   -6930.8351    -5036.908    20354.533  0.079308594 
      90    234.23747   -6956.9654   -6930.8358   -5260.6038    20354.533  0.090830495 
     100    232.00556   -6956.7159   -6930.8353   -5208.0306    20354.533   0.10432197 
     110    232.79067   -6956.8033   -6930.8352   -5031.3164    20354.533   0.11840709 
     120    238.30149    -6957.419   -6930.8361   -4942.2097    20354.533   0.13201584 
     130    238.74514   -6957.4687   -6930.8363   -4988.8033    20354.533   0.14538478 
     140    232.54984   -6956.7771   -6930.8358   -4942.4536    20354.533   0.15867927 
     150    225.40044   -6955.9792   -6930.8355   -4787.8719    20354.533   0.17110203 
     160    224.38726   -6955.8659   -6930.8352   -4620.0724    20354.533    0.1817825 
     170    231.86358   -6956.7009   -6930.8362   -4442.3359    20354.533   0.19072597 
     180    237.58036   -6957.3391   -6930.8366   -4192.2572    20354.533   0.19889867 
     190    235.69365   -6957.1279    -6930.836   -3927.7806    20354.533   0.20710191 
     200    234.44619   -6956.9885   -6930.8356   -3773.8119    20354.533   0.21513007 
     210    236.73114   -6957.2437    -6930.836   -3777.5502    20354.533   0.22305549 
     220    238.14425   -6957.4012   -6930.8359   -3899.9101    20354.533    0.2315521 
     230     238.4388   -6957.4341   -6930.8359   -4006.5782    20354.533   0.24098695 
     240    239.23886    -6957.523   -6930.8356   -3984.7528    20354.533   0.25141959 
     250     242.0724   -6957.8401   -6930.8366   -3793.3442    20354.533   0.26265129 
     260       239.05   -6957.5024    -6930.836   -3540.3897    20354.533   0.27417391 
     270    235.84511    -6957.145   -6930.8361   -3272.6541    20354.533   0.28493922 
     280    231.62838   -6956.6748   -6930.8363   -2948.2435    20354.533   0.29437431 
     290    226.51317   -6956.1028    -6930.835   -2633.8875    20354.533   0.30220439 
     300    232.88912   -6956.8151    -6930.836   -2478.1682    20354.533   0.30835486 
     310    239.65399   -6957.5709   -6930.8371   -2317.7128    20354.533   0.31386348 
     320    236.98534   -6957.2718   -6930.8357   -2020.1819    20354.533   0.31985126 
     330    235.73864   -6957.1329   -6930.8359   -1957.4113    20354.533   0.32664959 
     340    236.09186   -6957.1723   -6930.8359   -2003.6376    20354.533   0.33435107 
     350    237.19352   -6957.2955   -6930.8363   -2145.8328    20354.533   0.34289663 
     360     235.6501   -6957.1226   -6930.8355   -2186.0282    20354.533   0.35153924 
     370      237.245   -6957.3009   -6930.8359   -2246.4379    20354.533   0.35886165 
     380     239.0727   -6957.5047   -6930.8358   -2396.5837    20354.533   0.36451066 
     390    241.64207   -6957.7913   -6930.8358   -2701.0958    20354.533   0.36907283 
     400    244.68963   -6958.1321   -6930.8366    -3058.184    20354.533   0.37340775 
     410    240.84575   -6957.7024   -6930.8357   -3233.9135    20354.533   0.37836011 
     420    237.91038    -6957.375   -6930.8357   -3296.1667    20354.533    0.3837999 
     430    237.53548   -6957.3335    -6930.836     -3297.92    20354.533   0.38923076 
     440    236.65311   -6957.2351   -6930.8361   -3132.9159    20354.533   0.39408345 
     450    236.54722   -6957.2227   -6930.8355   -2838.3736    20354.533   0.39819744 
     460    240.22636   -6957.6339   -6930.8363   -2750.9298    20354.533   0.40204023 
     470    240.52465   -6957.6669    -6930.836   -2995.4918    20354.533   0.40599969 
     480    237.66852   -6957.3482   -6930.8359   -3342.9489    20354.533   0.40967234 
     490     233.8587   -6956.9231   -6930.8358   -3484.3142    20354.533   0.41268728 
     500    232.08796   -6956.7258   -6930.8361   -3205.4816    20354.533   0.41521326 
     510    230.70203   -6956.5715   -6930.8364   -2716.5526    20354.533   0.41731564 
     520    228.05602   -6956.2759   -6930.8359   -2363.5724    20354.533   0.41870774 
     530    227.97164    -6956.267   -6930.8365   -2215.6832    20354.533   0.41939371 
     540    224.82248   -6955.9152   -6930.8359   -2142.5726    20354.533   0.41965215 
     550    224.12424   -6955.8368   -6930.8354   -2230.4398    20354.533   0.41896539 
     560    230.14975   -6956.5094   -6930.8358   -2549.6413    20354.533   0.41694428 
     570    236.18881   -6957.1833   -6930.8361   -2919.3179    20354.533   0.41431605 
     580    239.11248   -6957.5092   -6930.8358   -3311.7801    20354.533   0.41218239 
     590    240.41038    -6957.654   -6930.8359   -3417.9605    20354.533   0.41128732 
     600     241.9108   -6957.8213   -6930.8358   -3319.9933    20354.533   0.41181297 
     610    244.71998   -6958.1355   -6930.8366   -3218.6172    20354.533   0.41378595 
     620     241.0794   -6957.7291   -6930.8363   -3147.9995    20354.533   0.41727735 
     630    235.50013   -6957.1059   -6930.8355   -3135.0665    20354.533   0.42154918 
     640    235.11112   -6957.0634   -6930.8364   -3257.6948    20354.533   0.42544554 
     650    231.17765   -6956.6238   -6930.8356   -3363.2824    20354.533   0.42831027 
     660    230.96587      -6956.6   -6930.8354    -3278.616    20354.533   0.42962018 
     670    236.71051   -6957.2418   -6930.8364   -3057.6575    20354.533   0.43008462 
     680    237.89077   -6957.3735   -6930.8365   -2729.6334    20354.533   0.43147958 
     690    233.77068   -6956.9134    -6930.836   -2455.8007    20354.533   0.43467882 
     700    232.73214   -6956.7972   -6930.8356   -2458.1317    20354.533   0.43896836 
     710     238.6713   -6957.4612    -6930.837     -2772.14    20354.533   0.44306523 
     720    238.40713   -6957.4307    -6930.836    -2807.083    20354.533   0.44626276 
     730     240.4682   -6957.6606    -6930.836   -2649.5036    20354.533   0.44805059 
     740    245.36669   -6958.2082   -6930.8372   -2598.8991    20354.533   0.44927166 
     750    241.62154   -6957.7892    -6930.836   -2531.0184    20354.533   0.45180545 
     760    240.83361   -6957.7015   -6930.8361   -2663.8574    20354.533   0.45609454 
     770    242.81641   -6957.9232   -6930.8366   -2904.7405    20354.533   0.46149917 
     780    240.55873   -6957.6716   -6930.8369   -3011.4883    20354.533   0.46731331 
     790    234.48344    -6956.992    -6930.835   -2984.9723    20354.533   0.47270083 
     800    241.36903   -6957.7616   -6930.8365   -3043.6074    20354.533   0.47702973 
     810    248.02611   -6958.5044   -6930.8367   -3212.7271    20354.533   0.48113406 
     820    247.07524   -6958.3983   -6930.8367   -3298.0857    20354.533   0.48604281 
     830    241.62282   -6957.7892   -6930.8358   -3451.0521    20354.533   0.49200069 
     840    241.09937   -6957.7309   -6930.8359   -3767.5583    20354.533    0.4980224 
     850    243.86884   -6958.0407   -6930.8367   -3969.0277    20354.533   0.50315689 
     860    240.67295   -6957.6839   -6930.8364   -3878.9651    20354.533   0.50749313 
     870    234.88256   -6957.0377   -6930.8362   -3705.4216    20354.533   0.51123394 
     880     230.9712   -6956.6008   -6930.8356   -3732.8653    20354.533   0.51418617 
     890    234.71187   -6957.0191   -6930.8366   -3903.3458    20354.533   0.51649556 
     900    236.69755   -6957.2408   -6930.8368   -4096.5729    20354.533   0.51925856 
     910    234.14135   -6956.9543   -6930.8355   -4214.9524    20354.533   0.52270274 
     920     239.2214   -6957.5215    -6930.836    -4371.806    20354.533    0.5260843 
     930    246.23434   -6958.3046   -6930.8368   -4388.3174    20354.533   0.52947161 
     940    244.93011   -6958.1585   -6930.8361    -4140.633    20354.533    0.5331014 
     950    244.54566   -6958.1146   -6930.8351   -3874.4856    20354.533   0.53608506 
     960     253.5944   -6959.1267   -6930.8378   -3771.8165    20354.533   0.53803089 
     970     248.3829   -6958.5442   -6930.8367   -3524.3442    20354.533   0.53986141 
     980    238.35135   -6957.4243   -6930.8358   -3260.4338    20354.533   0.54101785 
     990    236.50322   -6957.2181   -6930.8358   -3175.8957    20354.533   0.54134372 
    1000    241.19481   -6957.7423   -6930.8367   -3304.4267    20354.533   0.54225539 
    1010    241.95562   -6957.8272   -6930.8367   -3391.2596    20354.533   0.54502288 
    1020    240.16869   -6957.6269   -6930.8357   -3447.0496    20354.533   0.54930268 
    1030    245.53617   -6958.2267   -6930.8368   -3456.4918    20354.533   0.55419445 
    1040    247.77076    -6958.476   -6930.8368   -3298.5887    20354.533   0.55950896 
    1050     244.2442   -6958.0816   -6930.8358   -3136.4369    20354.533   0.56417367 
    1060    244.98518   -6958.1647   -6930.8363    -3248.508    20354.533   0.56688242 
    1070    245.91228   -6958.2687   -6930.8368   -3519.1406    20354.533   0.56812185 
    1080    243.86214    -6958.039   -6930.8358   -3692.2455    20354.533   0.56934968 
    1090    246.84293   -6958.3726   -6930.8369   -3906.5524    20354.533   0.57178329 
    1100      244.881   -6958.1533   -6930.8365   -4089.2355    20354.533   0.57651628 
    1110    240.43499   -6957.6569    -6930.836   -4077.0823    20354.533    0.5832495 
    1120    237.92872   -6957.3775   -6930.8362   -4003.4461    20354.533   0.59023617 
    1130    236.51172   -6957.2189   -6930.8357   -4042.4172    20354.533   0.59550452 
    1140    238.96444   -6957.4936   -6930.8368   -4040.0227    20354.533   0.59831056 
    1150    235.78148   -6957.1379   -6930.8361   -3879.2914    20354.533   0.59921996 
    1160    234.20341   -6956.9615   -6930.8358   -3837.8249    20354.533    0.5985221 
    1170    240.41902   -6957.6544   -6930.8353    -3935.141    20354.533   0.59722217 
    1180    255.54411   -6959.3435   -6930.8372     -4092.55    20354.533   0.59743217 
    1190    258.99242   -6959.7285   -6930.8375   -4046.2257    20354.533    0.6011544 
    1200    248.88394   -6958.5986   -6930.8352   -3714.2841    20354.533   0.60762836 
    1210    248.47025   -6958.5542    -6930.837   -3470.6197    20354.533   0.61448368 
    1220    244.95446   -6958.1613   -6930.8363   -3177.7538    20354.533   0.62050251 
    1230     241.8534   -6957.8153   -6930.8362   -3046.6572    20354.533   0.62473384 
    1240    239.93171   -6957.6017    -6930.837   -2953.8402    20354.533   0.62763822 
    1250    233.26136   -6956.8559   -6930.8352   -2777.3686    20354.533   0.63038166 
    1260    237.93988   -6957.3787   -6930.8361   -2775.1391    20354.533    0.6330371 
    1270    246.35675   -6958.3182   -6930.8368   -2888.4422    20354.533   0.63643977 
    1280    248.45813   -6958.5525   -6930.8366   -2920.0425    20354.533   0.64183599 
    1290    245.47675   -6958.2198   -6930.8365   -2685.1116    20354.533   0.64908358 
    1300    241.63357   -6957.7906    -6930.836   -2354.7632    20354.533   0.65669456 
    1310    242.43427   -6957.8804   -6930.8365   -2080.8148    20354.533   0.66291632 
    1320    245.28186   -6958.1979   -6930.8364   -1915.3295    20354.533    0.6669735 
    1330    248.60459   -6958.5691   -6930.8369   -2012.6907    20354.533   0.66938419 
    1340    247.35187   -6958.4291   -6930.8367   -2148.5782    20354.533   0.67162517 
    1350    244.12194   -6958.0683   -6930.8361   -1975.6824    20354.533   0.67460298 
    1360    246.17117   -6958.2975   -6930.8367   -1695.7314    20354.533   0.67795806 
    1370    247.81913   -6958.4815   -6930.8369   -1406.6961    20354.533   0.68155459 
    1380    246.54204   -6958.3387   -6930.8366   -1365.9532    20354.533   0.68550067 
    1390    245.37096   -6958.2083   -6930.8368   -1609.7263    20354.533   0.68946972 
    1400    243.36629   -6957.9841   -6930.8362   -2040.6718    20354.533   0.69316197 
    1410    243.94371   -6958.0489   -6930.8367    -2492.182    20354.533   0.69632692 
    1420    241.91407   -6957.8222   -6930.8364   -2641.5513    20354.533   0.69908731 
    1430    240.29252    -6957.641   -6930.8361   -2738.6597    20354.533   0.70169952 
    1440    243.00906   -6957.9446   -6930.8366   -2920.7186    20354.533   0.70454594 
    1450    244.25454   -6958.0838   -6930.8369   -3048.4377    20354.533   0.70795341 
    1460    242.09952    -6957.843   -6930.8364   -2976.5792    20354.533   0.71130224 
    1470    243.45842   -6957.9943   -6930.8362   -3081.8274    20354.533    0.7132231 
    1480    250.70065   -6958.8033   -6930.8373   -3338.8349    20354.533   0.71370178 
    1490    252.18388   -6958.9685    -6930.837   -3376.1382    20354.533    0.7144344 
    1500    251.43885   -6958.8853   -6930.8369   -3315.8008    20354.533   0.71637247 
    1510    251.24938    -6958.864   -6930.8368   -3301.7557    20354.533   0.71942223 
    1520    249.70733   -6958.6922    -6930.837   -3282.0336    20354.533   0.72323431 
    1530    244.44696   -6958.1054    -6930.837   -3302.2244    20354.533   0.72763008 
    1540    236.75683   -6957.2464   -6930.8358   -3274.9713    20354.533    0.7323608 
    1550    237.57971   -6957.3389   -6930.8365   -3428.4116    20354.533   0.73683196 
    1560    241.15015   -6957.7371   -6930.8364   -3593.4236    20354.533   0.74115804 
    1570    245.97302   -6958.2754   -6930.8368   -3733.6516    20354.533   0.74547586 
    1580    248.38573   -6958.5448    -6930.837   -3697.1233    20354.533   0.74963233 
    1590    246.86432   -6958.3746   -6930.8366   -3466.8015    20354.533   0.75351214 
    1600     247.7118   -6958.4687    -6930.836   -3388.9239    20354.533   0.75677589 
    1610    253.82537   -6959.1519   -6930.8373    -3531.034    20354.533   0.75955216 
    1620    251.92871   -6958.9401   -6930.8371   -3648.0728    20354.533   0.76294914 
    1630    244.66821   -6958.1291    -6930.836   -3657.5504    20354.533   0.76703359 
    1640    244.28177   -6958.0866   -6930.8366   -3671.0399    20354.533   0.77099433 
    1650    244.83575   -6958.1483   -6930.8365   -3788.3144    20354.533   0.77508445 
    1660    246.40424   -6958.3232   -6930.8364    -3813.853    20354.533   0.77989624 
    1670     250.2724    -6958.755   -6930.8367   -3565.9239    20354.533   0.78529205 
    1680    252.16532   -6958.9666   -6930.8372   -3320.4462    20354.533   0.79034429 
    1690    248.06278   -6958.5083   -6930.8366    -3241.467    20354.533   0.79410211 
    1700    246.18953   -6958.2989   -6930.8361   -3435.3007    20354.533   0.79613512 
    1710    251.37963   -6958.8788   -6930.8371   -3765.1983    20354.533   0.79697816 
    1720    252.49637   -6959.0036   -6930.8373   -4015.6546    20354.533   0.79809077 
    1730    246.19105   -6958.2991   -6930.8361   -4012.8085    20354.533   0.80001418 
    1740    244.72061   -6958.1349   -6930.8359   -3836.2711    20354.533   0.80174398 
    1750    250.77886   -6958.8116   -6930.8368   -3664.5304    20354.533   0.80300604 
    1760    253.23106   -6959.0851   -6930.8368   -3574.9487    20354.533   0.80474848 
    1770     250.9182   -6958.8268   -6930.8365   -3643.0638    20354.533   0.80759401 
    1780    248.19059    -6958.522   -6930.8359    -3925.933    20354.533   0.81194222 
    1790    251.50586   -6958.8923   -6930.8365   -4358.7518    20354.533   0.81788965 
    1800    254.74644   -6959.2547   -6930.8373   -4555.0094    20354.533   0.82537267 
    1810    250.83969   -6958.8178   -6930.8362   -4276.5786    20354.533   0.83331392 
    1820     251.8855   -6958.9345   -6930.8362   -4012.9598    20354.533   0.83972246 
    1830      255.594   -6959.3496   -6930.8377   -3901.3718    20354.533   0.84445553 
    1840    246.70995   -6958.3569   -6930.8361   -3626.6691    20354.533   0.84851616 
    1850    241.86654   -6957.8157   -6930.8351   -3456.7016    20354.533   0.85180041 
    1860    250.43531   -6958.7737   -6930.8372    -3514.864    20354.533    0.8548436 
    1870    251.67809   -6958.9117   -6930.8366    -3317.435    20354.533   0.85904271 
    1880    249.74232   -6958.6953   -6930.8361   -2814.4162    20354.533   0.86408884 
    1890    251.03758   -6958.8407    -6930.837   -2598.2462    20354.533   0.86903478 
    1900    247.47063   -6958.4421   -6930.8364   -2762.2368    20354.533   0.87371783 
    1910    246.41436   -6958.3238   -6930.8359   -3170.3298    20354.533   0.87809892 
    1920    252.32808   -6958.9847   -6930.8371   -3481.0709    20354.533    0.8826292 
    1930    251.70282   -6958.9148    -6930.837   -3522.0143    20354.533   0.88826081 
    1940    246.41342   -6958.3234   -6930.8356   -3409.4835    20354.533   0.89502972 
    1950     251.5574   -6958.8983   -6930.8367   -3383.3627    20354.533   0.90192896 
    1960    256.70331    -6959.473   -6930.8374   -3284.7665    20354.533   0.90797257 
    1970    251.99325   -6958.9465   -6930.8363   -3170.8424    20354.533   0.91214044 
    1980    249.36931   -6958.6536    -6930.836    -3268.664    20354.533   0.91382089 
    1990    253.19383   -6959.0808   -6930.8367   -3484.4565    20354.533   0.91429439 
    2000    255.75062   -6959.3664    -6930.837   -3645.8324    20354.533   0.91593526 
Loop time of 1852.14 on 16 procs for 2000 steps with 864 atoms

Performance: 0.093 ns/day, 257.242 hours/ns, 1.080 timesteps/s
97.4% CPU use with 16 MPI tasks x 1 OpenMP threads

MPI task timing breakdown:
Section |  min time  |  avg time  |  max time  |%varavg| %total
---------------------------------------------------------------
Pair    | 810.87     | 1504.6     | 1829.6     | 669.5 | 81.24
Bond    | 0.00032473 | 0.00085713 | 0.0018888  |   0.0 |  0.00
Neigh   | 0.018146   | 0.027745   | 0.035838   |   3.4 |  0.00
Comm    | 21.099     | 325.53     | 987.22     |1379.7 | 17.58
Output  | 0.38622    | 11.481     | 27.978     | 310.0 |  0.62
Modify  | 0.010789   | 0.013157   | 0.016136   |   1.2 |  0.00
Other   |            | 10.47      |            |       |  0.57

Nlocal:        54.0000 ave          71 max          39 min
Histogram: 3 2 1 1 0 4 1 0 3 1
Nghost:        497.125 ave         591 max         387 min
Histogram: 1 2 1 1 1 3 2 1 2 2
Neighs:         0.00000 ave           0 max           0 min
Histogram: 16 0 0 0 0 0 0 0 0 0
FullNghs:      2382.00 ave        3956 max        1259 min
Histogram: 3 2 2 0 2 3 1 1 1 1

Total # of neighbors = 38112
Ave neighs/atom = 44.111111
Ave special neighs/atom = 0.0000000
Neighbor list builds = 199
Dangerous builds = 198
unfix   1

velocity    all create 525.0 1312343 dist gaussian
fix     2 all npt temp 525.0 525.0 $(100.0*dt) aniso 0.0 1.01325 $(1000.0*dt)
fix     2 all npt temp 525.0 525.0 0.10000000000000000555 aniso 0.0 1.01325 $(1000.0*dt)
fix     2 all npt temp 525.0 525.0 0.10000000000000000555 aniso 0.0 1.01325 1
run     3000
Per MPI rank memory allocation (min/avg/max) = 8.897 | 8.905 | 8.914 Mbytes
Step Temp PotEng TotEng Press Volume c_msd[4] 
    2000          525   -6959.3664   -6900.8019   -2069.7167    20354.533   0.91593526 
    2010    480.01017   -6954.3357   -6900.7899   -993.93024    20352.679   0.92314106 
    2020    407.29932   -6946.1259    -6900.691    720.48048    20348.961   0.93553244 
    2030    383.25803   -6943.1741   -6900.4211    1431.7092    20346.482   0.94557743 
    2040    380.95875   -6942.4314   -6899.9349    1489.5254    20346.746   0.95172823 
    2050     372.7924   -6940.8654   -6899.2798    1329.2075    20349.932   0.95609159 
    2060    369.72466    -6939.814   -6898.5706    1114.1896     20355.76   0.96040483 
    2070    391.74655   -6941.5977   -6897.8978    903.33297    20363.812   0.96603516 
    2080    398.34281   -6941.7206   -6897.2849    1081.6175    20373.751   0.97461695 
    2090    386.72383   -6939.8581   -6896.7185    1286.3301    20385.872   0.98488734 
    2100    396.52866   -6940.3609   -6896.1276    984.96112    20400.478   0.99382716 
    2110     402.5191   -6940.3596    -6895.458    537.82125    20417.069    1.0013915 
    2120    403.95762   -6939.7899   -6894.7278   -86.457256     20434.74    1.0084943 
    2130    407.03732   -6939.3542   -6893.9486   -809.95293    20452.253    1.0156746 
    2140    402.28036   -6938.0167   -6893.1417   -1211.3859    20468.221    1.0231692 
    2150     397.0337   -6936.6157    -6892.326   -1256.9842    20481.847    1.0304279 
    2160    405.19321     -6936.69   -6891.4901     -1252.99    20492.973     1.037221 
    2170    408.30735   -6936.1757   -6890.6284   -964.15566    20501.647    1.0437304 
    2180    417.57482   -6936.3439   -6889.7628   -536.99203    20508.408    1.0492009 
    2190     426.7048   -6936.4868   -6888.8873   -349.09912     20514.05    1.0548258 
    2200    427.85627    -6935.746    -6888.018   -540.27567    20518.933    1.0619894 
    2210    435.01217   -6935.6752   -6887.1489    -1274.562    20522.625    1.0702803 
    2220    436.37615    -6934.942   -6886.2636   -1879.9849     20523.79    1.0796435 
    2230    442.74168   -6934.7599   -6885.3714   -2082.7795    20521.239    1.0893129 
    2240    447.94862   -6934.4387   -6884.4693   -1699.1373    20514.621    1.0984836 
    2250    441.08654   -6932.7754   -6883.5715   -847.36335    20504.722    1.1068297 
    2260    443.28892   -6932.1245    -6882.675   -302.45567    20493.127    1.1139193 
    2270    446.43759   -6931.5676   -6881.7668    156.73939    20481.009    1.1201076 
    2280    450.98987   -6931.1654   -6880.8568    389.73281    20469.265    1.1263623 
    2290    462.72018   -6931.5604   -6879.9433   -41.667564    20458.273    1.1343318 
    2300    463.56148   -6930.7451   -6879.0342    -335.5501    20447.331    1.1455711 
    2310     468.4498   -6930.3907   -6878.1344   -525.18351    20435.845    1.1588289 
    2320    482.03446   -6930.9926    -6877.221   -689.82047    20423.449     1.171411 
    2330    495.61734    -6931.591   -6876.3041   -322.27768    20409.936    1.1820455 
    2340    490.49691   -6930.1259   -6875.4102    395.57115     20396.02    1.1920616 
    2350    485.62502    -6928.728   -6874.5558    716.14072    20382.991    1.2023477 
    2360    496.28174   -6929.0766   -6873.7156    900.07156    20371.517     1.214039 
    2370    500.62039   -6928.7274   -6872.8824    1641.4562    20362.075    1.2294519 
    2380    498.35777   -6927.6648   -6872.0722    2472.1764    20356.011    1.2483897 
    2390    502.39237   -6927.3291   -6871.2865    2753.8827    20354.819    1.2679767 
    2400    508.24231   -6927.2245   -6870.5293    2365.3434    20358.974    1.2864363 
    2410    507.65363   -6926.4348   -6869.8053    1600.3004    20367.675    1.3043948 
    2420    513.12475   -6926.3477   -6869.1078    1158.1205    20379.502    1.3231661 
    2430    517.50832   -6926.1551   -6868.4263     1153.061    20393.568    1.3441017 
    2440    514.80797   -6925.1913   -6867.7637    1202.9519    20409.758    1.3658035 
    2450    508.36025   -6923.8257   -6867.1173    1128.1542    20428.112    1.3836222 
    2460    506.79561   -6923.0136   -6866.4798    798.83537    20448.441    1.3942746 
    2470    515.00117   -6923.2858   -6865.8366    370.66074    20470.094    1.3991652 
    2480     517.7552   -6922.9507   -6865.1943    129.29734    20492.244      1.40325 
    2490    516.80786    -6922.217   -6864.5663    -171.4324     20514.34     1.409269 
    2500    522.53854   -6922.2308   -6863.9409   -683.10787    20535.758    1.4163658 
    2510    531.12291   -6922.5671   -6863.3196   -1219.3155    20555.506    1.4245077 
    2520    533.69468   -6922.2625   -6862.7281   -1428.4109    20572.587    1.4337502 
    2530    526.49012   -6920.9137   -6862.1829   -1401.5052     20586.61    1.4417348 
    2540    527.49992   -6920.5171   -6861.6737    -1658.037    20597.561     1.446313 
    2550    536.42205   -6921.0236   -6861.1849   -2074.6589    20604.993    1.4494504 
    2560    544.94311   -6921.5203   -6860.7311   -2288.7045    20608.159    1.4551556 
    2570    542.59298   -6920.8567   -6860.3296   -1738.1785     20606.81    1.4652994 
    2580    539.84166   -6920.2004   -6859.9803    -1005.799    20602.009    1.4786885 
    2590    540.17753   -6919.9271   -6859.6695   -341.56018    20595.239    1.4928479 
    2600    544.82997   -6920.1704   -6859.3938    333.91339    20587.889     1.505119 
    2610    547.35139    -6920.221   -6859.1632    799.85891    20581.277    1.5141859 
    2620    538.54534   -6919.0541   -6858.9785    1234.6104    20576.394    1.5197697 
    2630    542.22764   -6919.3212   -6858.8349    1351.4267    20574.033    1.5219246 
    2640    546.51695   -6919.6944   -6858.7296    1171.4407    20574.385    1.5235979 
    2650    550.16031   -6920.0478   -6858.6766    1030.0454    20577.119    1.5283569 
    2660    548.08889   -6919.8224   -6858.6823    1176.9215    20581.959    1.5367577 
    2670    541.87916    -6919.191   -6858.7436    1357.5027    20589.117    1.5454281 
    2680    541.20881   -6919.2231   -6858.8504     1410.572    20598.917    1.5521375 
    2690    542.98652   -6919.5716   -6859.0006    1406.8991    20611.449    1.5569592 
    2700    533.22404   -6918.6725   -6859.1906    1450.7291    20626.706    1.5603816 
    2710    522.37691   -6917.6697   -6859.3977    1225.3418    20644.702    1.5623853 
    2720    526.67514    -6918.356   -6859.6046    622.99882    20664.925    1.5630483 
    2730    525.91676   -6918.4721   -6859.8053   -189.34764    20686.161    1.5633561 
    2740    529.91767   -6919.1123   -6859.9992   -1134.3135    20706.756     1.563503 
    2750    543.22512   -6920.7992   -6860.2016   -1660.0844    20724.879    1.5646356 
    2760    542.82204   -6920.9918   -6860.4392   -1528.6093    20739.513    1.5693085 
    2770    540.36494   -6920.9974   -6860.7189   -1440.7945    20750.808    1.5786242 
    2780    542.77736   -6921.5809   -6861.0332   -1563.3036    20758.984    1.5922918 
    2790     544.4966   -6922.1306   -6861.3912   -1754.0611    20763.862    1.6089018 
    2800    531.44253   -6921.0643   -6861.7811   -1658.4367     20765.15    1.6260873 
    2810    528.92297   -6921.1797   -6862.1775   -1328.6019    20763.059     1.638484 
    2820    538.86271   -6922.6982   -6862.5873   -957.63584    20758.291    1.6449562 
    2830    541.03065   -6923.3793   -6863.0265   -819.56321    20751.591    1.6503426 
    2840    531.10953   -6922.7364   -6863.4903   -718.36443    20743.285    1.6562891 
    2850    508.44531   -6920.6541   -6863.9363   -104.22873    20733.721    1.6635891 
    2860    498.92463   -6919.9721   -6864.3163    187.64383    20724.001    1.6732473 
    2870    514.55934   -6922.0441   -6864.6443   -154.97851    20714.671    1.6852813 
    2880    515.55442   -6922.4523   -6864.9414   -340.31728    20705.198     1.699753 
    2890    509.64023   -6922.0662   -6865.2151   -506.85735     20695.16    1.7159116 
    2900    509.77949   -6922.3244   -6865.4577    -836.3066    20684.184    1.7320086 
    2910    515.23097   -6923.1464   -6865.6716   -1046.2038    20671.675    1.7451358 
    2920    518.79929   -6923.7407   -6865.8678   -1217.9875    20657.186    1.7540648 
    2930    514.71738    -6923.465   -6866.0475   -1077.5776    20640.443    1.7615181 
    2940    503.11286   -6922.3203   -6866.1973   -494.76436    20621.781     1.770001 
    2950     491.3824   -6921.1087   -6866.2942   -86.821716      20602.3    1.7781912 
    2960    488.95459   -6920.8675   -6866.3239   -157.12331    20582.784    1.7842859 
    2970     489.8282   -6920.9214   -6866.2803   -328.45024    20563.172    1.7890907 
    2980    492.65711   -6921.1222   -6866.1656   -547.29978    20543.119    1.7951031 
    2990    499.54768   -6921.7112   -6865.9859   -656.52764    20522.227    1.8039167 
    3000    501.45708   -6921.6857   -6865.7474   -481.65226    20500.321    1.8152681 
    3010     509.5237   -6922.2962   -6865.4581   -285.67197    20477.714    1.8276485 
    3020    521.28694   -6923.2795   -6865.1292   -180.87302    20454.802    1.8405698 
    3030     528.7287   -6923.7686   -6864.7881    181.49644    20431.864    1.8548014 
    3040    532.66868   -6923.8647   -6864.4447    927.71916    20409.645     1.870264 
    3050    546.66594   -6925.0929   -6864.1115    1400.7053    20389.482    1.8853757 
    3060    551.01125   -6925.2839   -6863.8178     1655.053    20372.289    1.9009162 
    3070    541.17472   -6923.9535   -6863.5847    2104.2184    20358.609     1.917719 
    3080    539.85395   -6923.6222   -6863.4007    2389.2397    20349.212    1.9332238 
    3090    544.83324   -6924.0365   -6863.2595    2528.4807    20344.613    1.9455299 
    3100    535.01719   -6922.8455   -6863.1636    2898.6217    20345.099    1.9569159 
    3110    533.89225   -6922.6651   -6863.1086    3097.1507    20351.247    1.9687366 
    3120    527.06301   -6921.8744   -6863.0797    3183.2509    20363.429     1.978817 
    3130    520.19873   -6921.0928   -6863.0638    3044.5371    20381.749    1.9826497 
    3140    527.34438    -6921.871   -6863.0449    2552.4101    20405.867    1.9789673 
    3150    538.52316   -6923.1016   -6863.0285    1887.6957    20434.803     1.970236 
    3160    538.73111   -6923.1301   -6863.0338    1520.1201    20467.282    1.9592562 
    3170    526.82733   -6921.8331   -6863.0647    1328.1677    20502.499    1.9475424 
    3180    530.68892   -6922.3029   -6863.1038    843.93946    20539.971     1.934959 
    3190    544.49905   -6923.8889   -6863.1492    296.04422    20578.739     1.923252 
    3200    541.44069   -6923.6244   -6863.2259    93.736704    20617.757     1.914808 
    3210     522.1866   -6921.5794   -6863.3287   -160.66432    20656.475    1.9084496 
    3220    512.01163   -6920.5344   -6863.4188   -677.60729    20694.323    1.9012488 
    3230    526.01337   -6922.1495   -6863.4719    -1651.771    20730.196    1.8927401 
    3240    542.43364   -6924.0244   -6863.5151   -2507.2954    20762.197    1.8864028 
    3250    532.17095   -6922.9547   -6863.5902    -2715.152    20788.709    1.8837847 
    3260    511.38794   -6920.7274   -6863.6813   -2666.7135    20809.314    1.8806334 
    3270    520.72101   -6921.8516   -6863.7644   -3234.0988    20824.007    1.8727409 
    3280    524.65931   -6922.3733   -6863.8467   -3785.0996    20831.824    1.8635742 
    3290    509.92876   -6920.8246   -6863.9412   -3723.9109    20831.824    1.8600338 
    3300    503.73389    -6920.217   -6864.0247   -3349.5014    20824.194    1.8651041 
    3310    513.25863   -6921.3336   -6864.0788   -2653.0922    20809.862    1.8767317 
    3320    514.82171   -6921.5329   -6864.1037   -1763.9417    20790.352    1.8905448 
    3330    494.82522   -6919.2844   -6864.0859   -935.34124     20767.55    1.9016597 
    3340    498.72003   -6919.6402   -6864.0072    -883.2084    20743.065    1.9057347 
    3350    521.67776   -6922.0726   -6863.8787   -1147.7887    20717.133    1.9033215 
    3360    523.83901    -6922.169    -6863.734   -1248.3622    20689.323    1.8993074 
    3370     524.0484   -6922.0489   -6863.5905   -1095.2951      20659.5    1.8971253 
    3380    523.20898   -6921.7992   -6863.4344   -583.62533    20628.062     1.898419 
    3390    524.13702   -6921.7266   -6863.2583   -233.46719    20595.962    1.9028136 
    3400    537.13162   -6922.9911   -6863.0733    26.341407    20563.971    1.9083314 
    3410     545.1223   -6923.7132    -6862.904    260.55105    20532.625    1.9147548 
    3420    543.47815   -6923.3968    -6862.771    717.10572    20502.454    1.9219607 
    3430    548.28728   -6923.8445   -6862.6822    1031.9423    20474.264    1.9275309 
    3440    550.20426   -6924.0236   -6862.6475    1275.0861    20448.648    1.9300611 
    3450    530.99456   -6921.8951   -6862.6619    1708.9119    20426.094    1.9306499 
    3460    514.51444   -6920.0805   -6862.6856    2037.2039    20407.349    1.9290415 
    3470    525.93115   -6921.3676   -6862.6992    1912.9029      20392.9    1.9245572 
    3480    539.51565   -6922.9044   -6862.7206    1947.4847    20382.513    1.9192625 
    3490    540.80178   -6923.1054   -6862.7782    2608.8971    20376.269    1.9139767 
    3500    528.05907    -6921.779   -6862.8733    3399.2604     20375.31    1.9060431 
    3510     520.0891    -6921.002   -6862.9852    3700.8932    20380.991    1.8926059 
    3520    532.13372   -6922.4695   -6863.1092    3232.7307    20393.714    1.8749166 
    3530    533.79638   -6922.8015   -6863.2557    2785.6068    20412.612    1.8578072 
    3540     530.4327   -6922.5963   -6863.4257    2499.3642    20436.755    1.8422773 
    3550    544.84318   -6924.4006   -6863.6226    1698.9997    20465.349    1.8263551 
    3560    542.92814   -6924.4198   -6863.8554    1066.2859     20496.89    1.8108736 
    3570    520.44682   -6922.1677    -6864.111    899.69668    20530.137    1.7974515 
    3580    517.82869   -6922.1183   -6864.3538    261.93507    20564.515    1.7871384 
    3590    525.61813   -6923.2074   -6864.5739   -249.14738    20598.849     1.781801 
    3600    517.81091   -6922.5508   -6864.7883   -365.88344    20632.145     1.782514 
    3610    506.60474   -6921.4933   -6864.9808   -558.87067    20664.101    1.7863547 
    3620    512.85474   -6922.3467    -6865.137    -1157.934    20694.276    1.7892395 
    3630    519.91151   -6923.2589    -6865.262   -1787.6082    20721.545    1.7902026 
    3640    517.94813   -6923.1516   -6865.3737   -2043.1012    20744.743    1.7899396 
    3650     511.7554   -6922.5627   -6865.4756   -1941.2775    20763.401    1.7886068 
    3660    497.77569   -6921.0815   -6865.5538   -1564.4953    20777.789    1.7867204 
    3670     491.9362   -6920.4571   -6865.5809   -1265.8079    20788.717     1.784297 
    3680    513.34905   -6922.8166   -6865.5518   -1684.5038     20796.72    1.7811045 
    3690    524.73286   -6924.0242   -6865.4894   -1992.6787    20801.164    1.7793271 
    3700    522.39402   -6923.6998    -6865.426   -1717.4925     20801.55     1.780377 
    3710    512.35169   -6922.5091   -6865.3555   -1255.7588    20798.428    1.7828455 
    3720    504.03629    -6921.484    -6865.258   -878.38934     20792.77    1.7850894 
    3730    506.10188   -6921.5666   -6865.1102   -733.72079    20785.359    1.7873461 
    3740    533.20268   -6924.4015   -6864.9219   -660.33943    20776.559    1.7904889 
    3750    538.10776   -6924.7518   -6864.7251   -560.86491    20766.559    1.7965027 
    3760    528.27807   -6923.4796   -6864.5494   -412.63966    20755.572     1.805753 
    3770    515.47783     -6921.87   -6864.3677   -338.12496    20743.873    1.8159334 
    3780    528.94464   -6923.1721   -6864.1675   -512.92666    20731.582    1.8244495 
    3790    534.17251   -6923.5444   -6863.9567    -275.0652    20718.492    1.8317323 
    3800    518.44514   -6921.5772   -6863.7438    248.85744    20705.065      1.83793 
    3810    528.55822   -6922.4803   -6863.5189    228.09272    20692.206    1.8418151 
    3820    536.60142   -6923.1424   -6863.2837    380.07085    20680.021    1.8450559 
    3830    523.49976   -6921.4534   -6863.0562    1164.5639    20668.886    1.8489073 
    3840     526.0013   -6921.5053   -6862.8291    1776.1032    20660.225    1.8530832 
    3850    523.28325   -6920.9616   -6862.5885    2179.8658    20655.259    1.8589627 
    3860    526.79989   -6921.1087   -6862.3434    2216.1971    20654.692    1.8659709 
    3870    526.52536   -6920.8226   -6862.0879    2179.5402    20658.631    1.8716522 
    3880    541.15463   -6922.2016    -6861.835    2037.5318    20666.932    1.8728436 
    3890    555.71818   -6923.6017   -6861.6105    2104.1184    20679.355    1.8697637 
    3900    537.76979   -6921.4306   -6861.4416    2278.9857    20696.024    1.8646976 
    3910    541.51953   -6921.7216   -6861.3143    1828.3662    20717.138    1.8571872 
    3920    552.10148   -6922.7984   -6861.2107    1196.3926    20741.833    1.8495258 
    3930    534.38418   -6920.7559   -6861.1446    899.67952     20768.89    1.8449107 
    3940    522.25495   -6919.3557   -6861.0974    510.21544    20797.596     1.841862 
    3950    522.53655   -6919.3236   -6861.0339   -88.396696     20827.11    1.8382291 
    3960    522.18786   -6919.1977   -6860.9469   -580.38213    20856.267    1.8326752 
    3970    519.63772   -6918.7998   -6860.8334   -980.10501    20884.044    1.8256572 
    3980    531.65198    -6920.001   -6860.6944   -1520.3727    20909.541    1.8190499 
    3990    536.26571   -6920.3623   -6860.5411   -1753.5142     20931.74    1.8148869 
    4000    532.52195   -6919.7975   -6860.3938   -1704.4307    20950.172    1.8146038 
    4010    531.73117   -6919.5615   -6860.2461   -1870.1385    20964.865    1.8186427 
    4020    533.19506   -6919.5701   -6860.0914    -2152.391    20975.516    1.8250365 
    4030    530.97103   -6919.1615   -6859.9309   -2304.7332     20981.61     1.829009 
    4040    532.36172    -6919.149   -6859.7632   -2405.0274    20982.829    1.8276644 
    4050    538.83949   -6919.7006   -6859.5922   -2140.1803    20979.073    1.8217059 
    4060    542.48843   -6919.9397   -6859.4243   -1670.2435    20970.898    1.8140574 
    4070    552.68214   -6920.9281   -6859.2755   -1463.2441    20959.218    1.8075714 
    4080     553.1999    -6920.874   -6859.1637   -1242.5986    20944.558    1.8038517 
    4090     549.3429   -6920.3822   -6859.1021   -912.93886    20927.422    1.8036575 
    4100     545.9766   -6919.9951   -6859.0906   -785.08742    20908.438    1.8069179 
    4110    548.30211   -6920.2958   -6859.1319   -689.95134    20887.927    1.8114736 
    4120    552.22934   -6920.8373   -6859.2353   -527.49596    20866.126    1.8155256 
    4130     547.8793    -6920.527   -6859.4102   -314.62381    20843.378    1.8192671 
    4140     543.8164    -6920.317   -6859.6534   -389.99277    20820.052    1.8220128 
    4150    551.33768   -6921.4757   -6859.9732   -743.15555    20796.001     1.822347 
    4160    550.69048   -6921.8088   -6860.3784   -850.55442    20770.621    1.8214361 
    4170    543.58008    -6921.497   -6860.8598   -786.69169    20743.674    1.8217888 
    4180    526.58938   -6920.1115   -6861.3696   -439.19264    20715.349    1.8255203 
    4190    526.76793   -6920.6248    -6861.863   -201.51753    20686.297    1.8320587 
    4200     536.5979   -6922.2036   -6862.3453    2.7658725    20657.036    1.8396668 
    4210     533.1783   -6922.2805   -6862.8037    533.78247    20628.048    1.8469408 
    4220    540.88321   -6923.5708   -6863.2345    1072.4576    20600.348    1.8531557 
    4230    545.75494   -6924.5286   -6863.6489     1469.558    20574.996    1.8595372 
    4240    537.36923   -6923.9864   -6864.0421    1978.5968    20552.826    1.8661942 
    4250     533.1306   -6923.8766    -6864.405    2466.1044    20534.801    1.8710708 
    4260    529.91867   -6923.8516   -6864.7384    2661.1373    20521.802    1.8737524 
    4270    528.02428   -6923.9461   -6865.0442    2567.4901    20514.166    1.8759568 
    4280    529.68832   -6924.4149   -6865.3274    2492.9496    20511.744    1.8787502 
    4290     529.6149   -6924.6769   -6865.5976    2492.6315    20514.359     1.881977 
    4300    525.50332   -6924.4836   -6865.8629    2582.9499    20521.979    1.8847555 
    4310    506.17782   -6922.5691   -6866.1042    2840.5835    20534.828    1.8864334 
    4320    509.46093   -6923.1346   -6866.3035    2157.9234    20553.178    1.8857893 
    4330    521.03802   -6924.5767   -6866.4542    897.00244    20575.732     1.882876 
    4340    514.02453    -6923.907   -6866.5668    58.740422    20600.128    1.8794209 
    4350    506.16823   -6923.1069   -6866.6431   -304.66561    20624.648    1.8758842 
    4360    501.52861   -6922.6212   -6866.6749   -166.21703    20648.554    1.8725007 
    4370    496.93783   -6922.0929   -6866.6588    108.28038    20672.077    1.8690607 
    4380     502.7797   -6922.6714   -6866.5856   -240.89564     20695.65    1.8648794 
    4390    520.10701    -6924.477   -6866.4583   -917.93621    20718.615    1.8597163 
    4400     526.6394   -6925.0534    -6866.306   -1195.0729    20739.696    1.8545073 
    4410    521.97483     -6924.38   -6866.1529   -1116.0331    20758.316    1.8503533 
    4420    518.54503   -6923.8395    -6865.995   -1280.7554    20774.526    1.8474663 
    4430    522.24646   -6924.0769   -6865.8195   -1527.0273    20788.029    1.8454842 
    4440    534.91898   -6925.3068   -6865.6358   -1521.4338     20798.38    1.8455033 
    4450    539.77529   -6925.6772   -6865.4644    -1366.719    20805.592    1.8488428 
    4460    532.85566   -6924.7639   -6865.3231   -1064.7514    20810.004    1.8540923 
    4470    519.88493   -6923.1894   -6865.1955   -710.09692    20812.226    1.8597232 
    4480    521.05637   -6923.1837   -6865.0591   -714.53254    20812.894     1.865562 
    4490    518.20531   -6922.7111   -6864.9045   -787.29411    20812.061    1.8723653 
    4500     502.6694   -6920.7963   -6864.7228   -569.44646    20809.661    1.8789234 
    4510    501.47562   -6920.4279   -6864.4875   -265.13606    20806.095    1.8824184 
    4520    509.66022    -6921.034   -6864.1806    129.91778    20802.014     1.881724 
    4530    511.89318   -6920.9133   -6863.8108    584.19758     20798.22    1.8786428 
    4540    519.61949   -6921.3599   -6863.3956    773.83808    20795.599    1.8763914 
    4550    528.27455    -6921.881   -6862.9511    570.82686    20794.515    1.8758966 
    4560    524.52295   -6921.0177   -6862.5064    473.95138    20794.655    1.8761425 
    4570    528.79082   -6921.0627   -6862.0753    194.57108    20795.758    1.8763535 
    4580    544.30353    -6922.389   -6861.6711   -475.85643    20797.203       1.8771 
    4590    546.86773   -6922.3332   -6861.3293   -1082.8036    20797.683    1.8797258 
    4600    538.22308   -6921.1084   -6861.0688   -1123.6996    20796.037    1.8843198 
    4610    534.30301   -6920.4737   -6860.8713   -1022.7669    20792.083     1.889827 
    4620    537.50063   -6920.6786   -6860.7196   -1017.2406    20785.989    1.8953369 
    4630    542.56967   -6921.1374   -6860.6129   -880.77609    20777.804    1.9010149 
    4640      543.761   -6921.2113   -6860.5539   -486.91129    20767.841    1.9066514 
    4650     542.8217   -6921.0941   -6860.5416   -229.96777    20756.849     1.910734 
    4660     537.1864   -6920.4923   -6860.5684   -235.49424    20745.301    1.9133823 
    4670    528.46188   -6919.5668   -6860.6161    67.039543    20733.319    1.9158339 
    4680    532.49023   -6920.0688   -6860.6687     412.8669    20721.475    1.9189865 
    4690    536.44819   -6920.5672   -6860.7256    699.35402    20710.469      1.92376 
    4700    549.60289    -6922.116    -6860.807    679.12525    20700.809    1.9288987 
    4710    548.65497   -6922.1369   -6860.9336    1051.0812    20692.615    1.9335763 
    4720    531.78587   -6920.4094   -6861.0879    1621.4944    20686.599    1.9373017 
    4730    537.90196   -6921.2614   -6861.2576    1811.6938     20683.81    1.9394859 
    4740      534.093   -6921.0156   -6861.4367    2141.0707    20684.789    1.9416053 
    4750    536.13831   -6921.4386   -6861.6315    2079.2896    20690.083    1.9427352 
    4760    541.02138   -6922.1893   -6861.8375    1737.7187     20699.61    1.9414778 
    4770    535.96761   -6921.8412   -6862.0532    1631.9757    20712.823    1.9389617 
    4780    536.83281   -6922.1586    -6862.274    1408.3235    20729.454    1.9366442 
    4790    539.64513   -6922.6991   -6862.5009    865.22633    20748.995    1.9352987 
    4800    530.26031   -6921.8764   -6862.7251    545.72837    20770.484    1.9351271 
    4810    528.18401   -6921.8558   -6862.9361    186.16546    20793.201    1.9354032 
    4820    528.37009   -6922.0676   -6863.1271   -32.561772    20816.445    1.9377387 
    4830    523.55274   -6921.7035   -6863.3004   -47.609016    20839.781    1.9435113 
    4840    513.75491   -6920.7517   -6863.4416   -321.72162    20863.084    1.9506771 
    4850    511.42595   -6920.5898   -6863.5394   -999.79403    20885.749    1.9567528 
    4860     506.9974   -6920.1409   -6863.5846   -1641.9437    20906.428     1.961348 
    4870    516.16265    -6921.172   -6863.5933   -1895.2577    20923.823    1.9634885 
    4880    520.10673   -6921.5991   -6863.5804   -1828.0037    20937.357    1.9644034 
    4890    522.85433   -6921.8851   -6863.5599   -1567.7276    20947.145     1.967136 
    4900    528.62469   -6922.5061   -6863.5372   -1384.6803    20953.681    1.9715463 
    4910      537.266   -6923.4615   -6863.5287   -1774.3127    20957.218     1.977341 
    4920    536.93071   -6923.4454     -6863.55   -2319.5239    20957.018    1.9855038 
    4930    534.12841   -6923.1885   -6863.6057   -2659.1913    20951.981    1.9938351 
    4940    530.13867   -6922.8291   -6863.6913   -2729.5789    20941.382    2.0001232 
    4950    521.09221   -6921.9183   -6863.7897   -2238.3164    20925.127    2.0050688 
    4960    517.86012    -6921.643   -6863.8749   -1425.4073    20904.177    2.0096855 
    4970     523.7844   -6922.3659    -6863.937   -571.48684    20880.185    2.0147254 
    4980    527.25455   -6922.8013   -6863.9852    174.97741    20854.925    2.0211016 
    4990    523.94598   -6922.4744   -6864.0275    469.72354    20829.893    2.0277602 
    5000     525.0247   -6922.6384   -6864.0712    124.00713    20805.656    2.0328866 
Loop time of 2861.17 on 16 procs for 3000 steps with 864 atoms

Performance: 0.091 ns/day, 264.923 hours/ns, 1.049 timesteps/s
97.5% CPU use with 16 MPI tasks x 1 OpenMP threads

MPI task timing breakdown:
Section |  min time  |  avg time  |  max time  |%varavg| %total
---------------------------------------------------------------
Pair    | 1690.8     | 2409.5     | 2841.7     | 634.1 | 84.21
Bond    | 0.0004344  | 0.0011935  | 0.003278   |   2.1 |  0.00
Neigh   | 0.028485   | 0.041851   | 0.056294   |   4.2 |  0.00
Comm    | 16.788     | 339.18     | 942.04     |1591.1 | 11.85
Output  | 0.19397    | 0.19722    | 0.24249    |   2.6 |  0.01
Modify  | 1.6804     | 112.24     | 228.1      | 862.2 |  3.92
Other   |            | 0.01761    |            |       |  0.00

Nlocal:        54.0000 ave          70 max          35 min
Histogram: 1 0 3 2 0 2 2 3 2 1
Nghost:        477.812 ave         525 max         392 min
Histogram: 1 1 2 0 1 1 1 2 3 4
Neighs:         0.00000 ave           0 max           0 min
Histogram: 16 0 0 0 0 0 0 0 0 0
FullNghs:      2308.75 ave        3610 max        1097 min
Histogram: 1 2 3 0 2 1 4 1 0 2

Total # of neighbors = 36940
Ave neighs/atom = 42.754630
Ave special neighs/atom = 0.0000000
Neighbor list builds = 300
Dangerous builds = 300
unfix   2

fix     3 all npt temp 525.0 525.0 $(100.0*dt) aniso 1.01325 1.01325 $(1000.0*dt)
fix     3 all npt temp 525.0 525.0 0.10000000000000000555 aniso 1.01325 1.01325 $(1000.0*dt)
fix     3 all npt temp 525.0 525.0 0.10000000000000000555 aniso 1.01325 1.01325 1
run     20000
Per MPI rank memory allocation (min/avg/max) = 8.897 | 8.905 | 8.914 Mbytes
Step Temp PotEng TotEng Press Volume c_msd[4] 
    5000     525.0247   -6922.6384   -6864.0712    124.00713    20805.656    2.0328866 
    5010    520.97333   -6922.1863    -6864.071   -602.07951    20805.501    2.0356201 
    5020    512.92832   -6921.2785   -6864.0606   -548.00544    20804.267    2.0360405 
    5030    517.04247   -6921.7047   -6864.0279   -164.60572     20801.97     2.033727 
    5040    526.42751   -6922.7009   -6863.9771    192.66601    20799.331    2.0305082 
    5050    524.99325   -6922.4822   -6863.9184    414.52186    20797.066        2.029 
    5060    531.87055   -6923.1922   -6863.8612    317.16169    20795.599    2.0297557 
    5070    539.40922   -6923.9901   -6863.8182    192.68403    20794.791     2.032954 
    5080    534.85637   -6923.4646   -6863.8006    385.81434    20794.442    2.0383431 
    5090     526.9031   -6922.5829    -6863.806    769.44031    20794.921    2.0450461 
    5100    519.53763   -6921.7734   -6863.8182    988.25001    20796.966    2.0514053 
    5110    506.52818   -6920.3206   -6863.8167    1011.1984    20801.014    2.0557197 
    5120    505.10701   -6920.1222   -6863.7767    903.98367     20807.14    2.0564812 
    5130    518.68085   -6921.5449   -6863.6853    378.37123    20815.073    2.0545141 
    5140    531.27019   -6922.8157   -6863.5517   -342.80517    20823.779    2.0527889 
    5150    543.06224   -6923.9825   -6863.4031   -786.77592    20831.869    2.0519017 
    5160    537.71976   -6923.2473   -6863.2639    -676.9488    20838.471    2.0511285 
    5170    524.14253   -6921.6002   -6863.1313   -391.64923    20843.735    2.0498278 
    5180    521.45938   -6921.1488   -6862.9792   -442.53438    20848.148    2.0474778 
    5190    524.97719   -6921.3503   -6862.7883   -587.48007    20851.667    2.0435842 
    5200    535.20725   -6922.2723   -6862.5691   -870.76249    20853.936      2.03895 
    5210    534.09489   -6921.9136   -6862.3345   -932.41536    20854.467    2.0356138 
    5220    537.30878   -6922.0353   -6862.0977   -1117.7375    20853.016    2.0345387 
    5230    514.77361   -6919.2758   -6861.8521   -884.60225    20849.317    2.0353157 
    5240    504.50349    -6917.854   -6861.5759   -839.99246    20843.699    2.0352903 
    5250    531.03267   -6920.4795    -6861.242    -1086.069    20836.224     2.035527 
    5260    547.14858   -6921.9213    -6860.886     -394.676    20826.618    2.0383279 
    5270     530.1414   -6919.6887   -6860.5506    983.60052    20816.253    2.0412943 
    5280    536.04826   -6920.0327   -6860.2357    1332.3471    20807.646    2.0402016 
    5290    543.91825    -6920.608   -6859.9331    1131.2454    20801.664    2.0356229 
    5300    554.18722   -6921.4918   -6859.6714    815.99023    20797.975    2.0301986 
    5310    570.34147   -6923.0958   -6859.4733    400.27736    20795.938    2.0273599 
    5320    576.51587   -6923.6918   -6859.3806    317.23578    20794.775    2.0298042 
    5330    560.29411   -6921.9078   -6859.4062    634.34326    20794.323    2.0374461 
    5340    546.84002   -6920.5191   -6859.5183    1052.5934    20795.194    2.0477064 
    5350    542.07493    -6920.152   -6859.6827    1319.7585    20798.246    2.0572355 
    5360    544.00587   -6920.5725   -6859.8879    1391.6498    20804.038    2.0632411 
    5370    553.14476   -6921.8517   -6860.1475    1258.6347    20812.733      2.06605 
    5380    563.62178   -6923.3608    -6860.488    790.15212    20824.052    2.0679924 
    5390    566.14233   -6924.0889   -6860.9348      278.127    20837.086     2.071265 
    5400    547.78027   -6922.5698   -6861.4641    181.86568    20850.883    2.0774453 
    5410    535.56448   -6921.7537   -6862.0107    31.335394    20865.172    2.0856411 
    5420    543.94307   -6923.2204   -6862.5427   -556.62001     20879.54     2.094718 
    5430    542.33278   -6923.5466   -6863.0486   -671.65154    20892.959    2.1046006 
    5440    533.81474   -6923.0474   -6863.4995   -771.34978     20905.07    2.1148307 
    5450    534.97461   -6923.5643   -6863.8871   -1278.3432    20915.575    2.1262729 
    5460    525.22993    -6922.802   -6864.2119   -1650.2432    20923.507    2.1398264 
    5470    516.05835   -6922.0379   -6864.4708   -1820.2905    20928.076    2.1537546 
    5480    524.94265   -6923.2372    -6864.679   -2207.7568    20928.816     2.166189 
    5490    527.55688   -6923.7105   -6864.8607   -2508.0029    20924.948    2.1770814 
    5500    523.22358    -6923.398   -6865.0316   -2513.0453    20915.818    2.1869193 
    5510    513.37319   -6922.4488   -6865.1813    -2000.163    20901.445    2.1956156 
    5520    511.75715   -6922.3799   -6865.2926   -1505.4703    20882.768    2.2012813 
    5530    523.28151   -6923.7479   -6865.3751   -1401.9833    20860.725    2.2019741 
    5540    520.56399   -6923.5162   -6865.4465   -1069.9579    20835.667    2.1980936 
    5550    511.68348   -6922.5787   -6865.4996   -779.82189    20808.215    2.1912804 
    5560    517.78943   -6923.2901   -6865.5299   -533.04618     20778.95     2.183447 
    5570    518.06532   -6923.3218   -6865.5308    174.53279    20748.507    2.1775638 
    5580    520.88687   -6923.6105   -6865.5047    666.87158    20718.221    2.1753308 
    5590    525.39337   -6924.0743   -6865.4659    874.24166    20689.088    2.1765257 
    5600    522.22303   -6923.6731   -6865.4183    1442.2913    20661.674    2.1799525 
    5610    522.70687   -6923.6688     -6865.36    1840.5478    20637.049    2.1838879 
    5620    528.86326   -6924.2945    -6865.299    1691.7652    20615.957    2.1858237 
    5630    531.87286   -6924.5807   -6865.2495      1326.15    20598.165    2.1839637 
    5640    534.43122   -6924.8345   -6865.2179    973.57463     20582.99    2.1780374 
    5650    546.97722   -6926.2339   -6865.2178     747.5399    20569.726    2.1699098 
    5660    547.26952   -6926.3145   -6865.2658    749.69122    20557.935    2.1638263 
    5670    547.37309   -6926.4338   -6865.3735    779.22713    20547.589    2.1628691 
    5680    546.08261   -6926.4624   -6865.5461    1045.8716    20538.804     2.167428 
    5690    532.30097   -6925.1522   -6865.7732    1430.8115    20532.103    2.1745685 
    5700     527.6111   -6924.8937   -6866.0379    1446.2135    20528.185    2.1807177 
    5710    528.06365   -6925.2378   -6866.3315    1268.0371    20527.144    2.1848333 
    5720    526.90008   -6925.4273   -6866.6508    1199.6376    20528.692     2.186866 
    5730    526.36688   -6925.7128   -6866.9958    1181.7227    20532.692    2.1876216 
    5740    518.55224   -6925.1989   -6867.3537    1192.8301    20539.125     2.189169 
    5750    511.95845   -6924.8179   -6867.7081    1271.6068    20548.042    2.1927565 
    5760     505.4071   -6924.4156   -6868.0367    1464.7056    20559.651    2.1978115 
    5770    506.87435   -6924.8729   -6868.3303    1691.0304    20574.386    2.2022892 
    5780    513.33137   -6925.8551   -6868.5922    1575.9369    20592.666      2.20562 
    5790    518.14302   -6926.6317   -6868.8321    1150.5976    20614.308    2.2095315 
    5800    514.65169   -6926.4566   -6869.0465    362.52891     20638.49    2.2163296 
    5810    513.65828   -6926.5276   -6869.2283   -616.59012    20663.653    2.2271552 
    5820    501.11211   -6925.2667   -6869.3669   -1106.2654    20687.925    2.2404501 
    5830    495.88351   -6924.7731   -6869.4566    -1392.201    20710.209    2.2516819 
    5840    497.26329   -6924.9602   -6869.4897   -1349.0411    20729.938    2.2582183 
    5850    495.89649   -6924.7868   -6869.4688   -976.19863    20747.161      2.26126 
    5860    489.71355   -6924.0131   -6869.3848   -523.27374    20762.573    2.2632633 
    5870    495.81069   -6924.5348   -6869.2264   -479.93896    20776.974    2.2658701 
    5880    501.30059    -6924.905   -6868.9842   -643.45822    20790.508    2.2721177 
    5890    498.52815   -6924.2738   -6868.6622   -778.67885     20802.86    2.2844869 
    5900     486.5775   -6922.5376   -6868.2591    -613.8288     20813.77    2.2999993 
    5910    486.55658   -6922.0356   -6867.7595   -416.87269     20823.52    2.3110244 
    5920    501.83238   -6923.1376   -6867.1575   -569.25099    20832.437    2.3151442 
    5930    506.91725   -6923.0508   -6866.5035   -826.15721    20840.245    2.3171559 
    5940    511.09646   -6922.8935     -6865.88   -818.88583    20846.445    2.3208694 
    5950    515.77336   -6922.8709   -6865.3356   -407.15387    20851.101    2.3269286 
    5960    523.67132    -6923.314   -6864.8977   -340.03086    20854.905    2.3341307 
    5970    532.83808   -6924.0091   -6864.5702   -660.01822    20857.977    2.3414408 
    5980    531.81914   -6923.6669   -6864.3417    -819.0143    20859.729    2.3487672 
    5990    526.67676   -6922.9355   -6864.1839   -735.01796    20859.836    2.3554516 
    6000    533.33846    -6923.563   -6864.0683   -838.95606     20858.36    2.3625322 
    6010    535.66656   -6923.7414   -6863.9869   -638.35528    20855.182    2.3723618 
    6020    520.14785   -6921.9525   -6863.9292   -85.074816    20850.734    2.3838046 
    6030    524.18421   -6922.3476   -6863.8741   -121.97801    20845.943     2.393005 
    6040    543.18105   -6924.4175   -6863.8249    -430.5512     20840.81    2.3986363 
    6050    539.80746   -6924.0266   -6863.8102   -445.35793    20834.804    2.4028011 
    6060    523.22732   -6922.1963   -6863.8295   -407.00502    20827.811    2.4063179 
    6070    507.85912   -6920.4991   -6863.8467   -77.690602     20819.94    2.4085133 
    6080    506.60848   -6920.3408   -6863.8278    524.79375    20811.862    2.4086726 
    6090    518.73952   -6921.6364   -6863.7702    920.74338    20804.726    2.4091116 
    6100    522.24592   -6921.9475   -6863.6902    1103.5068    20799.374    2.4134896 
    6110    528.23446    -6922.528   -6863.6026    1062.5215    20796.222    2.4205495 
    6120     546.6269   -6924.5018   -6863.5247    650.55571    20795.178    2.4256206 
    6130    558.28685   -6925.7731   -6863.4954    198.61087     20795.46    2.4258916 
    6140    547.24492   -6924.5827   -6863.5367    180.13827    20796.247    2.4224542 
    6150    537.40655   -6923.5847   -6863.6362    569.99167    20797.496     2.418443 
    6160    526.90458   -6922.5422   -6863.7652    1056.3081    20799.972    2.4167971 
    6170    526.07333   -6922.5917   -6863.9075     1057.612    20804.587    2.4169492 
    6180    527.45808   -6922.8959   -6864.0572    806.30901    20811.444    2.4175499 
    6190    528.50672   -6923.1732   -6864.2175    450.96775     20820.07    2.4188408 
    6200    533.94142   -6923.9588   -6864.3969    36.586582    20829.764    2.4216527 
    6210    536.00372   -6924.3959   -6864.6038   -267.92394    20839.722    2.4256729 
    6220    532.63829   -6924.2553   -6864.8387   -593.67582    20849.263    2.4299243 
    6230    524.73116   -6923.6235   -6865.0889   -916.85857     20857.71    2.4347541 
    6240    526.70255      -6924.1   -6865.3456    -1277.326     20864.35    2.4408112 
    6250    536.05354   -6925.4173   -6865.6197   -1626.3757    20868.427     2.448363 
    6260    534.54346     -6925.55   -6865.9209   -1784.9896    20869.206    2.4568417 
    6270    533.46201   -6925.7572   -6866.2487    -1557.841    20866.319    2.4647541 
    6280    534.03616   -6926.1734   -6866.6009   -748.04485    20860.238     2.471713 
    6290    518.56262   -6924.7999   -6866.9534     8.324345    20852.482    2.4779103 
    6300    507.87324   -6923.9305   -6867.2765     304.2925    20844.554    2.4824299 
    6310    507.11226   -6924.1237   -6867.5546    385.36019    20837.106    2.4855527 
    6320    511.95404   -6924.8954   -6867.7862    341.31918    20830.327    2.4899784 
    6330     520.3633   -6926.0314   -6867.9841    316.14192    20824.169    2.4979366 
    6340    520.73286   -6926.2528   -6868.1642    348.81417    20818.584      2.50937 
    6350    518.72381   -6926.1989   -6868.3344    369.19381    20813.637    2.5212363 
    6360    514.97438   -6925.9334   -6868.4872     338.2291    20809.377    2.5309735 
    6370    510.36779   -6925.5442   -6868.6119    175.22069    20805.734    2.5368239 
    6380    507.72402    -6925.337   -6868.6996   -5.2018096    20802.404    2.5385343 
    6390     516.0548    -6926.319   -6868.7523   -282.66983    20798.976    2.5382135 
    6400    517.24986   -6926.4822   -6868.7822   -442.82006     20794.93    2.5398501 
    6410    503.80743   -6924.9933   -6868.7928   -464.44103    20789.922    2.5461742 
    6420    499.19713   -6924.4465   -6868.7603   -609.29798    20783.843    2.5561751 
    6430    524.70648   -6927.2113   -6868.6795   -948.71926    20776.349    2.5662064 
    6440    541.70542   -6929.0096   -6868.5815   -602.17417    20766.896    2.5743718 
    6450    529.78613   -6927.5954    -6868.497    213.69417    20756.145    2.5812269 
    6460    518.72283   -6926.2825   -6868.4182    620.80133     20745.59    2.5862235 
    6470     512.8828   -6925.5376   -6868.3247    695.19441    20736.098    2.5886147 
    6480    507.46929   -6924.8066   -6868.1976    702.19871    20727.904    2.5901239 
    6490    507.70229   -6924.6545   -6868.0195    570.13195    20721.017    2.5940303 
    6500    514.17766   -6925.1369   -6867.7796    278.23317    20715.166    2.6017123 
    6510    510.79874   -6924.4437   -6867.4633    240.63821    20709.866    2.6109343 
    6520    504.91424   -6923.3804   -6867.0564    434.54877     20705.03    2.6163993 
    6530    508.63112   -6923.2819   -6866.5433    853.19212    20701.059     2.615291 
    6540    514.60121   -6923.3308   -6865.9262    1469.3682    20698.846    2.6097604 
    6550    523.17868   -6923.6008   -6865.2394    1587.9112    20699.561    2.6041811 
    6560    541.36333   -6924.9423   -6864.5524     944.6986    20703.439    2.6015233 
    6570    548.48158   -6925.1231   -6863.9391    221.69691    20709.336    2.6024378 
    6580    543.04377   -6924.0375   -6863.4601   -112.81945    20715.874    2.6060361 
    6590    549.06721   -6924.3592     -6863.11    93.349027    20722.409    2.6113981 
    6600    550.16908    -6924.245   -6862.8729    492.06527    20729.277    2.6199608 
    6610    536.58089   -6922.5856   -6862.7292    959.03536     20737.31    2.6322658 
    6620    535.95617   -6922.4292   -6862.6425      978.348    20747.396    2.6446236 
    6630    554.83016   -6924.4958   -6862.6037    726.70718     20759.65    2.6549026 
    6640    545.57809   -6923.4843   -6862.6242    920.66422    20773.733    2.6642418 
    6650    534.99673   -6922.3762   -6862.6965    1224.7639     20790.03    2.6721164 
    6660    529.94429   -6921.9042   -6862.7881    1208.7407    20809.148    2.6805329 
    6670    528.95596   -6921.8879    -6862.882    851.61894    20831.103    2.6927456 
    6680    533.53994   -6922.4932    -6862.976    169.94734     20855.22    2.7085721 
    6690    531.81781   -6922.3967   -6863.0717   -430.93977    20880.197    2.7238679 
    6700    532.82417    -6922.609   -6863.1717   -1041.8392    20904.749    2.7339144 
    6710    536.14669    -6923.091   -6863.2831   -1568.4956    20927.603    2.7380927 
    6720    526.21191    -6922.108   -6863.4082   -1836.8816     20947.64    2.7413716 
    6730    515.68697   -6921.0599   -6863.5343   -2025.2741    20964.189    2.7494218 
    6740    505.85148   -6920.0669   -6863.6384   -2039.4527    20976.775    2.7646463 
    6750    498.54156   -6919.3162   -6863.7031   -1736.6872    20985.331    2.7843289 
    6760    504.09755   -6919.9555   -6863.7227   -1595.3831    20990.325    2.8032882 
    6770    512.64657   -6920.8877   -6863.7012   -1502.3122    20992.021    2.8178944 
    6780    521.63395   -6921.8426   -6863.6536   -1467.7836    20990.531    2.8264523 
    6790    532.89236   -6923.0458   -6863.6008   -1439.7365    20985.897    2.8302568 
    6800     540.9074   -6923.9051    -6863.566   -1278.7936    20978.158    2.8340655 
    6810    547.59657   -6924.6522    -6863.567   -1219.1721    20967.542    2.8406658 
    6820     550.4652    -6925.028   -6863.6228   -1376.6156    20954.094     2.848795 
    6830     542.7804   -6924.2885   -6863.7405   -1182.6128    20937.558     2.855653 
    6840    526.09717   -6922.5862   -6863.8993   -613.09067    20918.284    2.8591407 
    6850    513.80759   -6921.3734   -6864.0574    69.797439    20897.419    2.8598341 
    6860    523.00996   -6922.5523   -6864.2097    297.61814    20876.255    2.8598343 
    6870    528.68563   -6923.3509   -6864.3752    527.71865    20855.384    2.8604621 
    6880    522.53593   -6922.8537    -6864.564    857.82338    20835.312    2.8617119 
    6890    513.34918   -6922.0276   -6864.7627    798.73455    20816.638     2.863008 
    6900    523.66943    -6923.389   -6864.9729    91.025839    20799.228    2.8623165 
    6910    538.03183   -6925.2482     -6865.23   -933.67676    20781.658    2.8595067 
    6920     534.5618   -6925.1938   -6865.5626   -1098.2461    20762.029    2.8560248 
    6930    513.71056   -6923.2473   -6865.9421   -475.18598    20739.968    2.8526321 
    6940    495.59281    -6921.595   -6866.3108    50.149874    20716.568    2.8506299 
    6950    502.17324   -6922.6663   -6866.6482    100.38033    20692.823    2.8510314 
    6960    504.96419   -6923.2867   -6866.9572    355.41702    20668.983    2.8525675 
    6970    499.88646   -6922.9884   -6867.2253     1006.024    20645.627    2.8527899 
    6980    506.47852   -6923.9507   -6867.4522     1160.493    20623.915    2.8521517 
    6990    514.11291   -6925.0097   -6867.6596    994.93774     20604.23    2.8531713 
    7000    503.73777   -6924.0421   -6867.8494    1034.6842    20586.345    2.8560065 
    7010    496.98679   -6923.4429   -6868.0033    1183.9552    20570.345    2.8583988 
    7020    506.34294   -6924.5986   -6868.1152    1100.3015    20556.479    2.8595527 
    7030    508.41061   -6924.9084   -6868.1944    1383.1106    20544.724    2.8613173 
    7040    500.70833   -6924.0912   -6868.2364    1808.5034    20535.633    2.8663357 
    7050    514.24444   -6925.6077   -6868.2429    1798.9354    20529.997    2.8757782 
    7060    522.78877   -6926.5498   -6868.2319     1665.392    20527.908    2.8907106 
    7070     503.5055   -6924.3773   -6868.2105    1901.2514    20529.256    2.9091801 
    7080    493.13805   -6923.1576   -6868.1473     1877.782     20534.43    2.9250695 
    7090    498.34376   -6923.5917   -6868.0008    1391.5541     20543.42    2.9352829 
    7100    505.12656   -6924.0997   -6867.7521    1000.1483    20555.416     2.942867 
    7110    513.54488   -6924.6913   -6867.4046    1040.6549    20569.724    2.9520832 
    7120    521.56923   -6925.1463   -6866.9644    1034.6459    20586.356    2.9642333 
    7130      535.928   -6926.2348   -6866.4513    861.34674    20605.341    2.9770065 
    7140    543.26502    -6926.511    -6865.909    665.30317    20626.367    2.9885499 
    7150    538.60853   -6925.4719   -6865.3893     487.5896    20649.071     2.997857 
    7160    526.96987   -6923.6961   -6864.9119    223.12039    20673.077    3.0051889 
    7170     519.1358   -6922.3781   -6864.4677   -156.66975    20697.841    3.0119532 
    7180     520.8074   -6922.1349   -6864.0381   -692.23845     20722.54    3.0204118 
    7190    518.46436   -6921.4581   -6863.6226   -876.70093    20746.165    3.0334935 
    7200    519.25352   -6921.1595    -6863.236   -841.27717    20768.288    3.0501416 
    7210    518.61764   -6920.7365    -6862.884   -629.20178     20788.95    3.0661429 
    7220    521.39905   -6920.7338    -6862.571     -644.173    20808.473    3.0783477 
    7230    527.11618    -6921.092   -6862.2914   -980.10168    20826.808    3.0847546 
    7240    522.05733   -6920.2812   -6862.0449   -1302.9439    20843.294    3.0856038 
    7250    527.86156   -6920.7115   -6861.8278   -1743.2059    20857.178    3.0835858 
    7260    541.83195   -6922.0888   -6861.6467   -1948.1199    20867.595    3.0819882 
    7270     532.6945   -6920.9393   -6861.5164   -1537.5802    20874.148    3.0827994 
    7280    518.09546    -6919.216   -6861.4217   -767.16647    20877.602    3.0858464 
    7290     525.5289   -6919.9539   -6861.3304   -456.38012    20879.398    3.0904515 
    7300    546.95513   -6922.2631   -6861.2495   -841.01119    20880.132    3.0961831 
    7310    550.95997   -6922.6782   -6861.2178   -1052.4946    20879.157    3.1014471 
    7320     537.0293   -6921.1473   -6861.2409   -704.58783    20876.094    3.1043399 
    7330    543.65685   -6921.9453   -6861.2995   -529.86199    20871.492     3.104054 
    7340    555.01198   -6923.3136   -6861.4011   -248.64983    20865.751    3.1025056 
    7350    545.36278   -6922.3958   -6861.5598    375.18252    20859.504    3.1033223 
    7360    542.77586   -6922.3147   -6861.7673     451.6124    20853.882    3.1086993 
    7370     548.9644   -6923.2593   -6862.0215    -55.48484    20849.049    3.1197479 
    7380    550.86883   -6923.7827   -6862.3325   -325.73162    20844.115    3.1352124 
    7390    535.57512   -6922.4323   -6862.6881   -159.71738    20838.549    3.1505637 
    7400    517.75614   -6920.7947   -6863.0383    82.218271    20832.621     3.160825 
    7410    531.58582   -6922.6686   -6863.3694   -148.53794    20826.708    3.1634015 
    7420    540.79683   -6924.0297    -6863.703    -234.2757    20820.471    3.1603244 
    7430     528.7242   -6923.0192   -6864.0393    260.20553    20813.808    3.1545515 
    7440    515.53339   -6921.8524   -6864.3439    593.29139    20807.575    3.1475007 
    7450    513.93014   -6921.9256   -6864.5959    883.42439    20802.525    3.1404709 
    7460    514.22806   -6922.1628   -6864.7999    921.89103    20799.208    3.1369662 
    7470    507.34758     -6921.55   -6864.9546     893.9834    20797.785    3.1398881 
    7480    511.94368    -6922.167    -6865.059    647.49853    20798.165    3.1484481 
    7490      523.852   -6923.5631   -6865.1266    303.95773    20799.872    3.1610254 
    7500    530.53588   -6924.3708   -6865.1888    236.47733    20802.277    3.1769809 
    7510    522.56983   -6923.5437   -6865.2503    436.11026    20805.248    3.1928286 
    7520    525.06826   -6923.8828   -6865.3107    542.94159    20809.148    3.2031454 
    7530    518.17142   -6923.1668    -6865.364    389.21062    20814.167    3.2088311 
    7540    501.49914   -6921.3354   -6865.3924   -168.16922    20819.972    3.2124386 
    7550    500.30101    -6921.179   -6865.3697   -1160.0589    20825.378    3.2147674 
    7560    513.42619   -6922.5727   -6865.2992   -2006.5908    20828.407    3.2183318 
    7570    515.89093   -6922.7547   -6865.2063   -1917.7604    20827.451    3.2249031 
    7580    515.33746   -6922.5908   -6865.1041   -1102.0485    20822.626    3.2340884 
    7590    528.09685   -6923.8985   -6864.9885   -407.04558    20815.443    3.2469678 
    7600    544.57483   -6925.6314   -6864.8832   -372.99737    20807.234    3.2639948 
    7610    542.17663    -6925.303   -6864.8224   -554.03735    20798.177    3.2825874 
    7620    526.63577   -6923.5499   -6864.8029   -728.03354    20787.891    3.2980461 
    7630     514.2259   -6922.1508   -6864.7881    -776.4576    20776.055    3.3074172 
    7640    522.74638   -6923.0786   -6864.7655   -1048.6835    20762.488    3.3111321 
    7650    525.48755   -6923.3565   -6864.7376   -776.58709    20746.789    3.3113868 
    7660    520.81596   -6922.8015   -6864.7037    277.09932    20729.541    3.3104712 
    7670    515.85139   -6922.1914   -6864.6474    1421.9203    20712.777    3.3100928 
    7680    512.38177   -6921.7212   -6864.5643    2089.1644     20698.77    3.3107955 
    7690    514.55313   -6921.8579   -6864.4587    2171.4526    20688.872    3.3117441 
    7700    519.36496   -6922.2725   -6864.3366    2129.2033    20683.354    3.3111199 
    7710    523.77117   -6922.6338   -6864.2064    2182.0697    20682.189    3.3100628 
    7720    536.29739   -6923.9073   -6864.0825    2172.6594     20685.48    3.3138371 
    7730     541.7839   -6924.4223   -6863.9855    2233.1678    20693.283    3.3261902 
    7740    534.87673   -6923.5935   -6863.9272     2153.837    20705.715    3.3464319 
    7750    528.21516   -6922.8183   -6863.8952    1689.8999    20722.601    3.3704317 
    7760    522.53776   -6922.1561   -6863.8662    1367.1686    20743.176    3.3925028 
    7770    529.88771   -6922.9359   -6863.8261    727.17903     20766.66    3.4079246 
    7780     540.2728   -6924.0459   -6863.7777    202.08442    20791.869     3.417967 
    7790     543.1296   -6924.3332   -6863.7463   -331.25375    20817.655    3.4261629 
    7800    522.86982   -6922.0621   -6863.7352   -515.23609     20842.99    3.4334173 
    7810    523.47673    -6922.126   -6863.7314   -727.90244     20867.41    3.4392867 
    7820    531.07911   -6922.9659   -6863.7232   -865.41509    20890.489    3.4466072 
    7830    526.48161   -6922.4613   -6863.7314   -727.35818    20911.951    3.4591048 
    7840    514.33076   -6921.1253   -6863.7509   -737.60573     20931.98    3.4783707 
    7850    512.86231   -6920.9686    -6863.758   -775.85926    20950.587    3.5034109 
    7860    517.63067   -6921.4811   -6863.7386   -717.69924     20967.69    3.5289358 
    7870    527.22457   -6922.5145   -6863.7018   -623.22931    20983.382    3.5475051 
    7880    532.81798   -6923.1014   -6863.6647    -441.2384    20997.886    3.5576626 
    7890    535.97453   -6923.4313   -6863.6425   -577.92057    21011.479    3.5645007 
    7900    537.16479   -6923.5668   -6863.6453   -655.74591    21023.957    3.5709124 
    7910    529.64685   -6922.7551   -6863.6722   -589.03697    21035.151     3.576732 
    7920    529.65971   -6922.8039   -6863.7196    -602.9278    21045.147    3.5820255 
    7930     524.5186   -6922.2893   -6863.7785   -546.79236    21053.961    3.5873659 
    7940     520.1884   -6921.8682   -6863.8404   -438.36698    21061.692    3.5913053 
    7950    522.56217   -6922.1887   -6863.8961   -581.62647    21068.482    3.5912529 
    7960    528.60222    -6922.914   -6863.9477   -952.34307    21074.041    3.5870858 
    7970    532.80603   -6923.4471   -6864.0118   -1215.3047    21077.634    3.5804147 
    7980    520.67018   -6922.1735   -6864.0919   -1212.3685    21078.713    3.5739071 
    7990       512.78   -6921.3679   -6864.1665   -1182.6225     21077.24    3.5693834 
    8000    522.04792   -6922.4655   -6864.2303   -1284.3609     21073.19    3.5664843 
    8010    513.42402   -6921.5526   -6864.2794   -876.54653    21066.493    3.5636361 
    8020    516.22328   -6921.8952   -6864.3098   -658.88818    21057.846    3.5587858 
    8030    527.06861   -6923.1166   -6864.3213   -691.44579    21047.702    3.5535944 
    8040    532.00867   -6923.6832   -6864.3368     -559.045    21036.084    3.5513606 
    8050    524.13677   -6922.8312   -6864.3629   -149.11856    21023.254     3.554104 
    8060    509.34555    -6921.199   -6864.3808    369.49249    21010.051    3.5609967 
    8070    506.46389   -6920.8596   -6864.3628    330.14445    20997.449    3.5686615 
    8080    523.91804   -6922.7524   -6864.3086    88.399419     20985.45    3.5746271 
    8090    534.35315   -6923.8533   -6864.2454    150.55737    20973.616    3.5779472 
    8100    531.07852   -6923.4391   -6864.1965    508.24483    20962.082    3.5764128 
    8110    529.19238    -6923.195   -6864.1628    797.69659    20951.546    3.5689353 
    8120    530.29048   -6923.2969   -6864.1422    846.80874    20942.569    3.5589549 
    8130    516.79314    -6921.776   -6864.1269    1155.7368    20935.371    3.5515527 
    8140    505.14082   -6920.4462    -6864.097    1474.1244    20930.569     3.549195 
    8150    510.96331   -6921.0261   -6864.0273    1032.9298    20928.698    3.5520028 
    8160    528.90878   -6922.9236    -6863.923     7.784747    20928.876    3.5578733 
    8170    531.02975   -6923.0484   -6863.8112   -536.28896    20929.163    3.5636325 
    8180    519.48769   -6921.6557   -6863.7061   -501.07001    20928.418    3.5663699 
    8190     516.2157   -6921.1752   -6863.5905    -137.1071    20926.676    3.5643853 
    8200    519.46414   -6921.3938   -6863.4468    294.04998    20924.651    3.5580157 
    8210    523.62336   -6921.6885   -6863.2775    624.46768    20923.218    3.5487032 
    8220    521.25517   -6921.2387   -6863.0919    707.63911    20923.046    3.5392089 
    8230    528.69817   -6921.8702   -6862.8931    556.02393     20924.34    3.5328798 
    8240    539.95115   -6922.9185   -6862.6861    79.816486    20926.744    3.5321102 
    8250    537.39088   -6922.4368     -6862.49   -145.35725    20929.395    3.5349141 
    8260    531.45812   -6921.5956   -6862.3106   -297.00428    20931.768    3.5357769 
    8270    531.37937   -6921.4142    -6862.138    -269.9569    20933.556    3.5321765 
    8280    521.61021   -6920.1442   -6861.9578    321.72981    20934.867    3.5271731 
    8290    515.82346   -6919.3047   -6861.7638    1237.7791    20936.923     3.524217 
    8300      529.456   -6920.6051   -6861.5434    1633.2558    20941.517    3.5223983 
    8310    546.99575    -6922.332   -6861.3138     1207.022    20949.427    3.5205327 
    8320    539.89233   -6921.3282   -6861.1024    664.45103    20959.926    3.5183614 
    8330    538.59508   -6921.0001    -6860.919    64.342782    20971.875    3.5151131 
    8340    549.85358   -6922.0931   -6860.7561   -455.20102    20984.051    3.5098666 
    8350    554.00465   -6922.4385   -6860.6384    -938.1646    20995.336    3.5022551 
    8360    543.73515   -6921.2314   -6860.5769   -1452.2033    21004.702    3.4931665 
    8370     539.7906   -6920.7731   -6860.5586   -1922.0601    21011.045    3.4810098 
    8380    545.18256   -6921.3972   -6860.5813   -1826.1543    21013.459    3.4658821 
    8390    538.42027   -6920.7141   -6860.6526    -1052.724    21012.153    3.4515671 
    8400    533.78775   -6920.3129   -6860.7681   -311.35498    21008.606    3.4401883 
    8410    529.45838   -6919.9814   -6860.9196    35.701255    21004.308    3.4308119 
    8420    515.51879   -6918.6018   -6861.0949    99.373321    21000.023    3.4221495 
    8430    518.71296   -6919.1433     -6861.28   -189.39988    20995.891    3.4120381 
    8440    537.09603   -6921.4109    -6861.497   -425.82669    20991.359    3.3994892 
    8450      528.558   -6920.7265    -6861.765    -37.65099    20986.027    3.3880244 
    8460    519.35812   -6920.0052   -6862.0701     160.1318    20980.547    3.3822887 
    8470    535.12975   -6922.1082   -6862.4136   -262.29804    20975.269    3.3823563 
[...]
   22890    524.27074    -6924.292   -6865.8088    707.21667    20988.652    6.9699851 
   22900    534.03919   -6925.3102   -6865.7374    80.868226     20993.08    6.9747262 
   22910    547.98079   -6926.8067   -6865.6786   -523.29084    20997.723    6.9767484 
   22920    552.90465   -6927.3477   -6865.6703   -644.59345    21001.407    6.9744505 
   22930    537.77431   -6925.7086    -6865.719   -389.56899    21003.844    6.9676988 
   22940    532.75688   -6925.2329    -6865.803   -371.97314    21005.432    6.9554862 
   22950    533.84824   -6925.4675   -6865.9159   -333.08174    21006.237    6.9377436 
   22960    519.08067   -6923.9539   -6866.0497    10.913645    21006.419    6.9206668 
   22970    520.38567   -6924.2396   -6866.1898   -18.968578    21006.556    6.9108039 
   22980    529.29377   -6925.3783   -6866.3347   -131.05273    21006.654    6.9102975 
   22990    537.84684   -6926.5049   -6866.5073   -255.82395     21006.48    6.9149048 
   23000    539.32919   -6926.8915   -6866.7285   -284.20143    21005.782    6.9173284 
   23010    536.10475   -6926.8053    -6867.002   -70.194077     21004.52    6.9145211 
   23020    539.73603   -6927.5345   -6867.3261    141.92887    21003.097    6.9075184 
   23030    540.65354   -6928.0203   -6867.7095    233.39638    21001.924    6.8990516 
   23040    521.83854   -6926.3404   -6868.1286     659.9214    21001.305    6.8917134 
   23050    514.44557   -6925.9305   -6868.5433     719.2683    21002.001    6.8869633 
   23060    517.41823   -6926.6567   -6868.9379    350.68165    21004.162    6.8841307 
   23070    509.10474   -6926.0912   -6869.2998    71.735531    21007.109    6.8829934 
   23080    500.02138   -6925.3829   -6869.6048   -45.736765    21010.275    6.8862906 
   23090    497.76915   -6925.3636   -6869.8367  -0.83879146    21013.397    6.8954424 
   23100    505.21294   -6926.3586   -6870.0014    392.89291    21016.609    6.9054366 
   23110    523.29847   -6928.5042   -6870.1295    792.92635     21020.68    6.9105882 
   23120    521.23398   -6928.3944     -6870.25    1305.4269    21026.506    6.9113966 
   23130    506.65577   -6926.8731   -6870.3549    1615.5457    21035.129    6.9104074 
   23140    516.34806   -6928.0331   -6870.4337    1387.6103     21047.18    6.9080584 
   23150    512.25737   -6927.6316   -6870.4885    1279.4698     21062.35    6.9077257 
   23160    490.25294   -6925.1995    -6870.511    1358.3918    21080.475     6.912456 
   23170    491.21327   -6925.2646   -6870.4691    773.13037    21101.573    6.9210881 
   23180    499.21617   -6926.0289   -6870.3406   -232.15108    21124.478    6.9319903 
   23190    504.68635   -6926.4348   -6870.1363   -1277.5268    21147.108    6.9412453 
   23200     511.8021    -6926.962   -6869.8697   -1903.7515    21167.312    6.9456476 
   23210    511.70201   -6926.6473   -6869.5661   -1780.3044    21183.781    6.9435418 
   23220    516.58089   -6926.8648   -6869.2394   -1658.5118    21196.546    6.9362474 
   23230    526.40346   -6927.6152   -6868.8941   -1765.1187    21205.799    6.9285905 
   23240    526.97604   -6927.3368   -6868.5519   -1810.4399    21211.332    6.9241392 
   23250    523.12413   -6926.5862   -6868.2309   -1583.6889    21213.048    6.9238606 
   23260    522.51003   -6926.2119   -6867.9251   -1291.8122    21211.366    6.9247425 
   23270    529.48605   -6926.6977   -6867.6327   -1083.7634    21206.858    6.9240397 
   23280     537.3364   -6927.3075   -6867.3668   -763.65412    21200.009    6.9228761 
   23290    538.95674   -6927.2678   -6867.1463   -316.12654    21191.493    6.9232735 
   23300    533.15283   -6926.4465   -6866.9725   -187.40448    21182.151    6.9263741 
   23310    544.51911   -6927.5862   -6866.8443   -658.67083    21172.193    6.9312983 
   23320    550.69467   -6928.2044   -6866.7735   -797.32102    21160.801    6.9352949 
   23330    538.25475   -6926.8032   -6866.7601    -262.2003     21147.74    6.9362093 
   23340    530.98327   -6926.0125   -6866.7805    116.20524    21133.964    6.9320201 
   23350    526.48251   -6925.5397   -6866.8098    165.49063    21120.259    6.9226123 
   23360    534.07398   -6926.4246   -6866.8478   -23.165255    21106.735    6.9082845 
   23370     545.8955   -6927.8039   -6866.9085   -147.10725    21093.041    6.8891471 
   23380    549.45341   -6928.2931   -6867.0007    198.21414    21078.994    6.8669899 
   23390    554.88189   -6929.0263   -6867.1284    748.27902    21065.294    6.8444684 
   23400    557.76724   -6929.5177    -6867.298    1214.5407    21053.082    6.8246614 
   23410    546.96144   -6928.5207   -6867.5064    1603.7915    21043.344    6.8110017 
   23420    531.13955   -6926.9677   -6867.7183    1717.6593    21036.892    6.8065043 
   23430    530.49359   -6927.0942   -6867.9168    1301.3297    21033.949    6.8109228 
   23440    520.13509   -6926.1126   -6868.0908    592.62125    21033.716    6.8213864 
   23450     509.1403   -6925.0222   -6868.2268    34.369314    21034.778    6.8342096 
   23460    515.68951   -6925.8435   -6868.3175    -222.1663    21035.969    6.8444471 
   23470    530.75326   -6927.5898   -6868.3834   -162.68498    21036.764    6.8518264 
   23480    526.17718   -6927.1428   -6868.4469    38.222976    21037.257     6.860443 
   23490    515.20036   -6925.9764   -6868.5051   -5.3881535    21037.799    6.8709575 
   23500    510.46332   -6925.4832   -6868.5402   -253.85725    21038.304    6.8810152 
   23510    507.38146   -6925.1353   -6868.5361   -650.98617    21038.268    6.8900354 
   23520    519.48745   -6926.4486    -6868.499   -1117.6405    21036.833    6.8954674 
   23530    523.47155   -6926.8446   -6868.4506    -849.5064     21033.15    6.8943852 
   23540    512.51992   -6925.5716   -6868.3992    189.26993    21027.799    6.8873872 
   23550    509.25639   -6925.1361   -6868.3278    961.38073    21022.795      6.87618 
   23560    508.57908   -6924.9549   -6868.2221     742.5383    21019.612    6.8613487 
   23570    510.81245   -6925.0627   -6868.0808    152.44082    21017.921    6.8459048 
   23580    509.47092   -6924.7317   -6867.8995   -163.82944    21016.611    6.8338218 
   23590    516.37933   -6925.2872   -6867.6843   -453.17592    21014.932    6.8245173 
   23600    528.95743   -6926.4482   -6867.4422   -459.31544    21012.358    6.8160599 
   23610    535.08992   -6926.8844   -6867.1943   -94.200144    21008.876    6.8092406 
   23620    542.33881   -6927.4601   -6866.9614    257.99435    21005.172    6.8058215 
   23630    535.89642   -6926.5332   -6866.7531    367.67995    21001.944    6.8091117 
   23640    524.66942   -6925.0959   -6866.5683    105.63371     20999.41    6.8192228 
   23650    520.31948   -6924.4195   -6866.3771   -298.41515    20997.076    6.8328956 
   23660    528.03803   -6925.0697   -6866.1662   -537.63947    20994.121    6.8484006 
   23670    537.43363   -6925.8934   -6865.9419   -170.61512    20990.124     6.863723 
   23680     537.5561   -6925.6863   -6865.7211    560.17801    20985.799    6.8765762 
   23690    525.33548   -6924.1118   -6865.5099    1082.3429    20982.601     6.887613 
   23700    524.82915   -6923.8405    -6865.295    954.11251    20981.547    6.9005949 
   23710    531.48776   -6924.3507   -6865.0624    444.47995    20982.445    6.9194993 
   23720     529.0095   -6923.8284   -6864.8166    43.010508    20984.331     6.943327 
   23730    532.36035   -6923.9442   -6864.5586   -137.76896    20986.361    6.9652815 
   23740    538.37606   -6924.3448   -6864.2882   -244.72768    20988.129    6.9787162 
   23750    530.11619   -6923.1476   -6864.0124   -193.48315    20989.455    6.9831268 
   23760    527.61793   -6922.5772   -6863.7206   -467.22019     20990.32    6.9825555 
   23770    540.15209   -6923.6548      -6863.4   -1154.3976    20990.117     6.982096 
   23780    541.40461   -6923.4564   -6863.0619   -1351.8594    20987.575    6.9856084 
   23790    543.67666   -6923.3728   -6862.7249   -813.92826    20982.294     6.993454 
   23800    543.48674   -6923.0089   -6862.3821   -75.460407      20975.3    7.0030299 
   23810    542.69478   -6922.5806   -6862.0421    308.82033    20968.022    7.0116371 
   23820    540.93418   -6922.0441   -6861.7021     513.6001    20961.296    7.0167356 
   23830    542.03632   -6921.8285   -6861.3635    1110.7005    20955.674    7.0187597 
   23840    539.89306    -6921.251   -6861.0251    1595.8937    20952.327    7.0224506 
   23850    557.86092   -6922.9257   -6860.6955     1430.904    20952.186    7.0307625 
   23860    574.39597   -6924.4777    -6860.403    1024.6696    20955.005     7.043577 
   23870    570.51419    -6923.836   -6860.1943    1012.6496    20960.085    7.0572604 
   23880    563.43155   -6922.9369   -6860.0853    1201.6963      20967.4    7.0651547 
   23890    564.34578   -6923.0212   -6860.0676    885.69558    20977.229    7.0671798 
   23900    563.28543   -6922.9759   -6860.1405    443.89417    20989.024     7.069427 
   23910    552.85335   -6921.9834   -6860.3118    28.720368    21001.869    7.0758016 
   23920    544.31146   -6921.2932   -6860.5744   -127.28287    21014.949    7.0872311 
   23930    553.86845   -6922.7237   -6860.9389    -188.9801    21027.893    7.1034984 
   23940     554.1843   -6923.2551    -6861.435   -105.76951    21040.612    7.1237165 
   23950    545.32225   -6922.8805    -6862.049   -270.33574    21053.188    7.1486694 
   23960    544.50526   -6923.4775   -6862.7371   -637.49287    21065.288    7.1762849 
   23970    541.18932   -6923.8206   -6863.4501   -802.00799     21076.19    7.2016505 
   23980    528.62685   -6923.0785   -6864.1094   -706.31034    21085.553    7.2196309 
   23990    529.79825   -6923.7699   -6864.6702    -915.0609    21093.421    7.2282066 
   24000    532.46636   -6924.5319   -6865.1345   -1103.6917     21099.42    7.2309453 
   24010    537.58974     -6925.49    -6865.521   -1232.4026    21103.141    7.2345852 
   24020    543.53092   -6926.5001   -6865.8684   -1197.9004    21104.281    7.2422014 
   24030    527.35428   -6925.0066   -6866.1794   -618.88971    21102.975    7.2510247 
   24040    521.68527    -6924.639   -6866.4442   -389.65631    21100.248    7.2589566 
   24050    524.44535   -6925.1665   -6866.6638   -359.06939    21096.645     7.264491 
   24060    533.52653   -6926.3751   -6866.8594   -377.59108    21092.237    7.2628309 
   24070    542.54803   -6927.5826   -6867.0606   -240.65742    21087.007    7.2513472 
   24080    527.97776   -6926.1714   -6867.2747    96.280235    21081.234    7.2338946 
   24090    509.17628    -6924.272   -6867.4727    420.03063    21075.618    7.2149012 
   24100    510.66107   -6924.5985   -6867.6335    650.08083    21070.835    7.1972823 
   24110    522.48128   -6926.0482   -6867.7647    803.90236    21067.383      7.18366 
   24120    527.38229   -6926.7204   -6867.8901     805.5636    21065.574    7.1764672 
   24130    522.08573   -6926.2556   -6868.0162    832.71383     21065.49    7.1771832 
   24140    521.87352   -6926.3535   -6868.1378    557.16424    21067.121    7.1834235 
   24150     524.6369   -6926.7785   -6868.2544    421.04245    21069.999    7.1889629 
   24160     516.5311   -6925.9851   -6868.3653    707.48343    21073.915    7.1883096 
   24170       514.45   -6925.8459   -6868.4582    554.65414    21079.309     7.179462 
   24180    530.87271   -6927.7582   -6868.5385   -190.02758    21085.851    7.1659614 
   24190    539.27428   -6928.7876   -6868.6308   -754.79053    21092.113    7.1537906 
   24200    537.82454   -6928.7581    -6868.763   -1035.7734    21096.884    7.1462324 
   24210     522.3987   -6927.1951   -6868.9208   -1112.7717    21099.549    7.1435949 
   24220    521.88235    -6927.303   -6869.0862   -1395.4003    21099.806    7.1440327 
   24230    519.42907   -6927.1908   -6869.2477   -1387.2169    21097.135     7.144968 
   24240     518.6365   -6927.2593   -6869.4046   -1170.8233    21091.508    7.1442614 
   24250    524.22918   -6928.0405   -6869.5619   -1034.4156    21083.288    7.1394375 
   24260    520.74756   -6927.8165   -6869.7263   -648.13412    21072.793    7.1292644 
   24270    514.90778   -6927.3283   -6869.8895    114.39635    21060.865     7.112927 
   24280    512.27804   -6927.1799   -6870.0345    875.26289    21049.039    7.0905573 
   24290    514.14507   -6927.5112   -6870.1575    1174.8148    21038.857    7.0645985 
   24300    511.57519   -6927.3237   -6870.2568    793.99533    21030.942    7.0387168 
   24310    515.42972   -6927.8298   -6870.3328    179.17449     21024.59    7.0141044 
   24320    510.84851   -6927.3688   -6870.3829   -23.384302    21018.639    6.9913853 
   24330    500.18901   -6926.1999   -6870.4031    118.71604    21012.641    6.9712932 
   24340    497.40691    -6925.861   -6870.3746    342.37357    21006.854    6.9523481 
   24350    504.21236   -6926.5324   -6870.2868    472.99843    21001.728    6.9329904 
   24360    507.57804   -6926.7584   -6870.1373    519.20595    20997.557    6.9144408 
   24370    515.58066   -6927.4437   -6869.9299    324.63817      20994.4    6.8979035 
   24380    527.52405   -6928.5171    -6869.671    97.313105    20991.905    6.8832727 
   24390    525.59462   -6928.0091   -6869.3782    86.200776    20989.631     6.868046 
   24400    516.64064   -6926.6864   -6869.0544    325.32396    20987.563    6.8496324 
   24410    515.19589   -6926.1548   -6868.6839     642.8924    20986.193    6.8284373 
   24420    522.64798   -6926.5686   -6868.2664    696.31125    20986.107    6.8059478 
   24430    537.04431   -6927.7274   -6867.8193    774.84147    20987.486    6.7835675 
   24440    541.01656   -6927.7307   -6867.3794    1148.2194    20990.597    6.7650578 
   24450    537.01966   -6926.8863   -6866.9809    1169.8214    20996.101    6.7550128 
   24460     530.3529   -6925.7853   -6866.6237    1056.1106     21004.12    6.7532179 
   24470    539.77883   -6926.5075   -6866.2943    815.79626    21014.431    6.7536139 
   24480    545.36882    -6926.836   -6865.9993    366.20163    21026.522    6.7516908 
   24490    544.33969   -6926.4813   -6865.7593    -200.2972    21039.489    6.7456876 
   24500    537.90172   -6925.5741   -6865.5704   -981.88427      21052.1    6.7351891 
   24510    536.72781   -6925.2932   -6865.4204   -1699.3721    21062.743    6.7230179 
   24520     546.5077   -6926.2713   -6865.3075   -1909.1774    21069.978    6.7139157 
   24530    552.46239    -6926.879    -6865.251   -1613.5192     21073.29    6.7116492 
   24540    548.33772   -6926.4291   -6865.2612   -922.39138    21073.275    6.7187198 
   24550    536.47808    -6925.167    -6865.322    -450.9024     21071.25    6.7337355 
   24560    527.96772   -6924.3033   -6865.4077   -285.61087    21068.186    6.7508745 
   24570    522.37673   -6923.7691   -6865.4972   -143.76146    21064.498    6.7642601 
   24580    522.99569   -6923.9224   -6865.5815   -227.25224    21060.449    6.7717966 
   24590    531.58666   -6924.9645   -6865.6652   -504.91619    21055.868    6.7716346 
   24600    541.95281   -6926.2194   -6865.7637   -643.22964     21050.21    6.7603289 
   24610    558.32019   -6928.1967   -6865.9153   -470.72611    21043.193    6.7391298 
   24620    553.09984   -6927.8422    -6866.143   -91.021735    21035.161    6.7171635 
   24630    544.77996   -6927.2155   -6866.4444   -163.18665     21026.79     6.701421 
   24640    538.77536   -6926.8996   -6866.7984   -374.37235    21017.999    6.6920466 
   24650    533.04987   -6926.6548   -6867.1922   -342.54436    21008.394    6.6862318 
   24660    520.32664   -6925.6441   -6867.6009    272.17438      20998.1     6.682961 
   24670    515.12575    -6925.451    -6867.988    987.91957    20988.315    6.6832664 
   24680    534.18532   -6927.9512    -6868.362    934.70537    20980.391    6.6881933 
   24690    540.66758   -6929.0617   -6868.7494    677.38517    20974.351    6.6950035 
   24700    524.51004   -6927.6414   -6869.1315    739.73686    20969.785    6.6974856 
   24710    515.34826   -6926.9548   -6869.4669    402.63208    20966.657    6.6916997 
   24720    514.67616   -6927.1484   -6869.7355   -56.116651    20964.333    6.6776675 
   24730    517.53077   -6927.6719   -6869.9405   -243.92709    20961.923    6.6618071 
   24740    518.80378   -6927.9652   -6870.0919     -172.509    20959.023    6.6557842 
   24750    521.38704   -6928.3595    -6870.198   -61.543335    20955.746    6.6657695 
   24760    522.86626   -6928.5981   -6870.2715    23.562438    20952.297    6.6865276 
   24770    514.79947   -6927.7419   -6870.3153    230.33728    20948.895    6.7078226 
   24780    515.93608   -6927.8852   -6870.3318     421.5713    20945.953    6.7223936 
   24790    519.14921   -6928.2376   -6870.3257    629.31939    20943.894    6.7304957 
   24800    522.50928   -6928.5967     -6870.31    606.08425    20943.122    6.7376924 
   24810    523.20515   -6928.6571   -6870.2928    335.28517     20943.58    6.7496897 
   24820    514.75761   -6927.6923   -6870.2703    255.73707    20944.789    6.7663529 
   24830    510.30746   -6927.1543   -6870.2287    258.73589     20946.56    6.7846211 
   24840    515.67636   -6927.6841   -6870.1596    157.48947    20948.892    6.8017288 
   24850    524.88632   -6928.6262   -6870.0743   -19.948456    20951.572    6.8157059 
   24860    531.58699   -6929.2923    -6869.993    55.607864    20954.284    6.8276807 
   24870    528.49613   -6928.8801   -6869.9256     342.1302    20957.184    6.8400043 
   24880    526.70464   -6928.6244   -6869.8697    437.72135    20960.803    6.8522489 
   24890     526.4303   -6928.5444   -6869.8203    476.79236    20965.381    6.8637646 
   24900    523.12695   -6928.1276    -6869.772    660.88427    20971.042    6.8749156 
   24910     524.4195   -6928.2177    -6869.718    847.73755     20978.15    6.8872098 
   24920    523.76244   -6928.0813   -6869.6549    898.33611    20987.124    6.9034654 
   24930    529.78533   -6928.6894    -6869.591    354.28964     20997.99    6.9252686 
   24940    533.37277   -6929.0266    -6869.528   -369.04473    21009.715    6.9536035 
   24950    535.59168   -6929.2292   -6869.4831   -995.37418    21020.783    6.9900538 
   24960    515.70158   -6926.9725   -6869.4452   -848.64307    21030.022    7.0313563 
   24970    512.30783   -6926.5462   -6869.3974   -724.65383    21037.512    7.0681286 
   24980    515.64347   -6926.8373   -6869.3165   -825.11099    21043.485    7.0940255 
   24990    524.54428   -6927.7263   -6869.2126   -976.65468    21047.767    7.1099719 
   25000    524.97686   -6927.6569   -6869.0949   -991.38317    21050.057    7.1196615 
Loop time of 15126.2 on 16 procs for 20000 steps with 864 atoms

Performance: 0.114 ns/day, 210.086 hours/ns, 1.322 timesteps/s
97.2% CPU use with 16 MPI tasks x 1 OpenMP threads

MPI task timing breakdown:
Section |  min time  |  avg time  |  max time  |%varavg| %total
---------------------------------------------------------------
Pair    | 8049.5     | 12209      | 15061      |1838.1 | 80.71
Bond    | 0.0025041  | 0.0073084  | 0.020973   |   5.5 |  0.00
Neigh   | 0.19114    | 0.27671    | 0.36523    |  10.5 |  0.00
Comm    | 61.305     | 2189.1     | 5749       |4287.9 | 14.47
Output  | 1.5701     | 1.5997     | 2.0328     |   8.8 |  0.01
Modify  | 2.055      | 726.04     | 1398.7     |2230.6 |  4.80
Other   |            | 0.1467     |            |       |  0.00

Nlocal:        54.0000 ave          71 max          35 min
Histogram: 1 2 2 1 1 1 2 2 2 2
Nghost:        482.375 ave         549 max         419 min
Histogram: 1 2 4 1 0 0 3 2 1 2
Neighs:         0.00000 ave           0 max           0 min
Histogram: 16 0 0 0 0 0 0 0 0 0
FullNghs:      2308.00 ave        3719 max        1070 min
Histogram: 3 2 1 1 2 1 1 2 1 2

Total # of neighbors = 36928
Ave neighs/atom = 42.740741
Ave special neighs/atom = 0.0000000
Neighbor list builds = 2000
Dangerous builds = 2000
unfix   3
                
Total wall time: 5:30:47
