LAMMPS (29 Sep 2021 - Update 3)
OMP_NUM_THREADS environment is not set. Defaulting to 1 thread. (src/comm.cpp:98)
  using 1 OpenMP thread(s) per MPI task
Reading data file ...
  orthogonal box = (0.0000000 0.0000000 0.0000000) to (16.534670 17.767358 74.594796)
  1 by 2 by 8 MPI processor grid
  reading atoms ...
  864 atoms
Finding 1-2 1-3 1-4 neighbors ...
  special bond factors lj:    0        0        0       
  special bond factors coul:  0        0        0       
     0 = max # of 1-2 neighbors
     0 = max # of 1-3 neighbors
     0 = max # of 1-4 neighbors
     1 = max # of special neighbors
  special bonds CPU = 0.001 seconds
  read_data CPU = 0.014 seconds
Neighbor list info ...
  update every 1 steps, delay 10 steps, check yes
  max neighbors/atom: 2000, page size: 100000
  master list distance cutoff = 6.22
  ghost atom cutoff = 6.22
  binsize = 3.11, bins = 6 6 24
  1 neighbor lists, perpetual/occasional/extra = 1 0 0
  (1) pair quip, perpetual
      attributes: full, newton on
      pair build: full/bin
      stencil: full/bin/3d
      bin: standard
Setting up Verlet run ...
  Unit style    : metal
  Current step  : 0
  Time step     : 0.001
Per MPI rank memory allocation (min/avg/max) = 8.894 | 8.906 | 8.915 Mbytes
Step Temp PotEng TotEng Press Volume c_msd[4] 
       0            0   -8413.4292   -8413.4292   -12531.916    21914.265            0 
      10    63.367096   -8420.5059   -8413.4372   -13062.757    21914.265 0.00028900792 
      20    162.23389   -8431.5423   -8413.4448   -13580.932    21914.265 0.0035442006 
      30    203.76318   -8436.1707   -8413.4406   -13263.999    21914.265  0.011998633 
      40     225.5427      -8438.6   -8413.4404   -13091.981    21914.265  0.023619499 
      50    238.39464   -8440.0352   -8413.4419   -13192.953    21914.265  0.036411648 
      60    237.91747   -8439.9798   -8413.4397    -13151.82    21914.265  0.049420327 
      70    242.25882   -8440.4649   -8413.4405   -12986.142    21914.265  0.062561747 
      80    243.33226   -8440.5825   -8413.4384   -12841.846    21914.265  0.075987004 
      90     256.1439    -8442.014   -8413.4408   -12985.089    21914.265  0.088683986 
     100    260.92723   -8442.5467   -8413.4399   -13129.532    21914.265   0.10092572 
     110    263.36735   -8442.8185   -8413.4395   -13314.209    21914.265   0.11296329 
     120    267.45703   -8443.2754   -8413.4402   -13403.997    21914.265   0.12509928 
     130    267.20277   -8443.2463   -8413.4395   -13198.457    21914.265   0.13819283 
     140    269.21359   -8443.4705   -8413.4393   -12839.711    21914.265   0.15259322 
     150     276.3754   -8444.2699   -8413.4398   -12564.061    21914.265   0.16775295 
     160    282.09052   -8444.9077   -8413.4401   -12400.914    21914.265   0.18315323 
     170    283.74907   -8445.0928   -8413.4402     -12430.3    21914.265    0.1989762 
     180    279.57367   -8444.6271   -8413.4402   -12727.353    21914.265   0.21536827 
     190    272.01519   -8443.7829   -8413.4391   -12943.608    21914.265   0.23180139 
     200    272.98877   -8443.8921   -8413.4397   -13066.814    21914.265    0.2476891 
     210    278.28656   -8444.4833     -8413.44   -13119.162    21914.265   0.26290373 
     220    281.61115   -8444.8543   -8413.4402    -13052.65    21914.265   0.27743582 
     230    283.45537   -8445.0589    -8413.439   -12948.839    21914.265   0.29133107 
     240    292.81696   -8446.1046   -8413.4404   -13016.029    21914.265    0.3048675 
     250    295.20203   -8446.3705   -8413.4402   -13077.887    21914.265   0.31931215 
     260    290.46684   -8445.8415   -8413.4394   -13040.528    21914.265   0.33532684 
     270    290.61991    -8445.858   -8413.4389   -13235.455    21914.265   0.35239777 
     280    301.25443   -8447.0456   -8413.4402   -13515.282    21914.265   0.36952956 
     290    308.28623   -8447.8304   -8413.4406   -13611.572    21914.265   0.38667041 
     300    309.20907   -8447.9319   -8413.4392   -13455.868    21914.265    0.4041006 
     310     314.5316   -8448.5273   -8413.4408   -13198.597    21914.265   0.42152557 
     320    312.09261   -8448.2546   -8413.4402   -12968.083    21914.265   0.43866959 
     330    305.84421   -8447.5573   -8413.4399   -12657.381    21914.265   0.45536472 
     340    303.20988   -8447.2632   -8413.4397   -12498.026    21914.265   0.47172581 
     350    307.13857   -8447.7018     -8413.44   -12492.368    21914.265   0.48754232 
     360    312.15901   -8448.2619   -8413.4401   -12369.505    21914.265   0.50223919 
     370     318.6847   -8448.9898     -8413.44   -12195.898    21914.265   0.51545083 
     380    326.66636   -8449.8808   -8413.4407   -12030.164    21914.265   0.52751087 
     390    328.67292   -8450.1043   -8413.4403   -11786.931    21914.265   0.53983918 
     400    329.42172   -8450.1875     -8413.44   -11529.418    21914.265   0.55338123 
     410    329.12824   -8450.1558   -8413.4411   -11363.621    21914.265   0.56856317 
     420    321.17839   -8449.2675   -8413.4396   -11329.503    21914.265   0.58578319 
     430    319.73313   -8449.1067     -8413.44   -11645.546    21914.265   0.60460993 
     440    321.87014   -8449.3455   -8413.4404   -12168.872    21914.265   0.62482739 
     450    321.69175   -8449.3257   -8413.4405   -12517.526    21914.265   0.64605131 
     460    321.58625   -8449.3131   -8413.4397   -12738.117    21914.265   0.66602281 
     470    327.73765   -8450.0009   -8413.4413    -13118.13    21914.265   0.68222539 
     480    325.78012   -8449.7811   -8413.4399   -13518.975    21914.265   0.69547134 
     490    325.26696   -8449.7242   -8413.4402   -13912.333    21914.265   0.70709849 
     500    326.02809   -8449.8096   -8413.4407    -14245.82    21914.265    0.7181905 
     510     321.8067   -8449.3384   -8413.4404   -14358.421    21914.265   0.73031831 
     520    314.82643   -8448.5595   -8413.4401   -14393.561    21914.265   0.74493886 
     530    311.55922   -8448.1945   -8413.4396    -14504.26    21914.265   0.76206346 
     540    316.52181   -8448.7487   -8413.4402   -14692.451    21914.265   0.78048733 
     550    323.45997   -8449.5224     -8413.44   -14675.954    21914.265   0.79880458 
     560    332.20295   -8450.4987   -8413.4409    -14432.97    21914.265   0.81596428 
     570    332.37528   -8450.5179   -8413.4409   -14008.452    21914.265   0.83234674 
     580    324.44532    -8449.632   -8413.4397   -13682.622    21914.265   0.84880328 
     590    322.54654   -8449.4211   -8413.4405   -13611.186    21914.265   0.86493346 
     600    320.03229     -8449.14   -8413.4399   -13618.158    21914.265   0.88136827 
     610     322.0694   -8449.3667   -8413.4393   -13770.866    21914.265   0.89972436 
     620    332.97088   -8450.5844    -8413.441   -14040.679    21914.265   0.91979176 
     630    336.52886   -8450.9806   -8413.4403   -14106.634    21914.265    0.9400978 
     640    340.63169   -8451.4378   -8413.4399   -14084.373    21914.265   0.95883362 
     650     349.6267   -8452.4431   -8413.4417   -14126.089    21914.265   0.97518253 
     660     345.3101   -8451.9607   -8413.4408    -13925.09    21914.265   0.98949595 
     670    335.30236   -8450.8431   -8413.4396   -13541.064    21914.265    1.0025057 
     680    335.35657   -8450.8495     -8413.44   -13120.509    21914.265    1.0157598 
     690    342.86707   -8451.6878   -8413.4405   -12807.122    21914.265    1.0306556 
     700    350.61517   -8452.5527    -8413.441   -12613.893    21914.265    1.0481195 
     710    351.61871   -8452.6647   -8413.4411    -12558.63    21914.265     1.067876 
     720    346.37378   -8452.0785     -8413.44   -12478.274    21914.265    1.0873947 
     730    347.79156   -8452.2373   -8413.4406   -12593.955    21914.265    1.1041491 
     740    351.02442    -8452.599   -8413.4417   -12781.856    21914.265    1.1188548 
     750    344.89782   -8451.9145   -8413.4406   -12888.282    21914.265     1.133643 
     760      340.342   -8451.4064   -8413.4407   -13050.736    21914.265    1.1491825 
     770    340.04955   -8451.3737   -8413.4407   -13326.749    21914.265    1.1643304 
     780      345.357   -8451.9656   -8413.4405   -13558.373    21914.265    1.1777023 
     790    357.12317   -8453.2788   -8413.4411   -13831.043    21914.265    1.1886997 
     800    366.64045   -8454.3407   -8413.4414   -14129.874    21914.265    1.1976392 
     810    368.68447   -8454.5688   -8413.4415   -14063.484    21914.265    1.2056605 
     820    366.60174   -8454.3361   -8413.4411   -13908.726    21914.265    1.2141717 
     830    365.85586   -8454.2531   -8413.4413   -13853.131    21914.265    1.2243585 
     840     368.4524   -8454.5423   -8413.4409   -13972.673    21914.265    1.2365636 
     850    371.87492   -8454.9262    -8413.443    -14131.16    21914.265    1.2503596 
     860     358.1746   -8453.3954   -8413.4405     -13818.7    21914.265    1.2649975 
     870    354.45705   -8452.9806   -8413.4404   -13465.958    21914.265     1.278191 
     880    366.65296   -8454.3425   -8413.4418   -13399.092    21914.265    1.2880847 
     890    376.93995   -8455.4909   -8413.4426    -13274.53    21914.265    1.2959326 
     900    375.96913   -8455.3817   -8413.4418   -13062.805    21914.265    1.3041818 
     910    374.01489   -8455.1632   -8413.4413   -12824.206    21914.265    1.3130528 
     920    378.94842   -8455.7136   -8413.4414   -12747.174    21914.265    1.3222121 
     930    388.54983   -8456.7859   -8413.4426   -12880.601    21914.265    1.3329508 
     940    389.80019   -8456.9258    -8413.443   -12981.003    21914.265    1.3457299 
     950    382.52604   -8456.1127   -8413.4413   -12918.004    21914.265    1.3587946 
     960    381.75271   -8456.0275   -8413.4424   -13120.356    21914.265    1.3710856 
     970    380.20365    -8455.854   -8413.4417   -13297.868    21914.265    1.3835601 
     980    384.06597   -8456.2848   -8413.4416    -13360.21    21914.265    1.3967998 
     990    391.39252    -8457.104   -8413.4436    -13319.56    21914.265    1.4114384 
    1000    385.55287   -8456.4508   -8413.4418   -13032.957    21914.265    1.4285977 
    1010    381.98963   -8456.0536   -8413.4421   -12900.345    21914.265    1.4480597 
    1020    382.08452   -8456.0644   -8413.4423   -12891.786    21914.265    1.4678099 
    1030    380.66666   -8455.9065   -8413.4425   -12820.478    21914.265    1.4859085 
    1040    378.02017   -8455.6107    -8413.442   -12814.774    21914.265    1.5012686 
    1050    381.70997   -8456.0224   -8413.4421   -12925.622    21914.265    1.5119118 
    1060    391.42566   -8457.1073   -8413.4432    -13146.33    21914.265    1.5173209 
    1070    396.24192   -8457.6441   -8413.4428   -13102.084    21914.265    1.5196151 
    1080    397.63032   -8457.7993    -8413.443   -12889.784    21914.265    1.5211703 
    1090    396.12759   -8457.6308   -8413.4422   -12537.537    21914.265    1.5231683 
    1100    400.33119   -8458.1002   -8413.4426   -12299.668    21914.265    1.5256834 
    1110    407.17314   -8458.8635   -8413.4428   -12099.612    21914.265    1.5296348 
    1120    413.19804   -8459.5369    -8413.444   -11926.861    21914.265    1.5369315 
    1130    409.94165   -8459.1721   -8413.4425   -11927.354    21914.265    1.5487344 
    1140    411.69689   -8459.3679   -8413.4425   -12274.932    21914.265    1.5644715 
    1150    417.92932   -8460.0654   -8413.4448   -12599.199    21914.265    1.5822789 
    1160    409.45399   -8459.1175   -8413.4423   -12608.558    21914.265    1.6004412 
    1170    405.75202   -8458.7057   -8413.4435   -12496.116    21914.265    1.6169469 
    1180    399.97271   -8458.0606    -8413.443   -12466.412    21914.265    1.6317671 
    1190    393.04741   -8457.2883   -8413.4433   -12618.331    21914.265    1.6460138 
    1200    381.93867   -8456.0489   -8413.4431   -12576.103    21914.265    1.6602667 
    1210    376.72969   -8455.4667   -8413.4419   -12745.258    21914.265    1.6726433 
    1220     387.4652   -8456.6661   -8413.4437   -13270.317    21914.265    1.6819979 
    1230    392.11995   -8457.1848   -8413.4433   -13698.725    21914.265    1.6894908 
    1240    392.35374   -8457.2109   -8413.4432   -14054.078    21914.265    1.6958816 
    1250    387.63167   -8456.6848   -8413.4439   -14383.659    21914.265    1.7022745 
    1260    377.01437   -8455.4984   -8413.4419   -14780.957    21914.265    1.7098627 
    1270    380.16106   -8455.8505   -8413.4429    -15291.91    21914.265    1.7186286 
    1280    386.65141    -8456.575   -8413.4435   -15684.863    21914.265    1.7280931 
    1290    386.45138   -8456.5524   -8413.4431   -15669.118    21914.265    1.7377267 
    1300    384.49318   -8456.3333   -8413.4425   -15192.167    21914.265    1.7465203 
    1310    389.16883   -8456.8559   -8413.4435   -14748.802    21914.265    1.7543822 
    1320    395.91985   -8457.6092   -8413.4437   -14540.669    21914.265    1.7626209 
    1330    402.24128   -8458.3144   -8413.4438   -14482.176    21914.265    1.7719127 
    1340    406.72312   -8458.8138   -8413.4433   -14593.779    21914.265    1.7822942 
    1350    413.88937   -8459.6138   -8413.4438   -14633.206    21914.265    1.7929881 
    1360    418.26368   -8460.1021   -8413.4441   -14272.723    21914.265    1.8043383 
    1370    412.53709   -8459.4628   -8413.4437   -13640.472    21914.265    1.8173742 
    1380    404.03017    -8458.513   -8413.4428   -13053.663    21914.265    1.8314414 
    1390    402.11865   -8458.3013   -8413.4444   -12796.252    21914.265    1.8446224 
    1400    396.75786   -8457.7017   -8413.4428   -12890.081    21914.265    1.8555613 
    1410     401.1626   -8458.1945   -8413.4442   -13251.623    21914.265    1.8625402 
    1420    405.53922    -8458.683   -8413.4445   -13540.901    21914.265    1.8651673 
    1430    404.12534   -8458.5245   -8413.4437   -13662.885    21914.265    1.8648977 
    1440    405.72045   -8458.7027    -8413.444   -13771.634    21914.265    1.8643414 
    1450    406.67484   -8458.8092    -8413.444   -13873.149    21914.265    1.8661066 
    1460    406.94702   -8458.8395   -8413.4439   -13898.845    21914.265    1.8707341 
    1470    405.99802   -8458.7335   -8413.4438    -13583.81    21914.265    1.8783175 
    1480    405.25435   -8458.6503   -8413.4436   -13097.342    21914.265    1.8881067 
    1490    408.19865    -8458.979   -8413.4439   -12662.726    21914.265    1.8977467 
    1500    414.56579   -8459.6887   -8413.4433   -12296.863    21914.265    1.9065246 
    1510    429.03716   -8461.3044   -8413.4447   -11735.577    21914.265    1.9156573 
    1520    435.43303   -8462.0188   -8413.4456   -11140.275    21914.265    1.9269758 
    1530    420.46896   -8460.3486   -8413.4446     -10759.3    21914.265    1.9420002 
    1540    404.55727   -8458.5707   -8413.4417   -10562.297    21914.265    1.9594173 
    1550     414.5371   -8459.6878   -8413.4456   -10873.945    21914.265    1.9756145 
    1560    415.64167   -8459.8093   -8413.4438    -11180.84    21914.265    1.9896674 
    1570    417.51903   -8460.0192   -8413.4444   -11574.862    21914.265      2.00287 
    1580    420.71133   -8460.3754   -8413.4444   -12084.028    21914.265    2.0173903 
    1590    422.23753   -8460.5459   -8413.4446   -12650.323    21914.265    2.0354221 
    1600    420.26548   -8460.3254   -8413.4441   -13157.964    21914.265    2.0567995 
    1610    418.97614   -8460.1816   -8413.4442   -13379.664    21914.265    2.0784503 
    1620    422.99101    -8460.629   -8413.4437   -13476.483    21914.265    2.0978277 
    1630    431.41255   -8461.5707    -8413.446   -13473.665    21914.265     2.115193 
    1640    426.28653   -8460.9963   -8413.4434   -13430.412    21914.265    2.1338075 
    1650    431.13487   -8461.5387    -8413.445   -13658.596    21914.265       2.1559 
    1660    436.17822   -8462.1019   -8413.4456   -13638.641    21914.265    2.1797337 
    1670    428.12023   -8461.2022   -8413.4447   -13252.346    21914.265    2.2035441 
    1680    422.66155   -8460.5919   -8413.4434   -13022.696    21914.265    2.2262152 
    1690    430.34848   -8461.4521    -8413.446   -12966.155    21914.265    2.2464937 
    1700    426.21611   -8460.9896   -8413.4446   -12849.343    21914.265    2.2649593 
    1710    421.63281   -8460.4781   -8413.4443    -12902.06    21914.265    2.2822078 
    1720    425.52952   -8460.9136   -8413.4451   -13254.993    21914.265    2.2992296 
    1730    433.21398   -8461.7705   -8413.4448   -13760.925    21914.265    2.3170264 
    1740    441.86781   -8462.7372   -8413.4461   -14050.542    21914.265    2.3352522 
    1750    438.27813    -8462.336   -8413.4454   -13921.401    21914.265    2.3528289 
    1760    429.17186   -8461.3192   -8413.4444   -13408.002    21914.265    2.3694072 
    1770    428.81898   -8461.2807   -8413.4453    -12917.73    21914.265    2.3858611 
    1780    433.34916   -8461.7857    -8413.445   -12638.931    21914.265    2.4026666 
    1790     441.0669   -8462.6474   -8413.4457   -12705.172    21914.265     2.419074 
    1800    447.24535   -8463.3359    -8413.445   -12842.309    21914.265    2.4345236 
    1810    451.04914   -8463.7611   -8413.4459   -13058.485    21914.265    2.4502124 
    1820    445.08252   -8463.0941   -8413.4445   -13035.825    21914.265    2.4671851 
    1830    441.70858   -8462.7187   -8413.4454   -12922.342    21914.265    2.4853863 
    1840    432.65555   -8461.7082   -8413.4449   -13058.866    21914.265    2.5046773 
    1850    428.24526   -8461.2146   -8413.4432   -13494.155    21914.265    2.5239509 
    1860    442.70809   -8462.8312   -8413.4464     -14052.9    21914.265    2.5417036 
    1870    445.34398   -8463.1238   -8413.4451   -14177.248    21914.265    2.5577578 
    1880    449.56383   -8463.5931   -8413.4436   -14088.107    21914.265    2.5732932 
    1890    469.70151   -8465.8424   -8413.4465   -13965.821    21914.265    2.5900107 
    1900    475.61979   -8466.5029   -8413.4468   -13338.709    21914.265    2.6092547 
    1910    460.77113   -8464.8444   -8413.4447   -12266.897    21914.265    2.6300063 
    1920    453.29076   -8464.0097   -8413.4444   -11600.031    21914.265    2.6488623 
    1930    455.01355   -8464.2038   -8413.4464   -11532.276    21914.265     2.664581 
    1940    446.57627   -8463.2611   -8413.4448   -11610.068    21914.265    2.6787843 
    1950    442.24787   -8462.7779   -8413.4445    -12067.88    21914.265     2.691974 
    1960    445.34565   -8463.1243   -8413.4453   -12574.104    21914.265    2.7033659 
    1970     445.3849   -8463.1293   -8413.4459   -12683.518    21914.265    2.7130116 
    1980    438.45896   -8462.3558    -8413.445   -12521.804    21914.265    2.7223802 
    1990    435.82997    -8462.062   -8413.4445   -12590.151    21914.265    2.7312795 
    2000    445.20858   -8463.1089   -8413.4452   -13039.215    21914.265    2.7384799 
Loop time of 1115.89 on 16 procs for 2000 steps with 864 atoms

Performance: 0.155 ns/day, 154.985 hours/ns, 1.792 timesteps/s
97.3% CPU use with 16 MPI tasks x 1 OpenMP threads

MPI task timing breakdown:
Section |  min time  |  avg time  |  max time  |%varavg| %total
---------------------------------------------------------------
Pair    | 355.38     | 612.9      | 1091.5     | 888.3 | 54.92
Bond    | 0.0001502  | 0.00023296 | 0.0003314  |   0.0 |  0.00
Neigh   | 0.017139   | 0.029162   | 0.053703   |   6.5 |  0.00
Comm    | 23.532     | 441.19     | 653.49     | 966.7 | 39.54
Output  | 0.80785    | 42.294     | 93.52      | 540.1 |  3.79
Modify  | 0.0084767  | 0.0095714  | 0.011001   |   0.7 |  0.00
Other   |            | 19.48      |            |       |  1.75

Nlocal:        54.0000 ave          84 max          36 min
Histogram: 3 3 4 0 0 2 1 0 1 2
Nghost:        477.750 ave         592 max         348 min
Histogram: 2 0 2 1 3 3 1 0 0 4
Neighs:         0.00000 ave           0 max           0 min
Histogram: 16 0 0 0 0 0 0 0 0 0
FullNghs:      2234.12 ave        4892 max        1038 min
Histogram: 5 5 0 0 2 0 2 0 0 2

Total # of neighbors = 35746
Ave neighs/atom = 41.372685
Ave special neighs/atom = 0.0000000
Neighbor list builds = 199
Dangerous builds = 198
Setting up Verlet run ...
  Unit style    : metal
  Current step  : 2000
  Time step     : 0.001
Per MPI rank memory allocation (min/avg/max) = 8.894 | 8.907 | 8.916 Mbytes
Step Temp PotEng TotEng Press Volume c_msd[4] 
    2000          375   -8463.1089   -8421.2771   -13420.946    21914.265    2.7384799 
    2010    385.08586   -8464.5323   -8421.5754   -13426.228    21892.589    2.7352611 
    2020    399.86825   -8467.0275   -8422.4216   -12538.995    21828.222    2.7274589 
    2030    415.43905   -8470.0168   -8423.6739   -10785.341     21724.84    2.7169061 
    2040    422.27372    -8472.201   -8425.0957   -8056.6154    21590.152    2.7055807 
    2050    428.14476   -8474.2167   -8426.4565   -5110.0261    21436.008    2.6956202 
    2060    431.60941    -8475.757   -8427.6103   -2022.0025    21275.965    2.6891536 
    2070     422.6417   -8475.6004    -8428.454    809.58091    21123.291    2.6858118 
    2080    428.53342   -8476.8206   -8429.0171    2776.4028    20988.516    2.6827442 
    2090    439.80119   -8478.5017   -8429.4412    3456.2449    20877.117     2.679083 
    2100    447.38734   -8479.7572   -8429.8505    2941.5864    20788.994    2.6759709 
    2110     454.2308   -8480.9875   -8430.3173    1901.4838    20720.078     2.674097 
    2120    455.74023   -8481.6962   -8430.8577    792.58671    20664.991    2.6737811 
    2130    460.19881   -8482.8183   -8431.4824   -521.70778    20618.634     2.676647 
    2140    460.61038   -8483.5897   -8432.2079   -1940.5952    20576.077     2.684085 
    2150    456.22618   -8483.9162   -8433.0235   -2645.3067     20532.94    2.6951802 
    2160    453.02334   -8484.4227   -8433.8873   -2576.0958    20487.032    2.7074094 
    2170    447.71686   -8484.7079   -8434.7644   -2053.1601    20438.378    2.7190201 
    2180    440.90944   -8484.7979   -8435.6138   -1273.7528    20388.248     2.730119 
    2190    444.86792   -8486.0549   -8436.4292   -491.56588    20338.504    2.7422201 
    2200    451.34581    -8487.599   -8437.2506    351.13516    20290.975    2.7561918 
    2210    449.65336   -8488.2556   -8438.0961    1140.6348    20247.494    2.7713257 
    2220    445.04459    -8488.604   -8438.9586    1698.9686    20209.648    2.7859743 
    2230    438.88746    -8488.769   -8439.8104    2135.4751    20178.467    2.7978528 
    2240    444.69529   -8490.2587   -8440.6523     2565.228    20154.655    2.8057413 
    2250    448.07305   -8491.4972    -8441.514    2836.7526    20138.822    2.8121683 
    2260    435.89722   -8491.0015   -8442.3765    2935.1737    20131.273    2.8200106 
    2270    438.10376   -8492.1002   -8443.2291    2355.4752     20131.68    2.8292678 
    2280    453.12399   -8494.6659   -8444.1192    1320.6533    20138.182    2.8386393 
    2290    446.81973   -8494.8964    -8445.053    545.26178    20147.982    2.8479722 
    2300    431.04006   -8494.0562    -8445.973   -37.008587    20158.872    2.8570539 
    2310    423.87323   -8494.1289   -8446.8452   -582.59754    20169.228    2.8671916 
    2320    423.97865   -8494.9775   -8447.6821   -897.51864    20177.663    2.8815094 
    2330     414.5532   -8494.7307   -8448.4866   -962.92092    20183.445    2.9010643 
    2340    414.52363   -8495.4972   -8449.2565   -1139.0243    20186.398     2.921968 
    2350    421.59059   -8497.0589   -8450.0298   -1222.4808    20186.216    2.9400744 
    2360    412.19396   -8496.7759    -8450.795   -908.32169    20182.862    2.9549636 
    2370     406.6012   -8496.8862   -8451.5292   -550.71565    20177.193    2.9677971 
    2380     411.2166   -8498.1167   -8452.2448   -249.74498    20170.273    2.9806513 
    2390    415.44816   -8499.3091   -8452.9652    198.75861    20163.034     2.995555 
    2400    409.42983   -8499.3649   -8453.6924    716.29388    20156.633    3.0138999 
    2410    398.10479   -8498.8098   -8454.4006    1224.3775    20152.427    3.0350963 
    2420    400.35796   -8499.7532   -8455.0927    1319.0892    20151.548    3.0555958 
    2430    402.03336   -8500.6292   -8455.7818    1319.8038    20154.201    3.0724772 
    2440    397.85103   -8500.8409     -8456.46    898.93854    20160.166    3.0858158 
    2450    403.85197   -8502.1788   -8457.1285   -190.12457    20168.133    3.0978105 
    2460    414.94559   -8504.1064   -8457.8186   -1240.9085    20175.311    3.1117424 
    2470    418.99069   -8505.2861   -8458.5471   -1894.1963    20178.981    3.1311923 
    2480    406.57145   -8504.6376    -8459.284   -1837.1436    20177.624    3.1573359 
    2490    389.41999   -8503.4098   -8459.9695   -1539.5083    20171.465    3.1853829 
    2500    383.63151   -8503.3882   -8460.5936   -1371.9697     20161.42     3.209167 
    2510    386.09142    -8504.244   -8461.1749   -1273.1257    20148.128     3.226746 
    2520    386.19597   -8504.8144   -8461.7336   -1066.6448    20132.028    3.2394508 
    2530    377.13327   -8504.3283   -8462.2586   -530.34685    20113.859     3.250547 
    2540    374.47066   -8504.5082   -8462.7355    49.236449    20095.091    3.2634407 
    2550    383.81474   -8506.0012   -8463.1861    482.89812    20077.221    3.2792752 
    2560    382.49401   -8506.2957   -8463.6279    1103.1861     20061.42    3.2962307 
    2570    373.98949   -8505.7677   -8464.0486    1951.4324    20049.272    3.3122573 
    2580    378.01585   -8506.6198   -8464.4515    2487.8957    20042.722    3.3265601 
    2590    387.48431   -8508.0885    -8464.864    2688.6541     20042.95    3.3382594 
    2600    394.34793   -8509.2988   -8465.3087    2495.1217    20050.185    3.3474989 
    2610    399.58415   -8510.3692    -8465.795     1994.023    20063.685     3.357193 
    2620    392.87367   -8510.1381   -8466.3124    1389.0811    20081.933    3.3706782 
    2630    377.37418   -8508.9142   -8466.8175    901.36642    20103.244    3.3883041 
    2640     375.9358   -8509.2247   -8467.2885    267.15827    20126.143    3.4080183 
    2650    379.68518   -8510.0851   -8467.7307   -527.19525    20148.889    3.4286829 
    2660    381.70276   -8510.7364   -8468.1569   -1345.2313      20169.4      3.44929 
    2670    376.95236   -8510.6216    -8468.572   -1849.8014    20185.652    3.4679746 
    2680    371.81653   -8510.4489   -8468.9722   -2027.8326     20196.45    3.4852619 
    2690     372.7893   -8510.9417   -8469.3565    -2006.447    20201.467     3.504713 
    2700    377.93567    -8511.891   -8469.7317   -1865.5312    20200.951    3.5279043 
    2710    381.68899   -8512.6853   -8470.1073   -1634.7603    20195.462    3.5519422 
    2720    378.54661   -8512.7117   -8470.4843   -1039.8995    20185.879    3.5732125 
    2730     372.9978   -8512.4557   -8470.8473   -323.08533    20173.892    3.5904569 
    2740    377.67563    -8513.325   -8471.1947    198.61951     20161.44    3.6052645 
    2750     379.0538   -8513.8183   -8471.5343    505.52774    20149.953     3.620947 
    2760    378.60771    -8514.103   -8471.8688    581.97089    20140.186    3.6394136 
    2770    376.45169   -8514.1927   -8472.1989    790.09841    20132.353    3.6602289 
    2780    370.41203   -8513.8365   -8472.5165    1099.6839    20126.947    3.6810218 
    2790    366.09774   -8513.6523   -8472.8136    1245.5055    20124.626    3.6996113 
    2800    361.42297   -8513.3956   -8473.0784    1176.5137    20125.656    3.7145899 
    2810    369.56237   -8514.5438   -8473.3186    757.00382    20129.704    3.7253534 
    2820    370.03472   -8514.8243   -8473.5464    577.02654    20135.689    3.7330129 
    2830    365.03914   -8514.4827    -8473.762    665.58402    20143.072    3.7395128 
    2840    369.72564   -8515.2046   -8473.9612    621.77552    20151.951    3.7464307 
    2850    369.62207   -8515.3694   -8474.1375    677.54002    20162.231    3.7546742 
    2860    379.64412   -8516.6488    -8474.299    463.57198    20173.924    3.7643924 
    2870    400.78293    -8519.191   -8474.4831   -162.64364    20186.388    3.7750276 
    2880    394.83402   -8518.7609   -8474.7165   -591.33778    20198.073    3.7864615 
    2890    386.17989   -8518.0685   -8474.9896   -997.79172    20207.779    3.7992147 
    2900    388.31076   -8518.6025   -8475.2859    -1381.841    20214.485    3.8114899 
    2910    389.56127   -8519.0684   -8475.6122   -1522.2028    20217.301    3.8199354 
    2920    378.71097   -8518.2047   -8475.9589   -1287.5043    20216.011    3.8244158 
    2930      370.935   -8517.6745   -8476.2961   -1047.6463    20211.321    3.8266045 
    2940    376.64814   -8518.6368   -8476.6211   -1097.5697    20203.897    3.8280291 
    2950    377.17836   -8519.0185   -8476.9437   -1321.8863    20193.688    3.8301715 
    2960    372.08413   -8518.7732   -8477.2667   -1323.1325    20180.313    3.8340996 
    2970    364.64585    -8518.252   -8477.5752   -1014.3497    20163.915    3.8407584 
    2980    364.51402    -8518.524   -8477.8619   -805.92273    20145.272    3.8516954 
    2990    366.98324    -8519.066   -8478.1285   -534.73483    20125.067    3.8684129 
    3000    367.17277   -8519.3297    -8478.371   -135.91283    20104.123    3.8889961 
    3010    369.93036   -8519.8541   -8478.5879    323.37475    20083.512    3.9101261 
    3020    371.09025   -8520.1854   -8478.7897    901.44983    20064.449    3.9309105 
    3030    369.97902   -8520.2604   -8478.9887    1459.4022    20048.403    3.9525767 
    3040    369.05489   -8520.3501   -8479.1815    1783.3123    20036.695    3.9772313 
    3050    369.79578   -8520.5963   -8479.3451    1967.8927    20030.073    4.0061018 
    3060    368.27182   -8520.5467   -8479.4654    2116.9432    20028.902    4.0391696 
    3070    370.74812   -8520.9132   -8479.5557    1867.7491    20033.245    4.0758163 
    3080     379.9041   -8522.0217   -8479.6428    1314.0072    20042.304       4.1152 
    3090    381.93769   -8522.3503   -8479.7445    576.36602    20054.491    4.1558112 
    3100    382.56789   -8522.5425   -8479.8664   -240.53169    20067.772    4.1936527 
    3110    379.20133   -8522.3028   -8480.0023   -1095.7675    20079.942    4.2238366 
    3120    385.35509   -8523.1365   -8480.1496   -1855.1395    20088.806     4.243598 
    3130    400.15582   -8524.9789   -8480.3409    -2318.522    20092.498    4.2522259 
    3140    388.05699   -8523.8833   -8480.5949     -1981.15    20090.096    4.2511232 
    3150    377.52718   -8522.9912   -8480.8774   -1284.3639    20082.625    4.2441453 
    3160    388.73598   -8524.5356   -8481.1715   -829.94136    20071.929    4.2363108 
    3170    394.34682   -8525.4816   -8481.4916   -251.43913    20059.438    4.2302911 
    3180    390.14505   -8525.3644   -8481.8431    168.84737    20046.654    4.2243114 
    3190    381.48546   -8524.7607   -8482.2054    617.65226    20034.783    4.2169033 
    3200    379.61463   -8524.9064   -8482.5599    818.67593    20024.905    4.2100329 
    3210    383.14381   -8525.6503     -8482.91    447.35343    20017.393    4.2058966 
    3220    386.85686   -8526.4227   -8483.2682   -155.52074    20011.268    4.2049092 
    3230    381.43976   -8526.1872    -8483.637    -456.8557    20005.005    4.2053451 
    3240    368.00402   -8525.0412   -8483.9898   -540.22009    19997.788    4.2032008 
    3250    363.19937   -8524.8211   -8484.3056   -654.86846    19989.356     4.193662 
    3260    367.90713   -8525.6216    -8484.581   -544.29333     19979.52    4.1754547 
    3270    371.04077   -8526.2157   -8484.8256   -145.18139    19968.619    4.1538585 
    3280     364.8062   -8525.7331   -8485.0385    706.35616    19957.806    4.1355249 
    3290    364.53977   -8525.8876   -8485.2227     1341.698     19949.14    4.1255022 
    3300    367.30149   -8526.3625   -8485.3895    1485.2456    19944.167    4.1258206 
    3310    366.13421   -8526.3854   -8485.5426    1286.7197    19943.196    4.1336373 
    3320    365.08106    -8526.406   -8485.6806    497.63584    19945.497    4.1443581 
    3330    363.45563   -8526.3391   -8485.7951   -353.49245    19949.043    4.1536576 
    3340      367.879   -8526.9235    -8485.886   -981.46652    19951.597      4.15907 
    3350     374.2015   -8527.7102   -8485.9675   -1255.5222    19951.572    4.1624558 
    3360    369.43273   -8527.2598    -8486.049   -977.54696    19948.389    4.1679493 
    3370      368.244   -8527.1996   -8486.1215   -481.22544    19942.798    4.1780053 
    3380     377.0186    -8528.234    -8486.177   -193.66049    19936.053    4.1932399 
    3390    383.70838    -8529.033   -8486.2297    40.833622    19929.001    4.2134341 
    3400    381.80354   -8528.8895   -8486.2987   -201.28913    19922.151    4.2363094 
    3410    381.98942   -8529.0031   -8486.3916   -874.91446    19914.886    4.2590109 
    3420    392.98624   -8530.3596   -8486.5214   -1850.2899    19905.443    4.2796879 
    3430    386.66975   -8529.8338   -8486.7002   -2436.1735    19891.513    4.2962007 
    3440    368.97023   -8528.0613   -8486.9021   -2274.0989    19871.816    4.3089733 
    3450    376.20088   -8529.0649   -8487.0991   -1894.1275    19846.822    4.3197206 
    3460    386.59372   -8530.4261    -8487.301    -1263.043    19817.709    4.3294035 
    3470    387.64158   -8530.7633   -8487.5213   -348.84775    19786.295    4.3397584 
    3480    391.53743   -8531.4462   -8487.7696    330.43515    19754.914      4.35319 
    3490    398.09091   -8532.4631   -8488.0554    760.49242    19725.339    4.3693336 
    3500    398.02157    -8532.785    -8488.385    1182.2223    19698.678    4.3876874 
    3510    391.80297    -8532.451   -8488.7448    1518.7213    19675.882    4.4111867 
    3520    391.38732   -8532.7862   -8489.1263     1467.098    19657.632    4.4417251 
    3530    384.35304   -8532.3931    -8489.518    1168.1563    19643.692    4.4775524 
    3540    375.46677   -8531.7892   -8489.9053     776.0077    19633.155    4.5160583 
    3550    379.46109   -8532.6081   -8490.2786    379.91805    19624.941    4.5565669 
    3560    393.62034   -8534.5708   -8490.6618    5.4996822    19617.979    4.5999837 
    3570    390.37058   -8534.6068   -8491.0603   -340.87366    19611.301    4.6483808 
    3580    382.11798   -8534.0739    -8491.448    -998.1869    19603.914    4.7020182 
    3590    379.17786    -8534.098   -8491.8002   -1594.8011    19594.254     4.757572 
    3600    377.65567   -8534.2426   -8492.1146   -1507.0093    19581.113    4.8101252 
    3610    381.30074   -8534.9404   -8492.4058   -1159.1885    19564.764    4.8562068 
    3620    389.08574   -8536.1041    -8492.701   -893.19703    19546.182     4.894913 
    3630    394.31581   -8537.0057   -8493.0192   -920.08332    19526.129    4.9260498 
    3640    404.73828   -8538.5333   -8493.3842   -1279.4588    19504.601    4.9503354 
    3650    400.52492   -8538.4851   -8493.8059   -1269.2105    19480.938    4.9722342 
    3660    382.09782   -8536.8518   -8494.2282   -604.18319     19455.37    4.9959666 
    3670    383.87914   -8537.4331   -8494.6108    94.950706    19429.539    5.0210165 
    3680    395.08484   -8539.0408   -8494.9685    585.26152    19405.136    5.0476471 
    3690    399.19042     -8539.84   -8495.3098    1022.2903    19383.377    5.0756788 
    3700    413.43282   -8541.7858   -8495.6668    1149.7605    19365.142    5.1006186 
    3710    417.18574   -8542.6216   -8496.0839    1078.3407    19350.576     5.117879 
    3720    398.05186   -8540.9434   -8496.5402    1228.2272    19339.423    5.1278322 
    3730    380.14516   -8539.3736   -8496.9678    1480.3456    19331.856    5.1347689 
    3740    376.89297    -8539.385    -8497.342    1165.2752    19328.143    5.1433572 
    3750    380.90686   -8540.1591   -8497.6684    612.13567    19327.391     5.157241 
    3760    390.52073   -8541.5387   -8497.9755    266.34458    19328.195    5.1772609 
    3770    387.19893   -8541.4785   -8498.2859    318.02173    19329.723    5.2031086 
    3780    376.29363   -8540.5777   -8498.6016    641.22306    19332.071    5.2340881 
    3790    371.76505   -8540.3811   -8498.9101      959.709     19335.92    5.2681349 
    3800    376.99526   -8541.2581   -8499.2037    755.78586    19341.851    5.3034878 
    3810     389.3073   -8542.9191   -8499.4913    169.14046    19349.297    5.3405153 
    3820    385.62981   -8542.7913   -8499.7737    109.32832    19356.992    5.3824167 
    3830    378.41841   -8542.2532     -8500.04    98.112598    19364.645    5.4280867 
    3840    384.60488   -8543.2001   -8500.2968   -343.98072    19372.118    5.4725942 
    3850    395.13483    -8544.646   -8500.5681   -991.71382    19378.377    5.5132035 
    3860    394.78727   -8544.9179   -8500.8788   -1317.1896     19382.01    5.5489914 
    3870    384.35874   -8544.0961   -8501.2203   -1201.2154    19382.344    5.5809661 
    3880    370.21817   -8542.8545   -8501.5561   -800.99024    19379.776    5.6117345 
    3890    366.70689   -8542.7649   -8501.8582   -433.38743    19375.342    5.6436896 
    3900    375.12259    -8543.976   -8502.1305   -237.88128    19369.993    5.6793614 
    3910    380.71174   -8544.8583   -8502.3893   -159.01558    19364.264    5.7193786 
    3920    379.05802   -8544.9175    -8502.633   -349.54889    19358.302    5.7598824 
    3930    384.50298   -8545.7509    -8502.859   -781.47649    19351.669    5.7938823 
    3940    395.26953   -8547.1918   -8503.0989   -1314.2159    19343.344    5.8179516 
    3950     395.9479   -8547.5501   -8503.3815   -1203.2825    19332.266     5.833061 
    3960    388.82369   -8547.0735   -8503.6997   -617.46406    19318.765    5.8419727 
    3970    383.80388   -8546.8412   -8504.0273   -245.25799     19304.22    5.8493361 
    3980    389.32149   -8547.7845   -8504.3551    -263.7668    19289.563    5.8590868 
    3990    397.28584   -8549.0199    -8504.702   -424.30937    19274.784    5.8721794 
    4000     396.0148     -8549.24   -8505.0639   -645.54756    19259.512    5.8889091 
    4010    404.35872   -8550.5607   -8505.4539   -1069.4399     19243.19    5.9075916 
    4020    395.08275   -8549.9364   -8505.8643   -1162.8835    19224.965    5.9246242 
    4030    387.94663   -8549.5411   -8506.2651   -1170.4265    19204.607    5.9353725 
    4040    393.37832   -8550.5332   -8506.6513   -1247.1374    19182.143    5.9375399 
    4050    399.13052    -8551.562   -8507.0384   -1331.0272    19157.487    5.9318547 
    4060    406.88544   -8552.8299   -8507.4412   -1254.5898     19130.58    5.9208114 
    4070    417.47033   -8554.4487   -8507.8793   -970.55207    19101.681    5.9089485 
    4080    414.70373   -8554.6108     -8508.35    -228.9081    19071.658     5.901955 
    4090    407.17413   -8554.2482   -8508.8273    474.56524    19042.225     5.901507 
    4100    404.04728   -8554.3656   -8509.2935    709.29319    19014.952    5.9039329 
    4110     411.8677   -8555.7057   -8509.7612    280.02371    18990.251    5.9059455 
    4120    426.67392    -8557.859   -8510.2629    -9.916547    18967.196     5.908382 
    4130    434.02562   -8559.2385   -8510.8223    112.27547    18945.086    5.9148546 
    4140     431.0524   -8559.5137   -8511.4291    370.95599    18924.096    5.9295041 
    4150    425.42242   -8559.5096   -8512.0531    217.70164    18904.636    5.9521101 
    4160    432.28127   -8560.9044   -8512.6828   -233.52416    18886.363     5.978384 
    4170    441.32019   -8562.5708   -8513.3409   -748.39959    18868.207    6.0021411 
    4180    437.78159   -8562.8607   -8514.0255   -735.63077    18849.102    6.0169627 
    4190     438.3964   -8563.6215   -8514.7177   -357.06019    18829.087     6.023339 
    4200    446.76739   -8565.2727   -8515.4351    10.118429    18808.994    6.0295891 
    4210    444.32638   -8565.7504   -8516.1852     3.020019    18789.593    6.0420239 
    4220    444.73009   -8566.5599   -8516.9496   -262.20109    18770.873    6.0570353 
    4230    449.46546   -8567.8809   -8517.7423   -227.27874    18752.312    6.0675656 
    4240    434.41812   -8566.9979   -8518.5379    259.86821    18734.026    6.0707812 
    4250    421.82547   -8566.3498   -8519.2945    446.20136    18716.955    6.0690027 
    4260    422.94002   -8567.2062   -8520.0266   -116.45505    18701.367     6.064704 
    4270    424.58863     -8568.12   -8520.7565   -387.27542    18686.156    6.0573925 
    4280    423.35835   -8568.7073    -8521.481   -252.90014    18670.665    6.0475361 
    4290     421.8216   -8569.2594   -8522.2046    181.05354    18655.205    6.0385197 
    4300    406.62696   -8568.2649   -8522.9051    800.01523    18640.785    6.0366115 
    4310    406.93387   -8568.9657   -8523.5716    717.36087    18628.571    6.0467907 
    4320    420.95659   -8571.2091   -8524.2508    107.35215    18618.339    6.0671071 
    4330    424.89029   -8572.3581   -8524.9609   -538.39168    18608.709    6.0907376 
    4340    424.13465   -8573.0057   -8525.6928   -713.79862    18598.314    6.1119186 
    4350    415.52971   -8572.7737   -8526.4207   -706.43049      18586.7     6.129295 
    4360    411.90083   -8573.0744   -8527.1263    -890.0581    18573.849    6.1442944 
    4370    409.26597   -8573.4716   -8527.8174   -1124.5091    18559.416    6.1596581 
    4380    402.62609   -8573.4014   -8528.4878   -1049.5757    18543.027    6.1759213 
    4390    395.94006   -8573.2989   -8529.1312    -857.2183    18524.864    6.1900036 
    4400    391.44699   -8573.3916   -8529.7251   -410.22799    18505.487     6.198205 
    4410    410.40048   -8576.0862   -8530.3054   -6.3104576    18485.863    6.2004681 
    4420    414.14434   -8577.1137   -8530.9153    872.74046    18467.033    6.2002004 
    4430    407.09072   -8576.9485   -8531.5369     1851.004    18450.869    6.1998324 
    4440    412.09613   -8578.1493   -8532.1794    2312.1256    18439.325    6.2016351 
    4450     397.8257    -8577.212   -8532.8339    2368.9044     18433.28    6.2084256 
    4460     385.5433   -8576.4533   -8533.4454    1855.2197    18432.655    6.2204374 
    4470    397.46594    -8578.369   -8534.0311    632.56598    18436.029    6.2344837 
    4480     396.2576   -8578.8054   -8534.6023   -36.631853    18440.847    6.2462267 
    4490    398.09062   -8579.5757   -8535.1681   -655.26717    18445.409    6.2554144 
    4500    396.43645   -8579.9569   -8535.7338    -1054.441     18448.42    6.2662488 
    4510    394.77642   -8580.3314   -8536.2935   -1329.7969    18449.004    6.2807546 
    4520    397.89753   -8581.2433   -8536.8572   -1265.5456    18446.651    6.2967993 
    4530    387.59012   -8580.6407   -8537.4045   -490.19405    18441.736    6.3112998 
    4540    392.07046   -8581.6662   -8537.9301   -171.54488    18435.776    6.3238971 
    4550    398.79018   -8582.9454   -8538.4598   -239.94781    18429.534    6.3378337 
    4560    397.87168   -8583.3851   -8539.0019   -222.10798    18422.974    6.3548918 
    4570     395.2979   -8583.6473   -8539.5513     7.660853    18416.144    6.3745224 
    4580    392.42099    -8583.877   -8540.1019    170.42346    18409.495    6.3959438 
    4590    392.79575   -8584.4703   -8540.6533   -46.022269    18403.343    6.4207342 
    4600     401.9813   -8586.0671   -8541.2255   -414.10149    18397.259    6.4520541 
    4610    401.98172   -8586.6787    -8541.837   -521.18199    18390.486    6.4914754 
    4620     394.0525   -8586.4159   -8542.4587   -386.06656    18382.813    6.5382473 
    4630    398.24193   -8587.4956   -8543.0711   -92.487652    18374.541    6.5909136 
    4640    404.29401   -8588.7807   -8543.6811    393.53377    18366.342    6.6488389 
    4650    397.37341   -8588.6149   -8544.2873     593.3346    18359.219    6.7111182 
    4660    381.47352   -8587.4107   -8544.8568    287.37222    18353.553    6.7747014 
    4670    378.20986   -8587.5646   -8545.3747   -600.78577    18348.585    6.8372055 
    4680    385.66653   -8588.8826   -8545.8609   -1487.2473    18342.453    6.8978847 
    4690    394.32534   -8590.3352   -8546.3476   -1979.9378    18333.298    6.9563647 
    4700    391.62272   -8590.5381    -8546.852   -1700.7498    18320.246    7.0128995 
    4710    380.57358   -8589.7976   -8547.3441   -655.96218    18304.101    7.0666432 
    4720    385.51531   -8590.8116   -8547.8068    152.76842    18287.058    7.1160239 
    4730    394.08471     -8592.22   -8548.2593    451.01243    18270.929    7.1616742 
    4740     399.2535   -8593.2602   -8548.7228    238.27677    18256.329    7.2058964 
    4750     405.6985   -8594.4667   -8549.2104    51.776281    18242.824    7.2491543 
    4760     406.7893    -8595.113    -8549.735    250.56023    18230.027    7.2887657 
    4770    398.41938   -8594.7219   -8550.2776    879.93423    18218.372    7.3236427 
    4780    401.95354   -8595.6673   -8550.8288    1165.0972    18209.011    7.3544452 
    4790    405.97869   -8596.6908   -8551.4033    1145.9024    18202.499     7.380396 
    4800    403.77215    -8597.039   -8551.9976    909.29313    18198.684    7.4006423 
    4810     405.9595   -8597.8889   -8552.6035    632.06802    18196.984    7.4161796 
    4820    404.54202   -8598.3437   -8553.2164    482.76365     18196.75    7.4287762 
    4830    406.42677   -8599.1691   -8553.8316     534.6183     18197.61    7.4401045 
    4840    408.75592   -8600.0548   -8554.4575    765.85341    18199.629    7.4530185 
    4850    402.95568   -8600.0368   -8555.0865    1087.5394    18203.274    7.4692085 
    4860    392.34633    -8599.468   -8555.7012    1154.3669    18209.129    7.4884021 
    4870    381.78675   -8598.8602   -8556.2714     793.6923    18217.254    7.5114584 
    4880    390.80156   -8600.4049   -8556.8104    163.69898    18226.812     7.539012 
    4890    396.15978   -8601.5293   -8557.3371    -332.7086    18236.424    7.5713674 
    4900    396.27328   -8602.0691   -8557.8643   -287.12927    18245.113    7.6114463 
    4910    388.78214   -8601.7583   -8558.3891    -164.4487    18252.907    7.6628054 
    4920    380.75088   -8601.3622   -8558.8889    -132.9225    18260.084    7.7244901 
    4930    388.82727   -8602.7452    -8559.371   -433.74781    18266.699    7.7907437 
    4940    394.27244   -8603.8425   -8559.8608   -1066.8702      18272.1    7.8550475 
    4950    390.82576   -8603.9596   -8560.3624   -1762.4944    18274.971    7.9143438 
    4960    394.23285   -8604.8617   -8560.8844   -2258.4427    18273.911    7.9680222 
    4970    398.86193   -8605.9306    -8561.437   -2164.8728    18268.037    8.0181898 
    4980    404.23458   -8607.1214   -8562.0284   -1505.7825    18257.698    8.0689822 
    4990     393.5721   -8606.5368   -8562.6332   -478.71749     18244.47    8.1245652 
    5000    392.08345    -8606.952   -8563.2145    454.69766    18230.629    8.1875813 
Loop time of 1792.19 on 16 procs for 3000 steps with 864 atoms

Performance: 0.145 ns/day, 165.943 hours/ns, 1.674 timesteps/s
96.4% CPU use with 16 MPI tasks x 1 OpenMP threads

MPI task timing breakdown:
Section |  min time  |  avg time  |  max time  |%varavg| %total
---------------------------------------------------------------
Pair    | 657.97     | 1162.1     | 1752.9     |1001.8 | 64.84
Bond    | 0.00022388 | 0.00041534 | 0.00098443 |   0.0 |  0.00
Neigh   | 0.027895   | 0.047778   | 0.082821   |   8.4 |  0.00
Comm    | 27.046     | 409.51     | 1029.1     |1359.6 | 22.85
Output  | 0.19169    | 0.19597    | 0.25763    |   3.6 |  0.01
Modify  | 0.39375    | 220.29     | 711.71     |1494.8 | 12.29
Other   |            | 0.01244    |            |       |  0.00

Nlocal:        54.0000 ave          83 max          36 min
Histogram: 5 2 1 2 0 0 2 1 1 2
Nghost:        527.812 ave         673 max         358 min
Histogram: 2 0 0 4 2 2 0 2 1 3
Neighs:         0.00000 ave           0 max           0 min
Histogram: 16 0 0 0 0 0 0 0 0 0
FullNghs:      2744.88 ave        5487 max        1194 min
Histogram: 6 2 2 0 0 0 2 2 0 2

Total # of neighbors = 43918
Ave neighs/atom = 50.831019
Ave special neighs/atom = 0.0000000
Neighbor list builds = 300
Dangerous builds = 300
Setting up Verlet run ...
  Unit style    : metal
  Current step  : 5000
  Time step     : 0.001
Per MPI rank memory allocation (min/avg/max) = 8.899 | 8.909 | 8.922 Mbytes
Step Temp PotEng TotEng Press Volume c_msd[4] 
    5000    392.08345    -8606.952   -8563.2145    454.69766    18230.629    8.1875813 
    5010    404.84624   -8608.4057   -8563.2445    590.94502    18231.188    8.2116047 
    5020    407.68204   -8608.8224   -8563.3449    736.53827    18233.083    8.2397955 
    5030    408.58627   -8609.1099   -8563.5315     607.9417    18236.567    8.2687722 
    5040    401.10981    -8608.542   -8563.7976    552.66002    18241.457    8.2989489 
    5050    409.75607   -8609.8468   -8564.1379     86.93074    18247.472     8.334597 
    5060    422.45181    -8611.696   -8564.5708   -490.88786     18253.66    8.3806219 
    5070    417.82899   -8611.6966   -8565.0871    -1007.373    18258.756    8.4380428 
    5080    413.46179   -8611.7605   -8565.6382   -1563.5658    18261.596    8.5023989 
    5090    407.48958   -8611.6228   -8566.1668   -2073.3083    18260.946    8.5688822 
    5100    408.10044   -8612.1632   -8566.6389   -2222.5392    18255.737    8.6345093 
    5110    413.44859    -8613.186   -8567.0652   -1766.0497    18245.676    8.6965129 
    5120    398.92154   -8611.9371   -8567.4368   -785.99946    18231.803    8.7536651 
    5130     395.9985   -8611.9259   -8567.7517   -370.01352    18216.075    8.8075951 
    5140    400.43068   -8612.7115   -8568.0429   -197.76347    18199.527    8.8601689 
    5150    399.17689    -8612.866   -8568.3372    207.00461    18182.633    8.9109842 
    5160    394.89484   -8612.6901   -8568.6389    628.88161    18166.239    8.9580059 
    5170    389.47193   -8612.3868   -8568.9407    1013.8344    18151.299    8.9988471 
    5180    392.01773   -8612.9765   -8569.2463    1172.5192    18138.636    9.0336658 
    5190    395.69663   -8613.7042   -8569.5636    951.86885    18128.564    9.0632968 
    5200    414.89033    -8616.207   -8569.9253    136.69547    18120.483      9.08785 
    5210    416.68671   -8616.8472   -8570.3652   -28.336968    18112.855    9.1104774 
    5220    393.54793    -8614.734   -8570.8331    701.46822    18105.394    9.1329937 
    5230    395.85103   -8615.4509   -8571.2931    840.18612     18099.39    9.1528197 
    5240    399.44239   -8616.3054    -8571.747    446.84744    18095.154    9.1701701 
    5250    401.19568   -8616.9532   -8572.1992   -8.2472793    18091.892    9.1878733 
    5260    407.47861   -8618.1145   -8572.6596   -95.036889     18088.73    9.2049151 
    5270    413.18834   -8619.2377   -8573.1459    85.628774    18085.421    9.2187173 
    5280    411.76223   -8619.5878   -8573.6551    205.61423    18082.284    9.2262025 
    5290     410.8338    -8620.007   -8574.1779    -5.097692     18079.54    9.2244988 
    5300    405.43588   -8619.9208   -8574.6939     -308.129    18076.771    9.2156952 
    5310    406.26984   -8620.5222   -8575.2022   -673.50672    18073.319    9.2044096 
    5320    407.28308   -8621.1394   -8575.7064   -905.06418    18068.442    9.1943539 
    5330    409.91631   -8621.9389   -8576.2121   -963.62401    18061.645    9.1885509 
    5340    419.46674   -8623.5279   -8576.7357   -1207.1683     18052.72    9.1884931 
    5350     428.5303    -8625.112   -8577.3088   -1397.0062    18041.154    9.1947923 
    5360    418.59862   -8624.6213    -8577.926   -691.01356    18026.751     9.206197 
    5370    410.49498   -8624.3323    -8578.541     400.2153    18010.954    9.2225268 
    5380    414.03898   -8625.3275   -8579.1408    1115.8003    17995.975    9.2472292 
    5390    418.02533   -8626.3679   -8579.7366     1263.496     17983.33    9.2833857 
    5400    429.63086   -8628.2846   -8580.3586    828.20289     17973.32    9.3287411 
    5410    438.31169   -8629.9278   -8581.0334     709.9064    17965.207    9.3786167 
    5420    431.96054   -8629.9231   -8581.7372    1421.6471    17958.841    9.4331342 
    5430    428.39848   -8630.2282   -8582.4397    2051.0465    17955.511    9.4942279 
    5440    424.51609   -8630.4891   -8583.1337    2396.6061    17956.554    9.5578125 
    5450     418.9346   -8630.5513   -8583.8186    2366.0615    17962.706     9.618325 
    5460    416.76255   -8630.9835    -8584.493    1934.6743    17973.912    9.6783995 
    5470    420.19372   -8632.0331   -8585.1599    968.54438    17989.192    9.7445009 
    5480    417.87111   -8632.4384   -8585.8243   -275.04098    18006.519    9.8172263 
    5490    405.13824   -8631.6644   -8586.4706   -1229.0148    18023.292    9.8904961 
    5500    397.93488   -8631.4754   -8587.0852    -1681.688    18037.432    9.9583214 
    5510    404.20499   -8632.7765   -8587.6868   -1907.8906    18047.881    10.021814 
    5520    403.00843   -8633.2487   -8588.2925   -1723.0041    18054.209    10.086454 
    5530    404.08936   -8633.9763   -8588.8995   -1596.2767     18056.73    10.155908 
    5540    405.73788   -8634.7763   -8589.5156   -1573.3994    18055.732    10.230795 
    5550    406.94959    -8635.531   -8590.1351   -1584.6184    18051.295    10.310727 
    5560    412.60267   -8636.7949   -8590.7685   -1683.7771    18043.427    10.393717 
    5570    409.22649   -8637.0727   -8591.4229   -1455.2969    18032.015    10.475887 
    5580    407.16578   -8637.4914   -8592.0715   -688.06331    18017.657    10.554314 
    5590    414.55925   -8638.9579   -8592.7132   -25.695517    18001.927    10.628101 
    5600    404.89941   -8638.4982   -8593.3311    645.43302    17986.344    10.696621 
    5610    400.07609   -8638.5282   -8593.8991     1035.086    17972.332    10.760261 
    5620    404.54905   -8639.5679   -8594.4398    1205.4037    17960.727     10.82161 
    5630    408.43841   -8640.5541   -8594.9922    1583.2071    17951.952    10.882221 
    5640    400.90706    -8640.274   -8595.5522    1909.0784    17946.722    10.938654 
    5650    400.48915   -8640.7916   -8596.1164    2103.2265    17945.641    10.985867 
    5660    392.44083   -8640.4636   -8596.6862    2504.2812    17949.113    11.026609 
    5670    383.01627   -8639.9598   -8597.2338    2761.1369    17957.869    11.068497 
    5680    395.28811    -8641.861   -8597.7661    2014.1487    17972.209    11.115053 
    5690    408.16231   -8643.8408   -8598.3097    724.32598    17990.568    11.163294 
    5700    408.91817   -8644.4912   -8598.8758   -540.09196    18010.172    11.205873 
    5710    397.41056   -8643.7786   -8599.4469   -1248.6618    18028.387    11.236635 
    5720    392.21018   -8643.7505   -8599.9989   -1764.3855    18043.644    11.254442 
    5730    394.03995     -8644.49   -8600.5343   -2063.7267    18054.871    11.262582 
    5740    389.54457   -8644.5066   -8601.0524   -1662.7311     18061.59     11.26662 
    5750    392.70336   -8645.3621   -8601.5555   -1004.2863    18064.649    11.272555 
    5760    390.15468   -8645.5822   -8602.0598    -235.3068    18065.508    11.287453 
    5770    373.55832   -8644.2174   -8602.5464    640.76535     18065.86    11.318075 
    5780    367.59521   -8643.9922   -8602.9864    1085.7527    18067.527    11.364564 
    5790    385.22075   -8646.3748   -8603.4029    856.32023    18071.417     11.42281 
    5800    392.37133   -8647.6117   -8603.8421    504.40387    18077.088    11.491842 
    5810    381.52452   -8646.8622   -8604.3026    387.05139    18083.815    11.573383 
    5820    387.28496   -8647.9775   -8604.7752   -61.444324    18091.194    11.666876 
    5830    389.49839   -8648.7077   -8605.2585   -570.68786    18098.312    11.768995 
    5840     383.9959   -8648.5683    -8605.733   -695.36746     18104.13    11.875531 
    5850    386.71606   -8649.3289   -8606.1901   -906.05454    18108.309     11.98576 
    5860    392.38429   -8650.4105   -8606.6395   -1372.2765    18110.397     12.10391 
    5870    390.72242   -8650.6663   -8607.0807   -1525.4551    18109.531    12.232628 
    5880     390.2579   -8651.0574   -8607.5236   -1297.7319    18105.442    12.367684 
    5890    391.70332   -8651.6615   -8607.9664   -648.85464    18098.736    12.500707 
    5900    396.33931   -8652.6299   -8608.4176     121.1533    18090.831    12.624829 
    5910    387.78786   -8652.1314    -8608.873    706.87579    18083.407    12.739022 
    5920    385.43934   -8652.3111   -8609.3148    515.38297    18077.589     12.84754 
    5930    392.76671   -8653.5763   -8609.7626   -93.387098    18072.988    12.954101 
    5940    386.00573   -8653.2726   -8610.2131   -794.29916    18068.321    13.058396 
    5950    384.22409   -8653.5222   -8610.6614   -1141.5167    18062.171    13.156347 
    5960    385.39496   -8654.0954    -8611.104   -759.32698    18053.907    13.247965 
    5970    385.22796    -8654.498   -8611.5253   -179.85867    18044.336    13.334417 
    5980    392.62245   -8655.7361   -8611.9385    -79.43563    18034.586    13.413538 
    5990    398.44784    -8656.826   -8612.3785    178.26289    18025.028    13.485513 
    6000    390.36177    -8656.384   -8612.8386    741.38759    18016.213     13.55545 
    6010    378.50727   -8655.5163   -8613.2932    1445.5213    18009.289    13.630708 
    6020    372.12134   -8655.2205   -8613.7098    1882.4326    18005.658    13.717387 
    6030    388.83381   -8657.4899   -8614.1149    1487.3505    18006.003    13.817323 
    6040    380.13941   -8656.9207   -8614.5156    1428.1652    18009.598    13.927429 
    6050    374.05924   -8656.6171   -8614.8902    1373.5788    18016.138    14.040212 
    6060    387.36547   -8658.4731   -8615.2619    1109.6694    18025.382    14.151279 
    6070    376.91157   -8657.6765   -8615.6315    958.42848    18036.754    14.262977 
    6080     371.7524   -8657.4585   -8615.9889    569.18546    18049.822     14.37551 
    6090    364.65624   -8656.9859    -8616.308   -96.384475    18063.705    14.485334 
    6100    370.95439   -8657.9654   -8616.5849   -1051.3612     18076.92    14.588862 
    6110     382.4157    -8659.505    -8616.846    -1680.695    18087.531    14.685532 
    6120    376.80422   -8659.1409   -8617.1079   -1259.0824    18094.421    14.773093 
    6130    376.00835   -8659.3097   -8617.3654   -653.40405    18098.443    14.849221 
    6140    394.02419   -8661.5904   -8617.6364   -590.97172    18100.826     14.91394 
    6150    402.60194    -8662.864   -8617.9531   -589.51971    18101.874    14.968936 
    6160    395.41792   -8662.4322   -8618.3228   -499.16648     18101.66    15.012621 
    6170    389.49127   -8662.1774   -8618.7291   -572.53947    18100.347    15.039842 
    6180    385.87115   -8662.1968   -8619.1523   -1031.4961    18097.743    15.048483 
    6190    383.92353   -8662.4026   -8619.5753    -1074.273    18093.075    15.036137 
    6200    382.93613   -8662.6984   -8619.9813   -814.89413    18086.216    15.005309 
    6210    375.01395   -8662.1982   -8620.3648    236.38772     18077.91    14.968075 
    6220    365.55846   -8661.4778   -8620.6992    1578.6595    18070.368    14.940854 
    6230    369.62215   -8662.2213   -8620.9894    2506.0266    18066.346    14.935083 
    6240    377.04952   -8663.3268   -8621.2663    2890.0693    18067.728    14.953241 
    6250    381.78643   -8664.1419    -8621.553    2340.4971    18075.186    14.996383 
    6260    393.49112   -8665.7637   -8621.8692    1135.3474    18087.499    15.063753 
    6270    391.73173   -8665.9196   -8622.2214    112.47309     18102.09    15.149856 
    6280    379.88545   -8664.9713   -8622.5945   -347.47193    18116.804    15.248897 
    6290    375.93274   -8664.8974   -8622.9615   -1071.4203    18130.443    15.357281 
    6300    380.34818   -8665.7378   -8623.3094   -1912.3675    18141.511    15.472878 
    6310    387.29045   -8666.8649    -8623.662   -2461.6905    18148.264     15.59335 
    6320    383.29378   -8666.7897   -8624.0327   -2116.9567     18149.69    15.716914 
    6330    378.73838   -8666.6492   -8624.4003   -1378.8944     18146.55     15.84546 
    6340    385.25398   -8667.7224   -8624.7467   -841.92388    18140.423    15.980735 
    6350    389.16278   -8668.4871   -8625.0754    -194.8616     18132.63    16.119126 
    6360    387.29611    -8668.603   -8625.3996    165.43835    18124.501    16.251766 
    6370    378.18637   -8667.9061   -8625.7188    376.38337    18116.878    16.369501 
    6380    372.81733   -8667.6151   -8626.0268     687.5199    18110.263    16.467813 
    6390    379.67393   -8668.6766   -8626.3234    934.85855    18105.257    16.549645 
    6400    373.54385   -8668.2707   -8626.6014    1434.7518    18102.474    16.623136 
    6410    372.82031   -8668.4451   -8626.8565    1555.6086    18102.801    16.697159 
    6420    382.38175    -8669.763   -8627.1077    1558.3998    18106.514     16.77765 
    6430    377.61075   -8669.4963   -8627.3732    1436.3546    18113.544    16.866506 
    6440    374.28875   -8669.3912   -8627.6387    482.89539    18123.431    16.960389 
    6450    387.55588   -8671.1344   -8627.9019   -1195.9087    18134.064    17.052364 
    6460    390.31031   -8671.7174   -8628.1777    -2684.093    18141.968    17.134685 
    6470    385.60625   -8671.4929    -8628.478   -3342.4212    18144.034    17.202154 
    6480    385.64964   -8671.8258    -8628.806   -2906.3374    18138.959    17.253352 
    6490    383.03649   -8671.8745   -8629.1462   -1837.6334     18127.73    17.291629 
    6500    386.38483   -8672.5877   -8629.4859   -818.04288    18112.636    17.323112 
    6510    384.81444   -8672.7548   -8629.8282    137.90551    18095.986    17.355012 
    6520    376.54093   -8672.1613   -8630.1576    772.55245    18079.843    17.394396 
    6530    377.89839   -8672.6253   -8630.4702      988.728    18065.525    17.445222 
    6540    369.38584    -8671.956   -8630.7505     1456.496    18053.625    17.505299 
    6550    372.72959    -8672.576   -8630.9975    1790.8096    18045.039    17.571172 
    6560     381.2536   -8673.7686   -8631.2392    1880.4306    18040.396     17.64018 
    6570    375.43544    -8673.362   -8631.4816    1974.2992    18039.912    17.711232 
    6580    383.97616   -8674.5634   -8631.7303    1503.7327    18043.584    17.787772 
    6590     389.8627   -8675.4873   -8631.9976    1234.7903    18050.518    17.874305 
    6600    377.14668    -8674.347   -8632.2758    1455.2865    18060.161    17.972006 
    6610    375.68155   -8674.4497   -8632.5419    1055.6421    18072.749    18.076828 
    6620    391.72549   -8676.5023   -8632.8047    73.069276    18087.394    18.177826 
    6630    389.77194   -8676.5676    -8633.088   -245.63092    18102.211    18.262564 
    6640    377.04242   -8675.4465   -8633.3869    -201.3302    18116.427    18.331424 
    6650    382.42552   -8676.3444   -8633.6842   -594.17639    18129.966    18.396026 
    6660    386.85059   -8677.1399   -8633.9861   -861.38829    18142.101    18.463451 
    6670     383.9893    -8677.129   -8634.2944   -743.51114     18152.33    18.533485 
    6680    386.75798   -8677.7473   -8634.6039   -773.50838    18160.823    18.604941 
    6690    393.92431   -8678.8698    -8634.927   -1000.9562    18167.513    18.678585 
    6700    390.48941   -8678.8325   -8635.2728    -1325.846    18171.949    18.758253 
    6710    384.10481   -8678.4752   -8635.6277   -2096.9923    18173.319    18.845312 
    6720    379.96054   -8678.3584   -8635.9732   -2626.2165    18170.091    18.931016 
    6730    379.96502   -8678.6824   -8636.2968   -2101.4986    18161.334    19.005467 
    6740    389.21396   -8680.0264    -8636.609   -747.74289    18148.199    19.073769 
    6750    395.17065   -8681.0067   -8636.9248    715.48511    18133.559    19.151799 
    6760    400.35714    -8681.928   -8637.2676     2073.605    18120.658    19.253111 
    6770    396.67603   -8681.8995   -8637.6497    2742.8038    18112.302    19.386127 
    6780    397.38024   -8682.3987   -8638.0703    2626.9909    18109.899    19.552726 
    6790    397.90569   -8682.9094   -8638.5225    2275.9508    18113.231    19.747542 
    6800    393.19121   -8682.8435   -8638.9824     2429.709    18121.614    19.967556 
    6810    395.35192   -8683.5385   -8639.4364    2273.2517    18135.145    20.213368 
    6820    392.57564   -8683.6662   -8639.8738    1350.6545     18153.31    20.483044 
    6830    376.99804   -8682.3165   -8640.2618    577.61995    18174.198    20.766607 
    6840    370.51219   -8681.8957   -8640.5645   -188.66327    18195.979    21.050455 
    6850     382.7286   -8683.4804   -8640.7864   -1542.5007    18216.768    21.321579 
    6860    389.68257   -8684.4427    -8640.973   -2856.3182    18233.721    21.566122 
    6870    392.50698   -8684.9606   -8641.1759    -3684.517    18244.072    21.771325 
    6880    397.16573   -8685.7364    -8641.432   -3489.4096    18246.256    21.930975 
    6890    397.28958   -8686.0616   -8641.7433   -2263.8061    18240.888     22.04927 
    6900     397.2034   -8686.3915   -8642.0829   -582.20106    18230.761    22.135224 
    6910    388.67434   -8685.7878   -8642.4306    928.14463    18219.588    22.197153 
    6920    372.80698   -8684.3404   -8642.7532    2047.5424    18210.708    22.244184 
    6930    383.34335   -8685.8163   -8643.0538    1972.4698    18206.298    22.284717 
    6940    396.43462   -8687.5908    -8643.368    1832.5986    18206.334    22.319868 
    6950    388.30152   -8687.0165   -8643.7009    2236.0592    18210.501    22.353029 
    6960    387.11677   -8687.2241   -8644.0406    2445.1324    18219.445    22.394259 
    6970    393.34987   -8688.2695   -8644.3907    1843.9979    18233.401    22.452261 
    6980    388.58976   -8688.0899   -8644.7422    1439.8054    18251.195    22.531956 
    6990    391.98631   -8688.8241   -8645.0975    1136.3499     18271.81    22.637329 
    7000    397.41369   -8689.8004   -8645.4683    982.01758    18294.585    22.770009 
    7010    395.63763   -8689.9951   -8645.8612    440.09595    18319.022    22.927963 
    7020    385.38584   -8689.2416   -8646.2512   -314.78362    18343.924    23.106432 
    7030    376.27002    -8688.587   -8646.6135   -998.13578    18367.663    23.299603 
    7040     387.0815   -8690.1307   -8646.9512   -2109.7506    18388.579    23.502765 
    7050    391.39444   -8690.9474   -8647.2868    -2896.918    18404.391    23.708318 
    7060    385.71379   -8690.6521   -8647.6251   -3354.3891    18413.424    23.905581 
    7070    388.08577   -8691.2538   -8647.9623   -3788.1515    18414.707     24.08722 
    7080    389.16447   -8691.7161   -8648.3042   -3695.2156     18407.56    24.247889 
    7090    383.78403   -8691.4633   -8648.6516   -2656.3826    18392.519    24.383378 
    7100    381.31696   -8691.5187   -8648.9822   -1115.5508     18372.06    24.497096 
    7110    386.90538   -8692.4486   -8649.2887   -12.535506     18349.57    24.598065 
    7120    390.60359   -8693.1511   -8649.5787    1204.7837    18327.751    24.692132 
    7130    380.37969   -8692.2734   -8649.8415    2266.5977    18309.223    24.786114 
    7140    375.25441   -8691.9335   -8650.0733    2677.6493    18296.144    24.884214 
    7150    385.10545   -8693.2605   -8650.3014     2336.251    18289.222    24.985876 
    7160    393.44889   -8694.4425   -8650.5527    1650.4278    18287.578    25.086514 
    7170    392.97151   -8694.6742   -8650.8377     1168.011    18289.697    25.176164 
    7180    391.16191   -8694.7873   -8651.1526    334.47582    18294.273    25.245696 
    7190    388.87856   -8694.8698   -8651.4898   -892.96703    18299.378    25.287284 
    7200    380.52134   -8694.2737    -8651.826   -2056.7376    18302.395     25.29633 
    7210    388.50757   -8695.4932   -8652.1546   -2829.2488    18300.849    25.271676 
    7220    394.55505   -8696.5044   -8652.4912   -2290.4508    18293.364    25.216418 
    7230    385.06252   -8695.7805   -8652.8262   -702.14587     18281.21    25.140801 
    7240    379.35517   -8695.4486    -8653.131    867.65751    18267.805    25.063035 
    7250    377.56933   -8695.5188   -8653.4004    1787.9912    18256.532    25.004857 
    7260    384.77101    -8696.582   -8653.6602    2024.0668    18249.354    24.981249 
    7270    386.53979   -8697.0478   -8653.9287    1851.9234    18246.744    24.997456 
    7280    390.86271    -8697.814   -8654.2127    1121.2755     18248.18    25.050204 
    7290    398.09097   -8698.9308   -8654.5232   -53.488499    18251.968    25.128769 
    7300    393.67396   -8698.7774   -8654.8624   -825.91629    18255.631    25.221116 
    7310    381.77687   -8697.7951   -8655.2073   -947.04901    18257.512    25.319072 
    7320    375.52685    -8697.419   -8655.5284   -684.61962     18257.36    25.416935 
    7330    381.73455   -8698.4074   -8655.8243   -959.05873    18255.577     25.51681 
    7340    382.97653   -8698.8265   -8656.1049   -1041.0785    18251.789    25.620871 
    7350    382.10977   -8698.9977   -8656.3728    -858.5651    18245.811    25.724124 
    7360    381.74409   -8699.2079   -8656.6238    -339.2916    18238.142    25.819025 
    7370    388.44562   -8700.2013   -8656.8696    132.26016    18229.857    25.900026 
    7380    388.62524   -8700.4797    -8657.128    901.76855    18222.089    25.963009 
    7390    374.23834   -8699.1304   -8657.3835    1601.9238    18216.462     26.00954 
    7400    371.65703   -8699.0842   -8657.6253    1529.8114    18214.322    26.045845 
    7410    372.78811    -8699.433   -8657.8479    1098.1369    18215.536    26.076676 
    7420    380.44724   -8700.4997   -8658.0603    486.43312    18219.082    26.100898 
    7430    389.14349   -8701.6936   -8658.2841   -86.028976    18223.641    26.112868 
    7440    383.26997   -8701.2786   -8658.5243   -510.39372    18227.977    26.107737 
    7450     391.6577   -8702.4719   -8658.7819   -707.57294    18231.144    26.085368 
    7460    395.42834   -8703.1733   -8659.0627   -192.66236    18232.867    26.052306 
    7470    384.43296    -8702.236    -8659.352    462.01409    18234.151    26.019137 
    7480    387.87294   -8702.9051   -8659.6373    1065.2187    18236.443    25.993048 
    7490    392.08533   -8703.6693   -8659.9316    1473.0234    18241.029    25.983446 
    7500    387.28756   -8703.4421   -8660.2396    1428.0243    18248.727    26.002781 
    7510    386.43871   -8703.6602   -8660.5524    774.52466    18259.363    26.055487 
    7520    381.16522   -8703.3766   -8660.8571   -42.988473    18271.579    26.135182 
    7530    377.22718   -8703.2194   -8661.1392   -882.81561    18283.565    26.228517 
    7540    377.49815   -8703.5045   -8661.3941   -1703.3132    18293.459    26.325299 
    7550    376.11206   -8703.5821   -8661.6262    -2315.157    18299.513    26.424436 
    7560    375.30097   -8703.7136   -8661.8482   -2840.7407    18300.318    26.525085 
    7570    372.83656   -8703.6529   -8662.0624   -2699.5896    18294.907     26.61981 
    7580    377.84753   -8704.4147   -8662.2652    -1853.879    18283.705     26.70313 
    7590    375.80462   -8704.3664   -8662.4448   -544.24534    18268.652    26.775166 
    7600    371.50642   -8704.0386   -8662.5965    694.00894    18252.606    26.840748 
    7610    371.13561   -8704.1257    -8662.725    1092.0271    18238.139     26.90794 
    7620    381.70352   -8705.4284   -8662.8488    1001.5015    18226.169    26.979869 
    7630    384.34699   -8705.8573   -8662.9828    1422.7275    18216.706    27.055302 
    7640    380.20545    -8705.541   -8663.1285    1848.8656    18210.513     27.13562 
    7650    387.79813   -8706.5537   -8663.2943    1542.2378    18208.326    27.223302 
    7660    390.09737   -8707.0056   -8663.4897    1316.6857    18209.609     27.32081 
    7670    388.93937    -8707.108   -8663.7212    1383.9078    18213.837    27.432524 
    7680    387.30703   -8707.1858   -8663.9811    1499.7717    18221.103     27.56053 
    7690    383.20462    -8707.004    -8664.257    1521.7588    18231.595    27.698559 
    7700    374.96903   -8706.3612   -8664.5328    1516.0709    18245.352    27.838979 
    7710    362.74248   -8705.2511   -8664.7867    1127.5847    18262.268    27.984795 
    7720    354.37357   -8704.5187   -8664.9878    289.53142     18281.44    28.140747 
    7730    360.64292   -8705.3583   -8665.1281   -1061.3389    18300.915    28.303132 
    7740     370.5367   -8706.5488   -8665.2149   -2064.2354    18317.893    28.455544 
    7750    390.27399   -8708.8282   -8665.2926   -2347.0636    18330.218    28.583009 
    7760    394.54784    -8709.418   -8665.4055   -1800.0284    18337.321    28.685296 
    7770    384.65729   -8708.4691     -8665.56   -746.41707    18340.396     28.77194 
    7780     386.3356   -8708.8392   -8665.7429    192.92005    18341.743    28.854024 
    7790    388.71542   -8709.3164   -8665.9546    603.36257     18343.42    28.941394 
    7800    389.46016   -8709.6389    -8666.194    138.97579    18346.279    29.041637 
    7810    395.26337   -8710.5521   -8666.4599   -1502.0964     18349.17    29.155921 
    7820    385.65634   -8709.7686   -8666.7481   -2837.0932    18348.751    29.270378 
    7830    374.02499   -8708.7633   -8667.0402   -3016.2107    18342.196    29.369726 
    7840    378.80478   -8709.5671   -8667.3109   -2198.6432    18329.152    29.452514 
    7850    384.06924   -8710.3889   -8667.5454   -739.83882    18311.492    29.523742 
    7860    379.92198   -8710.1128    -8667.732    844.77493     18292.47    29.589038 
    7870    394.32458   -8711.8866   -8667.8991    1589.4152    18275.422    29.656988 
    7880    400.77916   -8712.7982   -8668.0907    1884.7115    18262.091    29.734225 
    7890    401.81988   -8713.1536     -8668.33    1967.4659    18253.128    29.824975 
    7900    402.53624   -8713.5135     -8668.61    1714.0566    18248.583    29.927975 
    7910     394.8256   -8712.9473   -8668.9039    1325.5712    18247.888    30.034296 
    7920    391.99819   -8712.9211   -8669.1932    461.34982     18250.05    30.131897 
    7930    386.18391   -8712.5456   -8669.4662   -612.86278    18253.149    30.204396 
    7940    382.67837   -8712.4072   -8669.7189    -1290.782    18254.909    30.236513 
    7950    379.15062   -8712.2461   -8669.9513   -922.11913    18253.993    30.224858 
    7960    370.60176    -8711.479   -8670.1378    -264.9036    18251.118    30.183135 
    7970    379.90004   -8712.6657   -8670.2872   -438.43093    18247.521     30.13157 
    7980    389.60094   -8713.8955    -8670.435   -823.26114    18242.947    30.083278 
    7990    386.24461    -8713.681   -8670.5949   -748.86564    18236.684    30.044048 
    8000    387.68766   -8714.0166   -8670.7695   -130.78495    18228.971     30.02181 
    8010    392.72289    -8714.774   -8670.9652    643.37396    18221.122    30.025606 
    8020    395.29847   -8715.2915   -8671.1954    1691.9064    18214.852    30.059907 
    8030     390.5487   -8715.0289   -8671.4626    3013.4695    18212.463    30.127639 
    8040    384.65602   -8714.6687   -8671.7598    3429.8887    18216.573    30.231238 
    8050    380.51141   -8714.5169   -8672.0703    2977.9088    18228.066     30.36457 
    8060    375.95876   -8714.3089   -8672.3701    2054.1983    18245.934    30.514954 
    8070    384.90367   -8715.5824   -8672.6458    634.28063    18268.043    30.672315 
    8080    387.11471   -8716.0802   -8672.8969   -525.50841    18291.379    30.832577 
    8090    377.64254   -8715.2528   -8673.1262   -1700.4287     18313.22    30.991311 
    8100     375.6338   -8715.2269   -8673.3244   -2986.8007    18330.949    31.135968 
    8110    383.51541   -8716.2891   -8673.5073   -3940.9101    18341.801    31.251804 
    8120    383.11289   -8716.4409   -8673.7041     -3678.51    18343.911    31.330731 
    8130    372.65977   -8715.4835   -8673.9128   -2393.5738    18337.982    31.374089 
    8140     360.8656   -8714.3525   -8674.0974   -1277.3198    18326.765     31.38466 
    8150    369.39719   -8715.4546   -8674.2478   -675.85682    18312.762    31.362944 
    8160    385.28982   -8717.3713   -8674.3916    88.178223    18297.535    31.319036 
    8170    381.62998   -8717.1152   -8674.5438    899.19615    18282.752     31.27361 
    8180    384.67027   -8717.6189   -8674.7084    1416.4183    18270.141    31.244251 
    8190    385.22438   -8717.8617   -8674.8894    1475.2306    18260.762    31.238793 
    8200    373.01441   -8716.6835   -8675.0732    1552.2876    18254.827    31.261274 
    8210    381.92183   -8717.8514   -8675.2474    1215.0802    18252.301    31.309593 
    8220    403.22838    -8720.415   -8675.4343    630.95395    18252.438    31.371505 
    8230    397.65037     -8720.03   -8675.6715    564.50728    18254.077     31.43066 
    8240    375.33578   -8717.8073   -8675.9381    956.07692    18257.016    31.477179 
    8250    370.75306   -8717.5497   -8676.1917    1187.2927    18261.996    31.520646 
    8260     379.3304   -8718.7407   -8676.4258    885.62264    18269.427    31.580822 
    8270    381.09592   -8719.1595   -8676.6477    223.21738    18278.649    31.668528 
    8280     383.5245   -8719.6476   -8676.8649   -330.17688    18288.281    31.779617 
    8290    385.52368   -8720.0888    -8677.083   -740.20127    18297.076    31.902397 
    8300    381.30412   -8719.8329   -8677.2978   -948.43883    18304.143    32.025846 
    8310    376.61952   -8719.5148   -8677.5023   -1276.2091    18308.963    32.140877 
    8320    374.78673   -8719.4999   -8677.6918   -1725.1105     18310.84    32.239794 
    8330     375.8627    -8719.798     -8677.87   -1756.6202    18308.941     32.32425 
    8340    369.11813   -8719.2148   -8678.0391   -1365.1335    18303.254    32.406107 
    8350    359.60785   -8718.3037   -8678.1889   -1111.2205    18294.552    32.500974 
    8360    361.31539    -8718.614   -8678.3087   -1157.1359    18283.432    32.614313 
    8370    365.24438   -8719.1403   -8678.3968   -1309.6915    18269.873    32.733133 
    8380    366.62345   -8719.3469   -8678.4495   -1030.7142    18253.686    32.836675 
    8390    371.27158   -8719.8787   -8678.4628    100.33048    18235.639    32.914981 
    8400    373.02534   -8720.0433   -8678.4317    1528.5564    18218.178     32.97395 
    8410    379.06504   -8720.6603    -8678.375    2136.9392    18204.237    33.023514 
    8420    383.29559   -8721.0829   -8678.3257    1804.4204    18195.059    33.066922 
    8430    382.14611   -8720.9378   -8678.3088    1101.7161    18189.961    33.100077 
    8440    376.48955   -8720.3254   -8678.3274    571.42711    18187.404    33.115225 
    8450    367.86344   -8719.3971   -8678.3614    792.69184    18186.318    33.108006 
    8460    374.02559   -8720.1148   -8678.3917    983.15892    18186.988    33.077633 
    8470     387.1012   -8721.6062   -8678.4245    469.88755    18189.664    33.024803 
    8480    390.51521   -8722.0454   -8678.4829   -444.83439     18193.26    32.948241 
    8490    385.34187   -8721.5603   -8678.5749   -1284.4367    18195.871    32.848679 
    8500    385.79207   -8721.7279   -8678.6923   -1891.0706     18195.67    32.734342 
    8510    382.73457     -8721.53   -8678.8354   -1986.0311    18191.399    32.613513 
    8520    379.46368    -8721.333   -8679.0032   -1614.5237    18182.931     32.49127 
    8530    385.77494    -8722.236   -8679.2022   -1463.0508    18171.009    32.372559 
    8540    382.30334   -8722.0867   -8679.4402   -1190.8863    18156.121     32.26158 
    8550    369.86121   -8720.9573   -8679.6987   -662.57805    18138.919    32.161777 
    8560    368.80796   -8721.0992   -8679.9581   -178.27022    18120.543    32.079319 
    8570    378.88147   -8722.4945   -8680.2297    149.04443    18102.044    32.020161 
[...]
   22890    379.52601   -8796.0806   -8753.7439    599.63312    17732.584    32.183586 
   22900    388.03523   -8796.8867   -8753.6008   -592.84553    17745.237    32.257806 
   22910    388.95071   -8796.8677   -8753.4797   -1764.3919    17756.616    32.308318 
   22920    379.97505    -8795.775   -8753.3882    -2677.487    17764.311    32.325181 
   22930    368.29035   -8794.3924    -8753.309   -3192.0187    17766.398     32.30914 
   22940    371.42467   -8794.6436   -8753.2106   -3295.9882    17761.822    32.263922 
   22950     377.8562   -8795.2174    -8753.067   -2609.0286    17750.456    32.193371 
   22960    380.59796   -8795.3186   -8752.8624   -1050.8464    17733.792    32.105709 
   22970    393.08716   -8796.4475   -8752.5981    720.47908     17715.05    32.016988 
   22980    401.82602   -8797.1328   -8752.3085    2260.1053    17697.888    31.946317 
   22990    394.44572   -8796.0481   -8752.0471    3111.8865    17685.422    31.912335 
   23000    392.03261   -8795.5675   -8751.8357     3326.224    17679.422    31.928984 
   23010    393.39849   -8795.5592    -8751.675    3345.7146    17680.386    31.994014 
   23020    384.49512   -8794.4528   -8751.5618    2961.1101    17688.267    32.091173 
   23030    387.52619   -8794.7011    -8751.472    1968.6017    17702.215    32.198827 
   23040    392.54421   -8795.1783   -8751.3894    843.39001    17720.221    32.299221 
   23050    382.39452   -8793.9742   -8751.3176   -197.71326    17739.985    32.383286 
   23060    382.13517   -8793.8794   -8751.2517   -1744.4008    17759.166    32.449019 
   23070    389.95578   -8794.6929   -8751.1927    -3246.996    17774.592    32.492953 
   23080    403.33511   -8796.1743   -8751.1817   -3896.9276    17783.254    32.508656 
   23090    396.41482   -8795.4693   -8751.2486   -3252.4399    17783.902    32.493433 
   23100      384.648   -8794.2876   -8751.3795   -2334.0469    17777.702    32.448118 
   23110    378.90379   -8793.8077   -8751.5404   -1343.6871    17766.634    32.380639 
   23120     379.7141    -8794.069   -8751.7113   -18.992007    17752.865    32.301146 
   23130     388.9557   -8795.2824   -8751.8938    1389.6748    17739.142    32.221814 
   23140    396.76755   -8796.3792   -8752.1192    2689.6073    17728.397    32.156061 
   23150    396.60235   -8796.6623   -8752.4207    3519.7019    17723.264    32.116518 
   23160    390.93771   -8796.4134   -8752.8038    3097.0041    17725.301    32.108713 
   23170    379.47814   -8795.5538   -8753.2224    1683.6978    17733.691     32.12168 
   23180    382.17049   -8796.2638   -8753.6321   -448.49235    17745.456    32.132918 
   23190    388.41277   -8797.3503   -8754.0223   -2136.2927    17756.341    32.121306 
   23200    376.79014   -8796.4064   -8754.3749   -2610.4184    17762.901    32.076875 
   23210    365.16376   -8795.3913   -8754.6568   -2022.1643    17764.134    32.001347 
   23220    368.14719   -8795.9304    -8754.863   -1498.8068    17761.087    31.908431 
   23230    378.48119   -8797.2426   -8755.0224   -1383.5308    17754.835    31.818257 
   23240     381.3294   -8797.7158   -8755.1779   -1050.6893    17745.749    31.747804 
   23250    369.58882   -8796.5582     -8755.33   -361.16741    17734.542    31.710472 
   23260     372.2332   -8796.9956   -8755.4724    12.420207    17722.556    31.712653 
   23270    374.61139   -8797.3898   -8755.6013    318.72483    17710.647    31.748988 
   23280    371.63936   -8797.1586   -8755.7017    807.04817    17699.508    31.810468 
   23290    378.46966   -8797.9989     -8755.78    1055.1392    17690.042    31.887245 
   23300     373.2338   -8797.4846   -8755.8498    1497.2277    17682.887    31.969997 
   23310    377.13443   -8797.9894   -8755.9195    1664.5562     17678.83    32.057998 
   23320    383.97704   -8798.8295   -8755.9963    1522.7212     17678.21     32.15015 
   23330    375.01133   -8797.9136   -8756.0805    1214.2438    17680.757    32.244415 
   23340    375.15727   -8798.0188   -8756.1694    527.46793    17685.763    32.339777 
   23350    370.99995   -8797.6434   -8756.2578   -242.74713    17691.842    32.423554 
   23360    369.89187   -8797.6019   -8756.3399   -1073.1198    17697.385     32.47969 
   23370    381.79867   -8799.0129   -8756.4226   -1863.8229    17700.676    32.503849 
   23380     376.8456   -8798.5558   -8756.5181   -1878.3191    17700.195    32.500054 
   23390    361.48637   -8796.9369   -8756.6125   -1200.5046    17695.905    32.476067 
   23400    358.31994   -8796.6518   -8756.6807   -500.63499    17689.128    32.441553 
   23410    359.77393   -8796.8435   -8756.7102    223.90987    17681.365    32.405109 
   23420     357.3577   -8796.5636   -8756.6998    1013.2571    17674.126    32.370933 
   23430    363.25786   -8797.1715   -8756.6495     1407.667    17668.973    32.343778 
   23440    377.65739   -8798.7061   -8756.5779    1231.5358    17666.666    32.327658 
   23450    373.44748   -8798.1609   -8756.5023    1180.5087    17666.981    32.319093 
   23460    375.30469   -8798.2948    -8756.429     837.7714    17669.702    32.320342 
   23470    379.97235    -8798.736   -8756.3495    193.58248    17674.104     32.33799 
   23480    373.77116   -8797.9619   -8756.2671   -518.28272    17678.874    32.364862 
   23490    366.55729   -8797.0683   -8756.1783   -721.34381    17682.652    32.384004 
   23500    364.10908    -8796.681   -8756.0641   -539.91112    17684.989    32.387248 
   23510    370.48568   -8797.2356   -8755.9073   -192.88651    17686.211    32.371578 
   23520    381.23551    -8798.236   -8755.7086    222.35286    17687.051    32.331526 
   23530    381.22883   -8798.0179   -8755.4912    262.82088    17688.281    32.266242 
   23540    363.86912   -8795.8526   -8755.2625    196.37204    17690.081    32.181586 
   23550    364.43573   -8795.6519   -8754.9985   -434.94204    17692.201    32.080771 
   23560    376.63314   -8796.6844   -8754.6704   -868.28001    17693.479    31.965453 
   23570    377.38939   -8796.3907   -8754.2924   -959.88812     17693.01     31.84774 
   23580    381.99559   -8796.5186   -8753.9064    -1239.403    17690.487    31.745193 
   23590    394.09949   -8797.5198   -8753.5574   -1091.3353    17685.466    31.668848 
   23600     395.6717   -8797.4204   -8753.2826   -605.28686    17678.244     31.62458 
   23610    395.09512   -8797.1495    -8753.076   -550.40503    17669.705    31.606092 
   23620    390.71926   -8796.5072   -8752.9219   -644.56267    17659.996    31.593755 
   23630    374.64092   -8794.5964   -8752.8046   -231.35159    17649.049    31.568906 
   23640    372.27075   -8794.2285   -8752.7012    367.04695    17637.695    31.525488 
   23650    384.07625   -8795.4465   -8752.6022    617.00656    17627.057    31.469272 
   23660    381.60796   -8795.0874   -8752.5185    905.97383    17617.759    31.409933 
   23670    376.73404   -8794.4811   -8752.4559    773.53646    17610.262    31.350359 
   23680    380.39593   -8794.8412   -8752.4074    300.02293     17604.31     31.28132 
   23690     388.9326   -8795.7629   -8752.3769   -148.53176    17599.008    31.196279 
   23700    391.91256   -8796.0925   -8752.3741   -343.33073    17593.465     31.10907 
   23710    384.73675   -8795.3199   -8752.4019    69.866059    17587.353    31.042945 
   23720    392.53833    -8796.249   -8752.4608    885.00412    17581.494     31.00785 
   23730    398.32032   -8796.9901   -8752.5568    1632.0348    17577.462    30.999024 
   23740    399.82513   -8797.3082   -8752.7071    2120.6257    17576.768    31.007588 
   23750    394.35253   -8796.9054   -8752.9147     2613.293    17580.501    31.033636 
   23760    384.92983   -8796.1002   -8753.1607    2527.6393     17589.54    31.084905 
   23770    384.78956   -8796.3445   -8753.4206    1357.2413    17603.642    31.155987 
   23780    380.30324   -8796.0936   -8753.6702   -133.69177    17620.561    31.225611 
   23790    370.39238   -8795.1983   -8753.8805   -1566.8637    17637.238    31.277411 
   23800    376.14404   -8796.0106   -8754.0512   -2741.2061    17650.712    31.308202 
   23810    374.15513   -8795.9354   -8754.1978   -3091.5996    17658.636    31.320131 
   23820    363.87824   -8794.9131   -8754.3219   -2542.8224    17660.293    31.314125 
   23830    374.28245   -8796.1708    -8754.419   -2042.1877    17656.635    31.293672 
   23840    381.70885   -8797.0871   -8754.5069   -1598.4721    17648.684    31.265547 
   23850    367.52236   -8795.5792   -8754.5815   -351.11924    17637.563    31.234574 
   23860    375.01288   -8796.4641   -8754.6308    609.01633    17625.622    31.202958 
   23870    392.07944   -8798.4118   -8754.6747    1374.3609    17614.914    31.169902 
   23880    384.33608   -8797.6089   -8754.7356    1874.6954    17607.005    31.132503 
   23890    383.09464   -8797.5502   -8754.8154    1614.6837    17602.854    31.087936 
   23900    391.00515    -8798.535   -8754.9178    715.57235    17601.938    31.036316 
   23910    377.21626   -8797.1184   -8755.0393    305.91574    17602.624    30.976768 
   23920    373.70721   -8796.8441   -8755.1565     227.3084    17604.004    30.909554 
   23930    389.69901   -8798.7354   -8755.2639   -113.88792    17605.768    30.842612 
   23940    384.99932   -8798.3179   -8755.3707   -58.550713    17607.395    30.791414 
   23950    382.18319   -8798.1194   -8755.4863   -111.00838    17608.879    30.767761 
   23960    380.72952   -8798.0762   -8755.6053   -199.33012    17610.137    30.765943 
   23970    379.78976   -8798.0898   -8755.7237   -124.63171    17611.019    30.766277 
   23980    386.35665     -8798.96   -8755.8613   -288.33509    17611.574    30.757802 
   23990    375.71535   -8797.9361   -8756.0245   -259.86842    17611.588    30.742176 
   24000    375.79349   -8798.1246   -8756.2042   -472.61255    17611.008    30.725416 
   24010    374.62536   -8798.1744   -8756.3843   -538.00178    17609.466    30.713323 
   24020    362.13261   -8796.9318   -8756.5353   -365.52722     17606.86    30.709346 
   24030    369.55156   -8797.8768   -8756.6528   -775.03064    17603.352    30.710782 
   24040    366.59238   -8797.6344   -8756.7404   -836.58232    17598.304    30.714201 
   24050     372.5744   -8798.3702   -8756.8089   -547.37295    17591.567    30.722423 
   24060    379.03741   -8799.1537   -8756.8715    184.30227    17583.781    30.740762 
   24070    367.95669   -8797.9761   -8756.9299    958.09881    17576.361    30.768337 
   24080    368.02819   -8798.0364   -8756.9823    1453.9861    17570.854    30.797205 
   24090    366.29307   -8797.8791   -8757.0186    1803.7832     17568.34    30.818519 
   24100    381.20795   -8799.5765   -8757.0522    1659.9347    17569.452    30.827645 
   24110    386.33005   -8800.1965   -8757.1008    1148.5202    17573.948    30.827981 
   24120    381.59765   -8799.7423   -8757.1745    613.47672    17580.864    30.828923 
   24130    385.95102   -8800.3289   -8757.2755   -21.578662    17589.087    30.837788 
   24140    372.63982    -8798.963   -8757.3945   -349.83362     17597.39    30.852957 
   24150     366.3911   -8798.3904   -8757.5189   -770.67987    17604.998    30.875254 
   24160     363.8827   -8798.2255   -8757.6338   -1105.5029    17611.073    30.913157 
   24170    366.65839   -8798.6396   -8757.7383   -820.61179    17615.008    30.968946 
   24180    377.66429   -8799.9754   -8757.8464   -378.00101    17617.304    31.038156 
   24190     370.8843   -8799.3366   -8757.9639   -41.179421    17618.805    31.113312 
   24200    365.50334   -8798.8568   -8758.0843     809.4372    17620.355    31.182117 
   24210    367.76354   -8799.2295   -8758.2049     1783.782    17623.629    31.235771 
   24220     375.0546   -8800.1868   -8758.3488    2205.0032    17630.573    31.274983 
   24230    365.12472   -8799.2537   -8758.5235    1672.3148     17642.03    31.307923 
   24240    355.45283   -8798.3518   -8758.7005    215.21421    17656.911    31.340282 
   24250    366.05927   -8799.6997   -8758.8652   -1221.0625    17672.378    31.372206 
   24260    364.62628   -8799.7057   -8759.0311   -1652.8821    17685.613    31.407513 
   24270    358.03118   -8799.1407   -8759.2018   -1578.0963    17695.574     31.44862 
   24280    359.78282   -8799.4994   -8759.3651   -1392.0788    17702.321    31.494152 
   24290    358.84893   -8799.5383   -8759.5082   -939.10282    17706.268     31.54597 
   24300    368.04927   -8800.6968   -8759.6403   -716.31899     17708.22    31.606596 
   24310    366.55889   -8800.6702     -8759.78   -563.39758    17708.668    31.675452 
   24320    353.36962   -8799.3386   -8759.9197   -237.39278    17707.987    31.748616 
   24330    356.05757   -8799.7567    -8760.038    42.346279    17706.771    31.820758 
   24340    362.17457   -8800.5243   -8760.1232    545.08894    17705.683    31.890386 
   24350    364.68821   -8800.8634   -8760.1818    988.93119    17705.745    31.964207 
   24360    353.46814   -8799.6346   -8760.2047    1060.0036    17707.823    32.054501 
   24370    351.88137   -8799.4196   -8760.1667    241.97503    17711.984     32.16503 
   24380    363.01114   -8800.5551   -8760.0607   -928.58292    17716.647     32.27939 
   24390    357.01679   -8799.7328    -8759.907   -1522.8847    17719.522    32.371879 
   24400    360.36607   -8799.9294     -8759.73   -1723.0367    17719.264    32.426104 
   24410    361.62791   -8799.8641    -8759.524   -1442.1283    17715.438    32.439298 
   24420    359.07197   -8799.3352   -8759.2802   -656.24359    17708.602    32.412941 
   24430    361.17819   -8799.2757   -8758.9857    7.0019579    17700.268    32.351641 
   24440    357.75522   -8798.5673   -8758.6592    398.34135    17691.799    32.258763 
   24450    356.86104   -8798.1293   -8758.3209    654.09235    17684.038    32.135801 
   24460    366.58644   -8798.8573    -8757.964    710.80188    17677.522    31.989305 
   24470    381.74199   -8800.1804   -8757.5965    769.01482    17672.418    31.833686 
   24480    376.26879   -8799.2339   -8757.2605    1493.3193    17669.007    31.685441 
   24490    358.67966   -8796.9914   -8756.9801    2247.9987    17668.702    31.557727 
   24500    357.14739   -8796.5745   -8756.7342     1859.951    17672.918    31.458116 
   24510     376.8558   -8798.5369    -8756.498    661.64539    17680.964    31.384724 
   24520    379.58762   -8798.6188   -8756.2752    -384.0197    17690.559    31.328409 
   24530    367.58812   -8797.0834   -8756.0784   -1224.5115    17699.505    31.277747 
   24540    362.15619   -8796.2868   -8755.8877   -1755.8316    17706.063    31.223684 
   24550    371.08156   -8797.0912   -8755.6965   -2007.0247    17709.062    31.161355 
   24560    381.17585    -8798.037   -8755.5163    -1982.132    17707.923    31.086217 
   24570    384.68902   -8798.2803   -8755.3677   -1834.1302    17702.598    30.999739 
   24580    387.54467   -8798.4909   -8755.2597   -1637.7001    17693.313    30.906995 
   24590     390.7735    -8798.791   -8755.1996   -1371.0075    17680.434     30.81205 
   24600    384.15262   -8798.0317   -8755.1789   -1056.6118    17664.461    30.726189 
   24610    390.48809   -8798.7452   -8755.1857    -542.7942    17646.039    30.658711 
   24620     383.0473   -8797.9339   -8755.2044    496.46348    17626.266    30.611718 
   24630    373.77056   -8796.9092   -8755.2145    1671.9531    17607.266    30.589462 
   24640    385.87924   -8798.2689   -8755.2235    1951.4651     17591.29    30.588869 
   24650    381.34496   -8797.7856    -8755.246    2293.6852    17579.189     30.59207 
   24660    380.24442   -8797.7092   -8755.2924    2540.2847    17571.687     30.58242 
   24670    390.01022   -8798.8839   -8755.3777    2015.9772    17569.182    30.556242 
   24680    387.57335   -8798.7523   -8755.5179    1790.5984    17570.891     30.51253 
   24690    372.30379   -8797.2257   -8755.6947    1933.4978    17576.457    30.452338 
   24700    379.41613   -8798.2082   -8755.8838    933.27588     17585.94    30.381552 
   24710    378.15342   -8798.2456    -8756.062   -523.01658    17597.514    30.304595 
   24720    371.61081   -8797.6764   -8756.2226   -1456.2685    17608.336    30.225893 
   24730    370.44674   -8797.6973   -8756.3734   -1802.2433    17616.437    30.150209 
   24740     377.4643     -8798.64   -8756.5333    -1918.513     17620.95    30.075024 
   24750    375.91534   -8798.6491   -8756.7152   -1238.1074    17621.667    29.993551 
   24760    371.73382   -8798.3714    -8756.904   -351.16779    17619.811    29.906132 
   24770    378.32425   -8799.3044   -8757.1018   -63.521172    17617.051     29.81963 
   24780    360.81902   -8797.5379    -8757.288    548.26077     17614.19    29.743148 
   24790     363.6443   -8798.0103   -8757.4453    1031.8755     17612.38    29.689662 
   24800     367.6021   -8798.5912   -8757.5847    1112.7688    17612.603     29.66384 
   24810     356.0954   -8797.4255   -8757.7025    878.16327    17615.127    29.655166 
   24820    369.60595   -8799.0296   -8757.7995    14.596863    17619.456    29.651395 
   24830     375.3434   -8799.7576   -8757.8875   -1114.5835    17623.863     29.65084 
   24840    361.17559   -8798.2596   -8757.9699   -1249.1563    17626.261     29.65818 
   24850    362.51768   -8798.4774    -8758.038   -982.59143    17626.143    29.678905 
   24860    369.94196   -8799.3564   -8758.0888   -459.04553    17624.022    29.710981 
   24870    370.81924   -8799.5014    -8758.136     -261.454    17620.823    29.751747 
   24880    364.11013   -8798.8002   -8758.1832   -186.33438    17616.992    29.803845 
   24890    351.34596   -8797.3999   -8758.2068     144.3051    17612.725    29.875331 
   24900    355.98258   -8797.8976   -8758.1872    407.41514    17608.635    29.971273 
   24910    368.77187   -8799.2427   -8758.1056    561.32931    17605.271    30.084408 
   24920    380.87501   -8800.4505   -8757.9633    790.34848    17603.022    30.202488 
   24930    384.98772   -8800.7174   -8757.7715    741.83716    17602.314    30.317351 
   24940    383.39887   -8800.3226   -8757.5539    460.84815     17603.11    30.420972 
   24950      374.756   -8799.1227   -8757.3181   -191.99715    17604.819    30.509515 
   24960    373.84159   -8798.7592   -8757.0566   -965.15983    17606.155    30.579243 
   24970    367.30156   -8797.7319   -8756.7589   -1261.1325    17605.592    30.625205 
   24980    372.43185    -8797.968   -8756.4227   -1337.9185     17602.41    30.645409 
   24990    374.60749   -8797.8407   -8756.0527   -1059.6896     17596.39    30.636354 
   25000    361.47775   -8795.9945   -8755.6711   -346.86445    17588.053    30.591888 
Loop time of 13065.6 on 16 procs for 20000 steps with 864 atoms

Performance: 0.132 ns/day, 181.466 hours/ns, 1.531 timesteps/s
96.2% CPU use with 16 MPI tasks x 1 OpenMP threads

MPI task timing breakdown:
Section |  min time  |  avg time  |  max time  |%varavg| %total
---------------------------------------------------------------
Pair    | 3308.9     | 7230.3     | 12989      |4097.6 | 55.34
Bond    | 0.0014875  | 0.0022486  | 0.0036569  |   1.3 |  0.00
Neigh   | 0.16261    | 0.34814    | 0.61453    |  29.7 |  0.00
Comm    | 4.5812     | 4298.5     | 8386.2     |4624.9 | 32.90
Output  | 2.5449     | 2.5741     | 2.991      |   6.7 |  0.02
Modify  | 68.04      | 1533.8     | 7083       |5713.5 | 11.74
Other   |            | 0.08141    |            |       |  0.00

Nlocal:        54.0000 ave          86 max          29 min
Histogram: 3 3 2 2 0 0 1 1 1 3
Nghost:        537.312 ave         699 max         343 min
Histogram: 2 0 3 1 2 2 0 0 2 4
Neighs:         0.00000 ave           0 max           0 min
Histogram: 16 0 0 0 0 0 0 0 0 0
FullNghs:      2912.75 ave        5943 max         808 min
Histogram: 4 3 2 1 0 0 1 1 1 3

Total # of neighbors = 46604
Ave neighs/atom = 53.939815
Ave special neighs/atom = 0.0000000
Neighbor list builds = 2000
Dangerous builds = 2000
Total wall time: 4:26:23
