LAMMPS (2 Aug 2023)
OMP_NUM_THREADS environment is not set. Defaulting to 1 thread. (src/comm.cpp:98)
  using 1 OpenMP thread(s) per MPI task
units          metal
atom_style     full

read_data      initial-solid.data
Reading data file ...
  orthogonal box = (0 0 0) to (23.935472 23.935472 71.806417)
  1 by 1 by 1 MPI processor grid
  reading atoms ...
  1536 atoms
Finding 1-2 1-3 1-4 neighbors ...
  special bond factors lj:    0        0        0       
  special bond factors coul:  0        0        0       
     0 = max # of 1-2 neighbors
     0 = max # of 1-3 neighbors
     0 = max # of 1-4 neighbors
     1 = max # of special neighbors
  special bonds CPU = 0.001 seconds
  read_data CPU = 0.043 seconds
velocity       all create 300.0 1312343 dist gaussian

pair_style     chgnet/gpu /ocean/projects/cts180021p/wuziqi/clease/lammps-ASC/potentials/CHGNET
pair_coeff     * * /ocean/projects/cts180021p/wuziqi/chgnet/fine-tunning2/04-12-2024/epoch999_e52_f152_s406_mNA.pth.tar Cl K Li

variable myZlo equal zlo
variable myZhi equal zhi
variable myMid equal (${myZlo}+${myZhi})/2
variable myMid equal (0+${myZhi})/2
variable myMid equal (0+71.8064174343384)/2

region   solid block INF INF INF INF ${myZlo} ${myMid}
region   solid block INF INF INF INF 0 ${myMid}
region   solid block INF INF INF INF 0 35.9032087171692
region   liquid block INF INF INF INF ${myMid} ${myZhi}
region   liquid block INF INF INF INF 35.9032087171692 ${myZhi}
region   liquid block INF INF INF INF 35.9032087171692 71.8064174343384
group    gSolid region solid
768 atoms in group gSolid
group    gLiquid region liquid
768 atoms in group gLiquid

neighbor        0.3 bin
neigh_modify    delay 10

timestep        0.0005
compute msd all msd
thermo_style    custom step temp pe etotal press vol c_msd[4]
thermo          10
dump            1 all custom 10 xyz-npt.dump type id x y z
#dump           2 all custom 10 force-npt.dump type id fx fy fz

fix             1 all npt temp 300.0 300.0 $(100.0*dt) aniso 1.01325 1.01325 $(1000.0*dt)
fix             1 all npt temp 300.0 300.0 0.050000000000000002776 aniso 1.01325 1.01325 $(1000.0*dt)
fix             1 all npt temp 300.0 300.0 0.050000000000000002776 aniso 1.01325 1.01325 0.5
run             10000
Neighbor list info ...
  update: every = 1 steps, delay = 10 steps, check = yes
  max neighbors/atom: 2000, page size: 100000
  master list distance cutoff = 6.3
  ghost atom cutoff = 6.3
  binsize = 3.15, bins = 8 8 23
  1 neighbor lists, perpetual/occasional/extra = 1 0 0
  (1) pair chgnet/gpu, perpetual
      attributes: full, newton on
      pair build: full/bin
      stencil: full/bin/3d
      bin: standard
Per MPI rank memory allocation (min/avg/max) = 6.515 | 6.515 | 6.515 Mbytes
   Step          Temp          PotEng         TotEng         Press          Volume        c_msd[4]   
         0   300           -5633.0339     -5573.5096      25308.222      41138.388      0            
        10   297.4688      -5634.1003     -5575.0783      24612.839      41239.054      0.0011454447 
        20   291.12372     -5637.1849     -5579.4218      22441.751      41535.653      0.0087027252 
        30   282.48399     -5641.5205     -5585.4716      19386.483      42003.51       0.033213689  
        40   273.65897     -5646.1088     -5591.8109      16186.902      42585.742      0.085158977  
        50   267.37841     -5650.288      -5597.2363      13243.695      43199.525      0.16585366   
        60   266.11424     -5654.0112     -5601.2104      10787.331      43772.151      0.26591699   
        70   271.41367     -5657.7114     -5603.8591      8898.5391      44273.97       0.37460368   
        80   283.44508     -5661.8474     -5605.6078      7538.9704      44713.399      0.4873258    
        90   300.63088     -5666.5166     -5606.8671      6572.559       45111.483      0.60460084   
       100   320.77542     -5671.5806     -5607.9341      5937.0306      45485.382      0.72828153   
       110   340.82529     -5676.6328     -5609.0082      5553.9129      45845.166      0.85956916   
       120   359.24848     -5681.4767     -5610.1966      5306.1408      46195.676      0.99854742   
       130   376.24575     -5686.2239     -5611.5713      5048.2763      46538.358      1.1444112    
       140   392.117       -5690.9766     -5613.1749      4730.9954      46872.299      1.2956569    
       150   404.77679     -5695.3345     -5615.021       4290.3339      47195.092      1.4503999    
       160   412.2693      -5698.8149     -5617.0148      3732.7404      47503.389      1.6066384    
       170   415.31858     -5701.3909     -5618.9857      3099.1701      47793.582      1.7624236    
       180   416.62668     -5703.5035     -5620.8388      2394.5903      48062.364      1.9160096    
       190   415.81049     -5705.0914     -5622.5887      1633.785       48306.771      2.0658663    
       200   409.95793     -5705.621      -5624.2794      922.74758      48524.241      2.210394     
       210   398.95179     -5705.0676     -5625.9099      322.82209      48713.244      2.3479586    
       220   386.35596     -5704.1158     -5627.4573     -202.61472      48873.439      2.4769907    
       230   375.77954     -5703.4742     -5628.9142     -639.09352      49005.2        2.5959556    
       240   368.69649     -5703.4504     -5630.2958     -1000.6076      49109.349      2.7034855    
       250   363.10216     -5703.6716     -5631.627      -1263.0435      49187.024      2.7983701    
       260   355.76995     -5703.5116     -5632.9217     -1357.2855      49239.977      2.8797026    
       270   345.58152     -5702.7356     -5634.1673     -1305.004       49271.081      2.9471779    
       280   335.53163     -5701.9142     -5635.3399     -1168.6264      49284.114      3.0012825    
       290   331.98942     -5702.3064     -5636.4349     -1081.9283      49282.895      3.0430578    
       300   336.12445     -5704.1843     -5637.4924     -1062.319       49270.23       3.0736432    
       310   342.33448     -5706.4863     -5638.5623     -1089.3331      49247.777      3.0941217    
       320   347.28317     -5708.5741     -5639.6681     -1119.9466      49216.461      3.105535     
       330   349.13085     -5710.0935     -5640.8209     -1100.8114      49177.036      3.1090408    
       340   345.40301     -5710.5311     -5641.9982     -1041.581       49130.547      3.1058469    
       350   338.1998      -5710.2601     -5643.1564     -908.38176      49078.469      3.097095     
       360   331.89        -5710.1133     -5644.2616     -750.65897      49022.695      3.0840116    
       370   325.6412      -5709.9181     -5645.3062     -614.31891      48965.176      3.0678513    
       380   317.83994     -5709.3457     -5646.2817     -465.91896      48907.481      3.0495682    
       390   310.42749     -5708.7667     -5647.1735     -287.08156      48851.102      3.0298457    
       400   307.46552     -5708.9934     -5647.9878     -187.11814      48797.592      3.0091001    
       410   310.89879     -5710.4429     -5648.7561     -189.33431      48747.595      2.9874268    
       420   316.22008     -5712.2571     -5649.5145     -229.09971      48700.678      2.9648644    
       430   318.38664     -5713.4572     -5650.2847     -214.39473      48656.121      2.9416758    
       440   317.18906     -5713.9995     -5651.0647     -165.61953      48613.746      2.9184868    
       450   315.52348     -5714.4434     -5651.839      -113.27301      48573.782      2.8959548    
       460   314.29263     -5714.9656     -5652.6054     -72.046496      48536.413      2.8747719    
       470   312.91419     -5715.4384     -5653.3517     -30.178769      48501.799      2.8556542    
       480   312.09431     -5716.0089     -5654.0849     -15.069572      48470.053      2.8390605    
       490   311.98165     -5716.7087     -5654.8071     -25.867054      48441.036      2.8250881    
       500   311.4413      -5717.3152     -5655.5208     -73.640738      48414.279      2.8135444    
       510   309.11786     -5717.5627     -5656.2293     -123.66361      48389.088      2.8042462    
       520   305.4881      -5717.5378     -5656.9246     -175.36124      48364.761      2.7971275    
       530   300.88154     -5717.2947     -5657.5955     -200.02965      48340.679      2.792051     
       540   295.68001     -5716.8929     -5658.2258     -238.78207      48316.502      2.7887631    
       550   293.45537     -5717.035      -5658.8093     -300.74354      48291.818      2.7868405    
       560   295.78678     -5718.0396     -5659.3512     -440.03483      48265.921      2.7859214    
       570   299.65376     -5719.3228     -5659.8672     -571.59422      48237.549      2.7856488    
       580   302.23474     -5720.3478     -5660.3801     -665.58893      48205.559      2.7857414    
       590   302.4379      -5720.907      -5660.899      -680.88266      48169.312      2.7861984    
       600   300.19134     -5720.9824     -5661.4202     -659.50661      48128.942      2.7875107    
       610   297.16284     -5720.8857     -5661.9244     -600.80131      48085.101      2.7904232    
       620   294.52548     -5720.8385     -5662.4004     -530.04141      48038.739      2.7955345    
       630   292.34902     -5720.8466     -5662.8403     -449.9136       47990.849      2.8030656    
       640   290.41701     -5720.8583     -5663.2354     -360.38313      47942.48       2.8129562    
       650   289.15419     -5720.9495     -5663.5771     -260.01358      47894.687      2.8250628    
       660   287.62496     -5720.9348     -5663.8659     -142.03717      47848.512      2.8392972    
       670   285.32463     -5720.7019     -5664.0894     -0.14223042     47805.093      2.8554578    
       680   283.61714     -5720.514      -5664.2403      100.2149       47765.591      2.8730868    
       690   283.11226     -5720.4866     -5664.313       163.92535      47730.718      2.8913618    
       700   283.89167     -5720.6426     -5664.3144      216.51728      47700.74       2.90941      
       710   286.02735     -5720.9978     -5664.2459      239.62389      47675.692      2.9265987    
       720   288.0873      -5721.278      -5664.1173      296.04831      47655.455      2.94234      
       730   288.55343     -5721.1897     -5663.9366      364.65297      47640.086      2.9559988    
       740   288.3883      -5720.9352     -5663.7148      423.92285      47629.794      2.9668856    
       750   289.44585     -5720.8806     -5663.4504      468.57461      47624.745      2.9745969    
       760   291.76816     -5721.0436     -5663.1526      492.26698      47624.891      2.9790197    
       770   294.74791     -5721.3102     -5662.828       493.55827      47630.013      2.9803404    
       780   297.69831     -5721.561      -5662.4934      499.79068      47639.757      2.9789348    
       790   299.98471     -5721.6812     -5662.1599      497.88938      47653.802      2.9751768    
       800   301.96005     -5721.7478     -5661.8346      454.63796      47671.779      2.9694418    
       810   303.93301     -5721.8313     -5661.5266      384.41035      47692.945      2.9620496    
       820   303.54875     -5721.4666     -5661.2381      331.60305      47716.391      2.9534131    
       830   300.53245     -5720.5994     -5660.9694      283.18003      47741.401      2.9440882    
       840   297.41139     -5719.7157     -5660.705       211.66305      47767.351      2.9346224    
       850   296.53453     -5719.2689     -5660.4322      92.445754      47793.426      2.9252596    
       860   298.42341     -5719.3575     -5660.1461     -38.844975      47818.463      2.915928     
       870   301.68733     -5719.7095     -5659.8504     -181.94825      47841.174      2.906506     
       880   304.66326     -5720.0046     -5659.5551     -283.54001      47860.302      2.8969901    
       890   306.16467     -5720.024      -5659.2766     -323.82468      47875.089      2.8876601    
       900   306.61132     -5719.8611     -5659.025      -301.15768      47885.466      2.8788977    
       910   306.76998     -5719.6685     -5658.8009     -234.44222      47891.991      2.8710131    
       920   306.56727     -5719.433      -5658.6056     -159.98878      47895.584      2.8642359    
       930   305.30665     -5719.014      -5658.4368     -75.546032      47897.243      2.8587098    
       940   302.65547     -5718.3442     -5658.2931      33.733251      47898.018      2.8545993    
       950   299.49423     -5717.5829     -5658.1589      126.80035      47899.09       2.8523266    
       960   297.54684     -5717.0662     -5658.0286      196.08219      47901.418      2.852244     
       970   298.5107      -5717.1182     -5657.8894      199.70725      47905.583      2.85448      
       980   302.12731     -5717.6902     -5657.7438      152.30177      47911.518      2.8588447    
       990   306.30505     -5718.3801     -5657.6048      98.113705      47918.646      2.8648524    
      1000   309.10862     -5718.821      -5657.4895      66.228705      47926.336      2.8720676    
      1010   309.76491     -5718.8701     -5657.4083      74.260713      47934.245      2.8802238    
      1020   308.47134     -5718.5735     -5657.3684      102.53171      47942.437      2.8891547    
      1030   306.56308     -5718.1871     -5657.3606      151.17524      47951.216      2.8986135    
      1040   305.31529     -5717.9604     -5657.3815      186.72857      47961.028      2.9083406    
      1050   305.18727     -5717.9777     -5657.4241      200.55712      47972.168      2.9180907    
      1060   306.59067     -5718.3208     -5657.4888      172.27808      47984.678      2.9276151    
      1070   309.65804     -5719.0221     -5657.5815      112.54765      47998.199      2.9366097    
      1080   313.3763      -5719.8951     -5657.7168      37.207196      48012.066      2.9447529    
      1090   315.48936     -5720.5089     -5657.9113      0.53330377     48025.539      2.9518445    
      1100   314.66185     -5720.6008     -5658.1674      2.9553378      48038.266      2.9579642    
      1110   311.62628     -5720.3104     -5658.4793      44.453776      48050.328      2.9632811    
      1120   307.85265     -5719.9153     -5658.8329      85.911139      48062.151      2.9678998    
      1130   304.39859     -5719.6033     -5659.2062      134.75118      48074.213      2.9716774    
      1140   302.0049      -5719.5103     -5659.5882      182.8284       48087.025      2.9743021    
      1150   301.06718     -5719.7043     -5659.9683      206.16667      48101.033      2.975441     
      1160   300.32263     -5719.9329     -5660.3445      214.54035      48116.406      2.9748306    
      1170   298.15392     -5719.8691     -5660.7111      244.00241      48133.214      2.9723488    
      1180   295.43894     -5719.6802     -5661.0609      265.61933      48151.651      2.968021     
      1190   294.09751     -5719.7391     -5661.386       248.73455      48171.815      2.9619585    
      1200   293.2893      -5719.8743     -5661.6815      219.34753      48193.481      2.954404     
      1210   290.84311     -5719.6501     -5661.9427      203.83173      48216.269      2.9457714    
      1220   286.75343     -5719.062      -5662.166       232.08197      48240.012      2.9365352    
      1230   283.21916     -5718.5284     -5662.3337      239.22873      48264.911      2.9271967    
      1240   282.18992     -5718.4296     -5662.439       207.04786      48290.947      2.918053     
      1250   282.92354     -5718.6123     -5662.4762      137.11633      48317.7        2.9092241    
      1260   283.76801     -5718.7507     -5662.4471      47.590619      48344.404      2.9006483    
      1270   284.64232     -5718.8339     -5662.3567     -46.455258      48370.107      2.8921236    
      1280   286.71017     -5719.0898     -5662.2024     -136.57468      48393.866      2.883386     
      1290   289.87609     -5719.5062     -5661.9907     -233.63872      48414.81       2.8742212    
      1300   293.11988     -5719.8966     -5661.7374     -314.6422       48432.075      2.8644194    
      1310   295.61069     -5720.105      -5661.4516     -356.16686      48445.025      2.8539664    
      1320   296.26913     -5719.9332     -5661.1492     -329.16997      48453.486      2.8430835    
      1330   294.56946     -5719.2843     -5660.8375     -229.24855      48457.983      2.8322643    
      1340   291.05455     -5718.2626     -5660.5132     -78.853668      48459.81       2.8222154    
      1350   288.23528     -5717.3551     -5660.1651      51.350975      48460.683      2.8136263    
      1360   288.37152     -5717.0065     -5659.7894      143.09127      48462.037      2.8068745    
      1370   290.86471     -5717.0918     -5659.3801      187.77744      48464.803      2.8020607    
      1380   293.32061     -5717.1515     -5658.9525      181.40248      48469.346      2.7991308    
      1390   293.60248     -5716.7714     -5658.5164      175.21226      48475.581      2.7979033    
      1400   291.30502     -5715.8793     -5658.0802      204.32161      48483.404      2.7982137    
      1410   288.35499     -5714.8542     -5657.6405      236.34053      48492.976      2.7999074    
      1420   287.41444     -5714.2145     -5657.1873      246.44719      48504.569      2.8029024    
      1430   289.113       -5714.0819     -5656.7177      204.03525      48518.137      2.8071023    
      1440   291.88348     -5714.1486     -5656.2347      165.94696      48533.179      2.8123581    
      1450   294.80561     -5714.2467     -5655.753       141.67608      48549.227      2.818648     
      1460   297.81198     -5714.3719     -5655.2818      124.14474      48565.974      2.8259925    
      1470   300.27884     -5714.4064     -5654.8267      114.6068       48583.214      2.8344255    
      1480   301.85496     -5714.2939     -5654.4016      116.23295      48600.837      2.8440676    
      1490   302.4832      -5714.0233     -5654.0063      130.32685      48618.838      2.8551195    
      1500   302.04422     -5713.5681     -5653.6382      164.82745      48637.377      2.8678847    
      1510   301.64383     -5713.1473     -5653.2969      191.30878      48656.791      2.8827207    
      1520   303.6193      -5713.2158     -5652.9734      192.64112      48677.324      2.899837     
      1530   307.95466     -5713.7761     -5652.6735      142.64361      48698.915      2.9191911    
      1540   312.14528     -5714.3419     -5652.4078      79.730989      48721.025      2.9403992    
      1550   314.62603     -5714.6184     -5652.1921      20.370476      48742.939      2.9627303    
      1560   315.1301      -5714.5642     -5652.0379     -18.431595      48764.079      2.9853908    
      1570   313.32905     -5714.1141     -5651.9452     -49.07768       48784.054      3.0076854    
      1580   309.30877     -5713.2788     -5651.9075     -84.194838      48802.546      3.0290302    
      1590   304.59949     -5712.3424     -5651.9055     -112.20333      48819.303      3.0489704    
      1600   301.89985     -5711.8279     -5651.9266     -180.95981      48834.024      3.0671566    
      1610   302.64435     -5712.0037     -5651.9547     -280.89656      48846.063      3.0831596    
      1620   305.34612     -5712.5801     -5651.995      -385.03078      48854.469      3.0963477    
      1630   307.77215     -5713.1268     -5652.0604     -498.80963      48858.231      3.1059336    
      1640   309.22416     -5713.5125     -5652.1579     -585.14154      48856.363      3.1110902    
      1650   309.20414     -5713.649      -5652.2985     -628.34588      48848.177      3.1112644    
      1660   307.66199     -5713.5264     -5652.4818     -632.04392      48833.482      3.1063028    
      1670   305.91424     -5713.396      -5652.6982     -597.08967      48812.55       3.0964893    
      1680   304.87937     -5713.4337     -5652.9413     -556.23363      48785.99       3.0825023    
      1690   304.5052      -5713.6208     -5653.2027     -492.40773      48754.556      3.0652452    
      1700   304.47448     -5713.8951     -5653.483      -411.06007      48719.144      3.0457715    
      1710   304.80427     -5714.2504     -5653.7728     -328.24834      48680.798      3.0252213    
      1720   305.40705     -5714.6777     -5654.0806     -228.24045      48640.622      3.0046893    
      1730   305.70159     -5715.0593     -5654.4038     -121.88572      48599.803      2.9852357    
      1740   305.24724     -5715.308      -5654.7426     -28.763504      48559.52       2.967907     
      1750   304.79907     -5715.5687     -5655.0922      65.036684      48520.796      2.9536098    
      1760   304.91373     -5715.9503     -5655.4511      140.44621      48484.557      2.9429964    
      1770   304.74055     -5716.2777     -5655.8128      188.1404       48451.505      2.9364243    
      1780   303.67285     -5716.4301     -5656.177       246.54391      48422.074      2.9340321    
      1790   302.26218     -5716.5077     -5656.5345      306.07718      48396.703      2.9358379    
      1800   301.50949     -5716.7058     -5656.882       346.31224      48375.825      2.9418271    
      1810   302.13252     -5717.1661     -5657.2187      350.2809       48359.642      2.9518286    
      1820   303.25078     -5717.7166     -5657.5473      344.72778      48348.007      2.9654231    
      1830   303.499       -5718.0963     -5657.8778      333.55833      48340.625      2.982028     
      1840   302.50439     -5718.2263     -5658.2051      345.71304      48337.184      3.0009209    
      1850   301.16353     -5718.2769     -5658.5217      342.79798      48337.581      3.0214896    
      1860   300.72306     -5718.4988     -5658.831       325.08901      48341.64       3.0431026    
      1870   301.43374     -5718.9375     -5659.1287      287.20925      48348.971      3.0650248    
      1880   302.33047     -5719.4073     -5659.4207      227.38811      48358.988      3.0865361    
      1890   302.78965     -5719.7922     -5659.7144      150.2848       48370.94       3.107011     
      1900   303.16904     -5720.1603     -5660.0072      102.83146      48383.997      3.1260202    
      1910   304.07482     -5720.6367     -5660.3039      32.40266       48397.506      3.1433071    
      1920   304.81042     -5721.0908     -5660.6121     -40.608968      48410.71       3.1587381    
      1930   304.58059     -5721.3589     -5660.9257     -115.25458      48422.832      3.1722491    
      1940   302.712       -5721.308      -5661.2456     -154.32666      48433.178      3.1837589    
      1950   299.24087     -5720.9308     -5661.5571     -190.4554       48441.361      3.1932296    
      1960   295.49942     -5720.4814     -5661.8501     -217.07665      48447.12       3.2005227    
      1970   293.20789     -5720.2885     -5662.1118     -265.58006      48450.235      3.205457     
      1980   293.21349     -5720.5151     -5662.3374     -357.54818      48450.283      3.2076933    
      1990   294.61104     -5720.9905     -5662.5354     -444.45171      48446.46       3.2068201    
      2000   295.3605      -5721.3142     -5662.7105     -500.08128      48438.011      3.2025613    
      2010   294.23104     -5721.245      -5662.8653     -512.54119      48424.558      3.1948079    
      2020   292.32094     -5720.9993     -5662.9986     -498.84734      48406.17       3.1837044    
      2030   292.02588     -5721.0458     -5663.1037     -477.05521      48383.216      3.1697413    
      2040   293.60921     -5721.4362     -5663.1799     -456.01127      48356.11       3.1536386    
      2050   295.7138      -5721.9056     -5663.2318     -417.73314      48325.282      3.1360727    
      2060   296.85205     -5722.1667     -5663.267      -347.58195      48291.326      3.1177097    
      2070   296.29726     -5722.0789     -5663.2892     -226.99197      48255.17       3.0991783    
      2080   294.49853     -5721.7244     -5663.2916     -81.750682      48218.152      3.0811719    
      2090   293.07149     -5721.4197     -5663.2701      76.627462      48181.869      3.0644419    
      2100   293.37997     -5721.4296     -5663.2188      216.33202      48147.949      3.0497757    
      2110   295.13602     -5721.698      -5663.1388      344.378        48117.781      3.037933     
      2120   297.06782     -5721.9781     -5663.0356      434.09423      48092.499      3.0296146    
      2130   298.20525     -5722.0858     -5662.9176      529.02527      48072.927      3.0253707    
      2140   298.42761     -5722.0049     -5662.7926      610.36082      48059.804      3.0256819    
      2150   297.98181     -5721.7855     -5662.6617      650.95117      48053.685      3.0309144    
      2160   297.47224     -5721.5446     -5662.5218      667.01732      48054.761      3.0412543    
      2170   297.5686      -5721.4156     -5662.3738      622.76478      48062.84       3.056653     
      2180   298.43814     -5721.4299     -5662.2155      565.85512      48077.237      3.0767369    
      2190   299.83383     -5721.5427     -5662.0514      468.60111      48097.059      3.1009225    
      2200   301.63401     -5721.7324     -5661.8839      325.68866      48121.059      3.1283787    
      2210   303.35578     -5721.9093     -5661.7192      181.34755      48147.605      3.1580868    
      2220   303.98942     -5721.8774     -5661.5616      42.608645      48175.046      3.1889728    
      2230   303.03935     -5721.5457     -5661.4183     -87.023656      48201.877      3.2199165    
      2240   301.1354      -5721.0322     -5661.2827     -185.82733      48226.779      3.2497601    
      2250   299.57717     -5720.5873     -5661.1469     -281.23885      48248.72       3.277499     
      2260   299.23601     -5720.3848     -5661.0121     -381.7581       48266.761      3.3023063    
      2270   299.69363     -5720.3331     -5660.8696     -470.10382      48279.991      3.3234536    
      2280   299.98674     -5720.2452     -5660.7236     -524.42073      48287.686      3.3403564    
      2290   300.46117     -5720.1929     -5660.5771     -566.84135      48289.448      3.3525557    
      2300   301.56379     -5720.2657     -5660.4312     -591.6415       48285.053      3.3596981    
      2310   302.21809     -5720.2548     -5660.2904     -576.52526      48274.495      3.3618021    
      2320   301.66105     -5720.0123     -5660.1585     -508.86718      48258.194      3.3592458    
      2330   300.59535     -5719.6725     -5660.0301     -400.57369      48237.091      3.3527277    
      2340   300.00295     -5719.4227     -5659.8978     -286.81875      48212.494      3.343245     
      2350   299.39001     -5719.1697     -5659.7664     -154.73196      48185.797      3.3320131    
      2360   298.42768     -5718.8375     -5659.6252     -19.5087        48158.462      3.3202274    
      2370   298.01621     -5718.6017     -5659.471       97.482099      48131.944      3.3089162    
      2380   298.62191     -5718.5581     -5659.3072      196.78397      48107.478      3.298938     
      2390   299.74043     -5718.6042     -5659.1315      278.03573      48086.021      3.290814     
      2400   300.76893     -5718.6266     -5658.9497      356.23509      48068.336      3.2847842    
      2410   301.4317      -5718.5731     -5658.7648      422.94227      48055.102      3.2809457    
      2420   301.36753     -5718.379      -5658.5834      499.02746      48046.871      3.2792463    
      2430   299.81758     -5717.8934     -5658.4053      565.70793      48044.26       3.2797285    
      2440   297.67242     -5717.2899     -5658.2274      611.90044      48047.772      3.2824475    
      2450   297.56942     -5717.0841     -5658.0421      619.69472      48057.649      3.2874659    
      2460   300.0555      -5717.3785     -5657.8432      568.57289      48073.75       3.2948728    
      2470   302.87964     -5717.7382     -5657.6425      486.74557      48095.355      3.3046044    
      2480   304.44472     -5717.8579     -5657.4517      390.04592      48121.41       3.3163183    
      2490   304.86293     -5717.7634     -5657.2743      282.55834      48150.751      3.3292042    
      2500   304.91599     -5717.614      -5657.1143      166.72408      48182.132      3.3421977    
      2510   304.78732     -5717.4452     -5656.971       44.084627      48214.267      3.3542405    
      2520   304.67423     -5717.2917     -5656.84       -90.877237      48245.788      3.3643696    
      2530   305.38035     -5717.3199     -5656.7281     -241.41248      48275.258      3.3717905    
      2540   306.97035     -5717.5378     -5656.6305     -374.58039      48301.168      3.3759121    
      2550   308.80809     -5717.8293     -5656.5574     -489.58944      48322.165      3.3762942    
      2560   310.25234     -5718.0765     -5656.518      -550.34298      48337.225      3.3727954    
      2570   311.01274     -5718.23       -5656.5206     -586.75722      48345.848      3.365653     
      2580   311.18406     -5718.3138     -5656.5705     -592.69343      48347.87       3.3553539    
      2590   310.9283      -5718.3684     -5656.6758     -595.13965      48343.39       3.3424735    
      2600   310.01073     -5718.3552     -5656.8447     -544.36653      48332.681      3.3274917    
      2610   308.02339     -5718.193      -5657.0767     -458.26927      48316.477      3.3109553    
      2620   305.13788     -5717.9238     -5657.3801     -364.22763      48295.835      3.2934852    
      2630   302.35021     -5717.7327     -5657.7421     -277.99263      48271.889      3.2757224    
      2640   300.54093     -5717.7825     -5658.1508     -185.24079      48245.711      3.2582199    
      2650   299.25813     -5717.967      -5658.5899     -103.4142       48218.353      3.2415233    
      2660   297.9025      -5718.1428     -5659.0347     -14.900114      48190.769      3.2261134    
      2670   297.28904     -5718.4431     -5659.4567      58.188869      48163.883      3.2123243    
      2680   297.97531     -5718.9573     -5659.8347      117.53625      48138.461      3.2004272    
      2690   299.08703     -5719.5048     -5660.1616      156.48099      48115.08       3.190733     
      2700   299.60775     -5719.879      -5660.4326      199.24815      48094.098      3.1834895    
      2710   299.52039     -5720.0823     -5660.6531      264.42926      48075.894      3.1789534    
      2720   299.32194     -5720.2185     -5660.8287      332.01556      48061.059      3.1774096    
      2730   299.28119     -5720.3481     -5660.9665      383.15341      48050.195      3.1790372    
      2740   299.14118     -5720.4316     -5661.0777      416.87614      48043.73       3.1839096    
      2750   298.3569      -5720.3624     -5661.1641      452.24363      48041.917      3.1919796    
      2760   297.06453     -5720.1738     -5661.232       485.46013      48044.99       3.2031516    
      2770   296.23478     -5720.061      -5661.2838      483.83693      48053.137      3.2172224    
      2780   296.85569     -5720.217      -5661.3166      437.09346      48066.195      3.2337558    
      2790   298.73173     -5720.6074     -5661.3348      373.44549      48083.568      3.2520715    
      2800   300.77907     -5721.0271     -5661.3482      305.44669      48104.452      3.2714783    
      2810   301.95134     -5721.2736     -5661.3621      246.10761      48128.062      3.2914263    
      2820   301.80751     -5721.2666     -5661.3837      197.02212      48153.686      3.3115505    
      2830   300.61087     -5721.0579     -5661.4124      159.10504      48180.757      3.3315729    
      2840   299.46114     -5720.8572     -5661.4398      105.58894      48208.804      3.3511616    
      2850   299.08762     -5720.8092     -5661.4659      26.442869      48237.226      3.3698495    
      2860   299.89336     -5720.9883     -5661.4851     -81.519859      48265.149      3.3871426    
      2870   301.86112     -5721.3999     -5661.5063     -196.17275      48291.428      3.40263      
      2880   304.25045     -5721.9005     -5661.5329     -309.41578      48314.868      3.4159522    
      2890   305.72605     -5722.2389     -5661.5785     -403.16817      48334.353      3.4267527    
      2900   305.74763     -5722.3151     -5661.6504     -472.85824      48348.983      3.4346781    
      2910   304.61047     -5722.1854     -5661.7463     -509.85648      48358.109      3.4394285    
      2920   302.66759     -5721.925      -5661.8715     -509.51546      48361.481      3.440831     
      2930   300.42554     -5721.6226     -5662.0138     -505.46638      48359.225      3.4388652    
      2940   298.09975     -5721.3127     -5662.1655     -474.80651      48351.559      3.4335419    
      2950   295.37047     -5720.9242     -5662.3185     -423.56118      48338.935      3.4249288    
      2960   292.39209     -5720.4749     -5662.4601     -342.75179      48322.045      3.4132823    
      2970   290.42498     -5720.2064     -5662.5819     -243.57276      48301.886      3.3991512    
      2980   290.49507     -5720.3086     -5662.6702     -170.50985      48279.58       3.3832944    
      2990   291.91858     -5720.6503     -5662.7294     -94.718511      48256.005      3.3665875    
      3000   292.89022     -5720.8722     -5662.7586     -11.329285      48232.004      3.3500722    
      3010   292.79251     -5720.8568     -5662.7626      91.63627       48208.51       3.3349033    
      3020   292.48728     -5720.7711     -5662.7375      190.98645      48186.583      3.322255     
      3030   293.03103     -5720.818      -5662.6764      254.71493      48167.205      3.3130479    
      3040   294.29003     -5720.974      -5662.5826      291.49496      48151.008      3.3077625    
      3050   295.47699     -5721.0765     -5662.4497      321.70963      48138.348      3.3064693    
      3060   296.24548     -5721.0582     -5662.2789      351.63652      48129.468      3.3089034    
      3070   296.82189     -5720.9594     -5662.0656      366.65499      48124.561      3.3147258    
      3080   297.46885     -5720.8312     -5661.8091      380.89211      48123.73       3.323637     
      3090   298.76861     -5720.7887     -5661.5087      357.95778      48126.981      3.3354131    
      3100   300.86302     -5720.8693     -5661.1737      324.98028      48134.011      3.3498531    
      3110   303.08265     -5720.9572     -5660.8212      276.49514      48144.37       3.3667637    
      3120   305.23763     -5721.03       -5660.4665      238.08518      48157.504      3.3858874    
      3130   307.37817     -5721.123      -5660.1348      169.30582      48172.865      3.4069382    
      3140   309.396       -5721.2263     -5659.8377      113.22627      48189.7        3.4294169    
      3150   310.76748     -5721.252      -5659.5912      57.73778       48207.336      3.4526904    
      3160   311.0445      -5721.1165     -5659.4008      29.04802       48225.197      3.4759446    
      3170   310.33713     -5720.8396     -5659.2643     -4.5617753      48242.923      3.4984101    
      3180   309.22284     -5720.528      -5659.1737     -41.933338      48260.154      3.5193123    
      3190   308.22463     -5720.2782     -5659.122      -71.487709      48276.517      3.5379126    
      3200   307.58394     -5720.131      -5659.1019     -108.77221      48291.659      3.5536307    
      3210   307.76375     -5720.1768     -5659.112      -145.82072      48305.226      3.566037     
      3220   308.86368     -5720.4324     -5659.1494     -208.66249      48316.828      3.5748683    
      3230   310.27821     -5720.788      -5659.2243     -279.346        48325.861      3.5799858    
      3240   310.82809     -5721.011      -5659.3382     -338.57584      48331.624      3.5814084    
      3250   309.93065     -5720.9938     -5659.4991     -367.95596      48333.595      3.5792879    
      3260   307.71365     -5720.755      -5659.7002     -364.16537      48331.553      3.5738876    
      3270   304.86668     -5720.4221     -5659.9322     -345.3406       48325.601      3.5656737    
      3280   301.82961     -5720.0629     -5660.1755     -302.62516      48316.061      3.5552858    
      3290   299.3634      -5719.8175     -5660.4195     -257.03613      48303.481      3.5435121    
      3300   298.55067     -5719.886      -5660.6493     -225.74564      48288.405      3.5310969    
      3310   299.46596     -5720.2808     -5660.8624     -201.10713      48271.236      3.5185961    
      3320   300.75596     -5720.736      -5661.0617     -187.14096      48252.279      3.5063975    
      3330   300.9689      -5720.9634     -5661.2468     -149.57027      48231.77       3.4947513    
      3340   300.16318     -5720.9747     -5661.4181     -103.81057      48210.126      3.4839288    
      3350   299.07548     -5720.9128     -5661.572      -58.328296      48187.86       3.4742642    
      3360   298.36741     -5720.9048     -5661.7044      2.2390132      48165.507      3.4660035    
      3370   298.12343     -5720.9637     -5661.8118      48.937656      48143.691      3.4592675    
      3380   298.13035     -5721.0513     -5661.8979      79.947166      48122.888      3.4539612    
      3390   298.4549      -5721.1794     -5661.9617      126.44645      48103.452      3.4499473    
      3400   299.25493     -5721.3867     -5662.0103      148.65586      48085.803      3.4471597    
      3410   300.55594     -5721.6841     -5662.0495      157.12114      48070.163      3.4454835    
      3420   301.95968     -5721.9961     -5662.083       171.62923      48056.586      3.4446528    
      3430   302.95924     -5722.2305     -5662.119       180.69094      48045.143      3.4443525    
      3440   303.211       -5722.3213     -5662.1599      186.77707      48035.877      3.4443288    
      3450   302.71326     -5722.2708     -5662.2081      208.47888      48028.837      3.4445211    
      3460   301.67474     -5722.1162     -5662.2596      250.23843      48024.212      3.4451249    
      3470   300.30706     -5721.8976     -5662.3124      277.92422      48022.356      3.4465601    
      3480   298.61465     -5721.6097     -5662.3603      303.84384      48023.534      3.4491957    
      3490   297.03484     -5721.3344     -5662.3984      328.31126      48027.962      3.4533163    
      3500   296.41986     -5721.2373     -5662.4234      315.16801      48035.8        3.4590619    
      3510   296.71796     -5721.308      -5662.4349      294.8414       48046.893      3.4664889    
      3520   297.07506     -5721.3776     -5662.4336      270.95535      48060.966      3.4756764    
      3530   297.36844     -5721.4204     -5662.4183      219.41642      48077.67       3.4865932    
      3540   298.10096     -5721.5449     -5662.3974      148.87665      48096.408      3.4989729    
      3550   298.82284     -5721.6581     -5662.3673      77.538211      48116.405      3.5123533    
      3560   298.70331     -5721.5988     -5662.3317      23.510173      48136.885      3.5261878    
      3570   298.12226     -5721.4417     -5662.2899     -18.306976      48157.268      3.5399276    
      3580   297.92081     -5721.353      -5662.2413     -47.503963      48177.103      3.5530191    
      3590   298.3081      -5721.3735     -5662.1849     -65.094608      48196.08       3.5649805    
      3600   299.18766     -5721.486      -5662.1228     -79.852926      48214.019      3.5754385    
      3610   300.43569     -5721.6658     -5662.055      -97.894741      48230.765      3.5840249    
      3620   301.85036     -5721.8807     -5661.9893     -120.09779      48246.157      3.5905375    
      3630   303.09292     -5722.0679     -5661.9299     -156.72393      48259.954      3.5949675    
      3640   304.17706     -5722.2301     -5661.877      -191.75393      48271.806      3.5973376    
      3650   304.90416     -5722.3389     -5661.8415     -228.362        48281.361      3.5976657    
      3660   304.81165     -5722.3019     -5661.8229     -246.83799      48288.285      3.5959699    
      3670   303.78742     -5722.1001     -5661.8243     -253.35937      48292.401      3.5923276    
      3680   302.36041     -5721.8342     -5661.8416     -249.77411      48293.694      3.5868769    
      3690   301.37745     -5721.6698     -5661.8722     -230.26635      48292.267      3.5798391    
      3700   301.15034     -5721.6676     -5661.9151     -212.17137      48288.339      3.571486     
      3710   301.25411     -5721.7445     -5661.9714     -195.62645      48282.146      3.5621616    
      3720   301.23751     -5721.8112     -5662.0413     -193.11143      48273.902      3.5522777    
      3730   300.45901     -5721.7489     -5662.1335     -155.56279      48263.732      3.5422684    
      3740   298.41331     -5721.4559     -5662.2465     -104.75825      48252.029      3.5326762    
      3750   295.60797     -5721.03       -5662.3772     -46.525661      48239.358      3.5239696    
      3760   293.46921     -5720.7429     -5662.5144      4.8895629      48226.357      3.516517     
      3770   292.6992      -5720.7297     -5662.654       35.495715      48213.584      3.5107272    
      3780   292.7572      -5720.8711     -5662.7839      59.245161      48201.371      3.5069284    
      3790   292.69543     -5720.9824     -5662.9075      76.837183      48189.962      3.5052908    
      3800   292.06648     -5720.9637     -5663.0136      93.446255      48179.544      3.5059015    
      3810   290.92468     -5720.8279     -5663.1043      121.5987       48170.315      3.5087652    
      3820   289.36019     -5720.5774     -5663.1642      145.67368      48162.53       3.5138226    
      3830   287.81455     -5720.2965     -5663.19        172.26955      48156.452      3.520992     
      3840   286.84415     -5720.0815     -5663.1676      187.76822      48152.312      3.5301112    
      3850   287.0125      -5720.0394     -5663.092       173.39336      48150.22       3.5409362    
      3860   288.29092     -5720.1621     -5662.9611      139.46807      48150.017      3.5531278    
      3870   290.23203     -5720.3606     -5662.7744      95.892769      48151.329      3.5662983    
      3880   292.60372     -5720.5917     -5662.5349      51.337555      48153.67       3.580052     
      3890   294.94162     -5720.7748     -5662.2541      2.5220506      48156.528      3.5940294    
      3900   296.43293     -5720.762      -5661.9454     -41.10885       48159.364      3.6078683    
      3910   296.72569     -5720.5005     -5661.6259     -48.923848      48161.748      3.6211897    
      3920   296.33713     -5720.0936     -5661.2961     -38.42589       48163.578      3.6336932    
      3930   296.01928     -5719.7076     -5660.9732     -17.759957      48164.967      3.6450771    
      3940   296.18466     -5719.4205     -5660.6533     -0.69522943     48166.133      3.6550262    
      3950   296.57158     -5719.1913     -5660.3472      32.142225      48167.294      3.663202     
      3960   296.96608     -5718.9781     -5660.0558      77.520144      48168.811      3.6694264    
      3970   297.89107     -5718.8914     -5659.7855      129.63668      48171.158      3.6735634    
      3980   299.88299     -5719.0397     -5659.5386      158.75288      48174.855      3.6754064    
      3990   302.70001     -5719.3773     -5659.3173      177.67437      48180.237      3.6746681    
      4000   305.48262     -5719.745      -5659.1329      173.72977      48187.473      3.6712348    
      4010   307.05979     -5719.9109     -5658.9858      165.21733      48196.505      3.6651242    
      4020   306.73318     -5719.7373     -5658.877       183.85213      48207.247      3.6565663    
      4030   304.55343     -5719.2305     -5658.8027      216.21409      48219.875      3.6462037    
      4040   301.67497     -5718.6031     -5658.7465      239.87863      48234.704      3.6348616    
      4050   299.0242      -5718.0322     -5658.7015      248.72255      48251.96       3.623149     
      4060   296.86818     -5717.5529     -5658.65        225.56968      48271.677      3.6113731    
      4070   295.72269     -5717.2643     -5658.5887      171.55712      48293.572      3.5995527    
      4080   296.21646     -5717.2804     -5658.5068      80.516278      48317.04       3.5876343    
      4090   297.74121     -5717.4862     -5658.4101     -59.311063      48341.033      3.575474     
      4100   299.3377      -5717.6884     -5658.2955     -192.35074      48364.063      3.5628307    
      4110   301.04949     -5717.9121     -5658.1796     -326.0581       48384.673      3.5494744    
      4120   303.02626     -5718.1871     -5658.0624     -441.33527      48401.448      3.5350909    
      4130   305.13858     -5718.498      -5657.9542     -557.44237      48413.134      3.5194706    
      4140   306.93279     -5718.7668     -5657.867      -637.9113       48418.571      3.5024896    
      4150   308.0361      -5718.9265     -5657.8077     -653.23717      48416.99       3.4841685    
      4160   308.70922     -5719.0364     -5657.784      -626.68317      48408.291      3.4647581    
      4170   309.6327      -5719.2341     -5657.7986     -559.87107      48392.87       3.4446104    
      4180   311.31567     -5719.6282     -5657.8587     -483.28313      48371.524      3.4241674    
      4190   313.26254     -5720.1306     -5657.9748     -386.73963      48345.199      3.4039261    
      4200   314.60282     -5720.5822     -5658.1604     -263.96488      48315.041      3.384506     
      4210   314.79109     -5720.8839     -5658.4249     -129.84416      48282.449      3.3666186    
      4220   313.5668      -5720.9934     -5658.7773      14.132647      48248.941      3.3511085    
      4230   310.84707     -5720.8802     -5659.2037      146.7528       48216.061      3.3388798    
      4240   307.22993     -5720.6385     -5659.6797      272.28109      48185.247      3.3307881    
      4250   303.76462     -5720.4335     -5660.1622      360.18607      48157.796      3.3275856    
      4260   301.17317     -5720.3665     -5660.6094      409.33113      48134.607      3.3297273    
      4270   299.46588     -5720.4144     -5660.9961      428.73689      48116.156      3.3373579    
      4280   298.10865     -5720.4532     -5661.3042      447.88079      48102.621      3.3502936    
      4290   296.88166     -5720.4496     -5661.544       461.48842      48094.119      3.368097     
      4300   296.22608     -5720.4983     -5661.7228      464.02248      48090.727      3.3902251    
      4310   296.60465     -5720.6993     -5661.8487      445.55771      48092.398      3.416026     
      4320   298.00752     -5721.074      -5661.945       397.58335      48098.842      3.4447155    
      4330   299.7514      -5721.4922     -5662.0172      344.6842       48109.483      3.4754468    
      4340   301.20933     -5721.8401     -5662.0758      287.85532      48123.673      3.5073647    
      4350   302.49731     -5722.1565     -5662.1367      232.17502      48140.76       3.5397396    
      4360   304.07499     -5722.5311     -5662.1983      154.38377      48160.054      3.5719624    
      4370   305.77039     -5722.9442     -5662.275       88.298742      48180.735      3.6034605    
      4380   306.81028     -5723.2441     -5662.3686      0.50557082     48202.012      3.6336447    
      4390   306.65518     -5723.3313     -5662.4865     -76.483023      48222.954      3.6618217    
      4400   305.25221     -5723.1932     -5662.6268     -150.01784      48242.723      3.687379     
      4410   302.78178     -5722.8607     -5662.7845     -195.00162      48260.576      3.7098098    
      4420   299.82177     -5722.4366     -5662.9477     -231.34621      48276.014      3.7288811    
      4430   297.26616     -5722.092      -5663.1102     -271.46357      48288.663      3.7444692    
      4440   295.7569      -5721.9456     -5663.2632     -297.80308      48298.175      3.7565121    
      4450   295.19811     -5721.9716     -5663.4        -323.70447      48304.291      3.7650513    
      4460   294.71583     -5721.9965     -5663.5206     -317.25338      48306.811      3.7703237    
      4470   293.70053     -5721.8965     -5663.6221     -281.43492      48305.847      3.77282      
      4480   292.04685     -5721.6504     -5663.7041     -224.07955      48301.832      3.773156     
      4490   290.15477     -5721.3267     -5663.7558     -152.2339       48295.442      3.771985     
      4500   288.94903     -5721.0981     -5663.7665     -77.374073      48287.492      3.7699208    
      4510   289.12139     -5721.104      -5663.7382     -29.79597       48278.801      3.7674469    
      4520   290.35668     -5721.2739     -5663.663      -11.860549      48269.885      3.7647968    
      4530   291.88938     -5721.4548     -5663.5398      14.156483      48260.979      3.7619764    
      4540   293.53717     -5721.6171     -5663.3751      22.328857      48252.339      3.7588652    
      4550   295.55866     -5721.8126     -5663.1696      8.7833584      48244.046      3.7551711    
      4560   297.7257      -5722.0078     -5662.9348     -30.252865      48235.936      3.7504962    
      4570   299.36731     -5722.0745     -5662.6757     -65.690144      48227.622      3.7443346    
      4580   300.42474     -5722.0115     -5662.4029     -82.672493      48218.749      3.7361938    
      4590   301.44282     -5721.9357     -5662.1251     -106.37343      48209.107      3.7257929    
      4600   302.61132     -5721.8939     -5661.8515     -115.47355      48198.486      3.7132042    
      4610   303.76775     -5721.8573     -5661.5854     -116.91623      48186.797      3.6987697    
      4620   304.77146     -5721.8104     -5661.3394     -112.62176      48174.025      3.682992     
      4630   305.37498     -5721.7097     -5661.1189     -94.290855      48160.249      3.6663946    
      4640   305.44545     -5721.5303     -5660.9255     -43.295828      48145.699      3.6494381    
      4650   305.22473     -5721.3234     -5660.7624      9.9663826      48130.907      3.6325424    
      4660   305.09311     -5721.1608     -5660.6259      57.303031      48116.443      3.6159923    
      4670   305.40913     -5721.1139     -5660.5163      104.0413       48102.814      3.600012     
      4680   306.16266     -5721.1794     -5660.4324      156.72776      48090.506      3.5848631    
      4690   307.38566     -5721.3647     -5660.375       191.62535      48080.025      3.5709328    
      4700   309.20315     -5721.702      -5660.3517      213.86157      48071.755      3.5587039    
      4710   311.16293     -5722.1038     -5660.3646      230.32565      48065.906      3.5487149    
      4720   312.22114     -5722.3729     -5660.4238      238.18437      48062.598      3.5414811    
      4730   311.45353     -5722.3301     -5660.5332      249.97548      48061.903      3.5373928    
      4740   308.68261     -5721.9342     -5660.6872      275.40255      48063.935      3.5366977    
      4750   304.90813     -5721.3717     -5660.8736      304.77556      48068.935      3.5395247    
      4760   301.95821     -5720.9879     -5661.0751      309.7597       48077.149      3.5458913    
      4770   300.64487     -5720.933      -5661.2807      272.99776      48088.559      3.5557319    
      4780   300.19517     -5721.0472     -5661.4842      229.58473      48102.792      3.5687475    
      4790   299.71431     -5721.1487     -5661.6811      179.89472      48119.334      3.5844821    
      4800   298.84382     -5721.16       -5661.8651      124.93969      48137.628      3.6023886    
      4810   297.52535     -5721.0663     -5662.033       80.331173      48157.072      3.6218557    
      4820   295.99411     -5720.9077     -5662.1782      36.752717      48177.161      3.6422749    
      4830   294.73213     -5720.774      -5662.295      -0.94596479     48197.435      3.6630934    
      4840   294.14798     -5720.7407     -5662.3775     -46.104631      48217.46       3.6839143    
      4850   294.20229     -5720.8041     -5662.4301     -102.24799      48236.748      3.7044076    
      4860   294.39065     -5720.8645     -5662.4532     -142.2785       48254.734      3.7242344    
      4870   294.40348     -5720.8678     -5662.4539     -178.43465      48270.978      3.743105     
      4880   294.69529     -5720.9059     -5662.4341     -212.13788      48285.103      3.7607712    
      4890   296.04944     -5721.1417     -5662.4013     -246.65697      48296.761      3.7770696    
      4900   297.93831     -5721.4764     -5662.3612     -289.21574      48305.579      3.7919504    
      4910   299.29853     -5721.7104     -5662.3253     -323.7539       48311.136      3.8053598    
      4920   299.62023     -5721.7441     -5662.2952     -330.12567      48313.122      3.8172845    
      4930   299.40275     -5721.6775     -5662.2717     -312.75852      48311.503      3.8278172    
      4940   299.4064      -5721.6552     -5662.2486     -296.01991      48306.472      3.8370969    
      4950   300.19486     -5721.7939     -5662.231      -271.86345      48298.255      3.8452293    
      4960   301.32253     -5722.002      -5662.2152     -247.67992      48287.132      3.8522989    
      4970   302.09624     -5722.1459     -5662.2057     -208.50263      48273.407      3.8583791    
      4980   302.22323     -5722.17       -5662.2046     -135.65472      48257.563      3.8634952    
      4990   302.16932     -5722.1627     -5662.208      -26.001695      48240.425      3.8677119    
      5000   302.2963      -5722.2023     -5662.2224      70.76768       48223.149      3.8711701    
      5010   302.50489     -5722.2631     -5662.2418      176.80388      48206.821      3.8738931    
      5020   302.56278     -5722.3033     -5662.2706      286.13952      48192.558      3.8759946    
      5030   302.83099     -5722.3945     -5662.3085      359.55012      48181.484      3.8777521    
      5040   303.37403     -5722.5535     -5662.3597      390.03883      48174.378      3.8793516    
      5050   303.99757     -5722.7461     -5662.4286      385.16768      48171.551      3.8808233    
      5060   304.68611     -5722.9709     -5662.5169      340.5717       48172.907      3.8822463    
      5070   305.4434      -5723.2328     -5662.6284      279.49838      48177.967      3.8836057    
      5080   306.2561      -5723.5316     -5662.766       188.98039      48186.022      3.8847722    
      5090   306.6871      -5723.7865     -5662.9354      83.421198      48196.072      3.885367     
      5100   306.45831     -5723.9443     -5663.1386     -10.635257      48206.973      3.8848713    
      5110   305.6093      -5724.0081     -5663.3708     -104.28         48217.682      3.8828529    
      5120   304.22549     -5723.9934     -5663.6307     -181.51541      48227.213      3.8789339    
      5130   302.47925     -5723.9249     -5663.9087     -259.83         48234.696      3.8728372    
      5140   300.71035     -5723.8557     -5664.1905     -310.47996      48239.316      3.86445      
      5150   299.18016     -5723.8308     -5664.4692     -344.40505      48240.538      3.853834     
      5160   297.63171     -5723.7876     -5664.7332     -366.15053      48237.999      3.8412215    
      5170   295.69175     -5723.6426     -5664.9731     -362.02051      48231.474      3.8269912    
      5180   293.08864     -5723.3353     -5665.1823     -329.95654      48221.041      3.8116722    
      5190   290.08841     -5722.9072     -5665.3495     -279.14991      48207.063      3.7958356    
      5200   287.6427      -5722.5425     -5665.47       -189.61208      48190.159      3.7800218    
      5210   286.75734     -5722.4319     -5665.5351     -103.97757      48171.281      3.7647993    
      5220   287.53377     -5722.6003     -5665.5495     -29.529335      48151.334      3.7506346    
      5230   289.33719     -5722.927      -5665.5184      48.472036      48131.154      3.7378969    
      5240   291.59993     -5723.3027     -5665.4451      136.28314      48111.607      3.7268506    
      5250   293.78819     -5723.636      -5665.3442      234.67144      48093.643      3.7177647    
      5260   295.28808     -5723.8096     -5665.2202      325.62555      48078.287      3.7108956    
      5270   295.70926     -5723.7554     -5665.0824      411.00713      48066.518      3.7065348    
      5280   295.19952     -5723.5001     -5664.9283      470.2629       48059.223      3.7049675    
      5290   294.14302     -5723.1266     -5664.7644      516.88676      48057.039      3.7064156    
      5300   293.14247     -5722.7501     -5664.5865      552.23871      48060.473      3.7111562    
      5310   292.41522     -5722.4099     -5664.3905      552.03075      48069.855      3.7193964    
      5320   292.4855      -5722.21       -5664.1766      530.27026      48085.203      3.7310828    
      5330   293.8221      -5722.2484     -5663.9499      459.77166      48106.259      3.7459277    
      5340   296.22902     -5722.493      -5663.717       350.23955      48132.279      3.7634298    
      5350   298.64566     -5722.7461     -5663.4905      226.12349      48162.091      3.782981     
      5360   300.11164     -5722.8237     -5663.2773      107.45392      48194.356      3.8040069    
      5370   300.33431     -5722.6875     -5663.0969      6.828652       48227.786      3.8260575    
      5380   300.09871     -5722.4846     -5662.9407     -88.635021      48261.268      3.8487403    
      5390   300.34848     -5722.4048     -5662.8113     -196.56175      48293.738      3.8715218    
      5400   301.07244     -5722.4399     -5662.7029     -298.74577      48324.035      3.8937652    
      5410   301.56618     -5722.4517     -5662.6166     -383.26943      48351.046      3.9147482    
      5420   301.19756     -5722.3114     -5662.5495     -430.90284      48373.857      3.9338156    
      5430   299.73403     -5721.9701     -5662.4986     -445.5867       48391.923      3.9504953    
      5440   297.30927     -5721.4471     -5662.4567     -421.19949      48405.1        3.9645524    
      5450   294.72117     -5720.889      -5662.4121     -382.43609      48413.629      3.9759484    
      5460   293.44396     -5720.5796     -5662.3561     -354.30372      48417.925      3.9847085    
      5470   294.20547     -5720.6554     -5662.2808     -343.55079      48418.301      3.9908104    
      5480   296.69935     -5721.0637     -5662.1943     -332.20752      48414.873      3.9941702    
      5490   299.96341     -5721.6171     -5662.1        -327.9345       48407.743      3.994664     
      5500   303.33686     -5722.1968     -5662.0104     -322.87313      48396.978      3.9921964    
      5510   306.6277      -5722.7827     -5661.9434     -296.72111      48382.665      3.9868627    
      5520   309.58448     -5723.3291     -5661.9031     -254.18666      48365.096      3.9789222    
      5530   311.47694     -5723.7048     -5661.9033     -223.21313      48344.7        3.9686872    
      5540   311.78522     -5723.8099     -5661.9473     -165.31326      48321.88       3.9564839    
      5550   310.72809     -5723.6909     -5662.038      -94.236617      48297.269      3.9428085    
      5560   308.75525     -5723.4309     -5662.1694     -23.772105      48271.629      3.9282793    
      5570   306.20409     -5723.09       -5662.3347      33.202119      48245.717      3.9135252    
      5580   303.43144     -5722.7271     -5662.5219      84.930706      48220.171      3.8990383    
      5590   300.5311      -5722.351      -5662.7213      132.80763      48195.544      3.8851519    
      5600   297.65772     -5721.9785     -5662.919       184.47873      48172.358      3.8720062    
      5610   295.10093     -5721.6544     -5663.1022      232.67998      48151.154      3.8597594    
      5620   293.50015     -5721.4999     -5663.2652      274.94264      48132.455      3.8487109    
      5630   292.86882     -5721.5109     -5663.4015      295.7782       48116.693      3.8391455    
      5640   292.62038     -5721.5687     -5663.5087      314.80613      48104.133      3.8311853    
      5650   292.29799     -5721.5841     -5663.588       331.16709      48094.987      3.824808     
      5660   291.80812     -5721.5391     -5663.6402      363.02229      48089.449      3.8198859    
      5670   291.58617     -5721.5142     -5663.6593      380.80826      48087.845      3.8162679    
      5680   292.19047     -5721.6244     -5663.6496      381.25212      48090.403      3.8136526    
      5690   293.7542      -5721.8939     -5663.6089      340.7405       48097.091      3.8116222    
      5700   295.90297     -5722.255      -5663.5436      311.80601      48107.542      3.8096098    
      5710   298.23078     -5722.63       -5663.4567      258.94369      48121.407      3.8071633    
      5720   300.7342      -5723.0226     -5663.3526      189.0575       48138.144      3.803827     
      5730   303.56388     -5723.4705     -5663.239       117.86259      48157.012      3.799228     
      5740   306.19339     -5723.8744     -5663.1212      49.866401      48177.245      3.7931501    
      5750   307.87796     -5724.0985     -5663.0111     -35.755056      48198.063      3.7854343    
      5760   308.05856     -5724.0326     -5662.9094     -93.80692       48218.586      3.7759229    
      5770   306.78266     -5723.6909     -5662.8208     -124.33932      48238.163      3.7647357    
      5780   304.64125     -5723.1859     -5662.7407     -160.28051      48256.384      3.7522331    
      5790   302.44989     -5722.6714     -5662.661      -179.7854       48272.888      3.7387794    
      5800   300.56783     -5722.2067     -5662.5697     -193.41676      48287.438      3.7247998    
      5810   299.04645     -5721.7972     -5662.4621     -186.20335      48299.901      3.7107838    
      5820   298.35091     -5721.5219     -5662.3248     -192.18375      48310.295      3.6973007    
      5830   299.02421     -5721.4845     -5662.1538     -193.40849      48318.596      3.68478      
      5840   300.91973     -5721.6555     -5661.9487     -194.03057      48324.777      3.6736093    
      5850   303.08854     -5721.8547     -5661.7176     -197.82371      48328.82       3.6642       
      5860   304.59769     -5721.9093     -5661.4728     -182.83554      48330.724      3.6569427    
      5870   305.06507     -5721.7555     -5661.2262     -157.20395      48330.628      3.6521294    
      5880   304.91815     -5721.4874     -5660.9873     -111.86853      48328.805      3.6499905    
      5890   304.86134     -5721.2498     -5660.7609     -64.2029        48325.748      3.6506729    
      5900   305.48501     -5721.1626     -5660.55       -33.941459      48321.969      3.6541767    
      5910   306.6715      -5721.2054     -5660.3574     -17.624553      48317.793      3.660324     
      5920   307.83512     -5721.2655     -5660.1866     -13.329243      48313.395      3.6688257    
      5930   308.34997     -5721.2274     -5660.0464      1.1861877      48308.855      3.6794722    
      5940   308.17078     -5721.0824     -5659.9369      10.193919      48304.292      3.6922555    
      5950   308.09178     -5720.9868     -5659.857       7.4324646      48299.805      3.7071994    
      5960   308.72887     -5721.0674     -5659.8112     -19.555698      48295.355      3.7242184    
      5970   309.40982     -5721.1893     -5659.798      -39.736061      48290.679      3.7429936    
      5980   308.95906     -5721.1238     -5659.8219     -40.959037      48285.568      3.7630043    
      5990   306.91439     -5720.7744     -5659.8782     -1.4212864      48280.048      3.7837631    
      6000   303.82896     -5720.2496     -5659.9656      61.146775      48274.532      3.8049612    
      6010   300.8318      -5719.7593     -5660.0699      124.61312      48269.671      3.8264727    
      6020   298.85501     -5719.478      -5660.1809      156.69153      48266.122      3.8483208    
      6030   298.63161     -5719.548      -5660.2952      161.06933      48264.277      3.8705629    
      6040   299.86096     -5719.9094     -5660.4127      139.35195      48264.174      3.8932113    
      6050   301.16336     -5720.2928     -5660.5377      114.59527      48265.595      3.9162463    
      6060   301.45436     -5720.491      -5660.6781      112.16597      48268.312      3.9397211    
      6070   300.85504     -5720.5291     -5660.8351      116.20988      48272.272      3.9638555    
      6080   299.97865     -5720.525      -5661.005       110.72874      48277.487      3.9889127    
      6090   299.44672     -5720.603      -5661.1885      99.550554      48283.93       4.0151519    
      6100   299.66461     -5720.8403     -5661.3826      71.432258      48291.471      4.0427806    
      6110   300.69163     -5721.2505     -5661.589       26.826384      48299.792      4.0718209    
      6120   302.00693     -5721.7379     -5661.8154     -30.82919       48308.405      4.1021912    
      6130   302.67631     -5722.1147     -5662.0594     -72.38796       48316.716      4.1336351    
      6140   302.49508     -5722.3444     -5662.325      -95.745651      48324.253      4.1658836    
      6150   301.73965     -5722.481      -5662.6115     -105.05164      48330.75       4.1986491    
      6160   300.58027     -5722.5458     -5662.9063     -104.4188       48336.105      4.2315115    
      6170   299.14317     -5722.5582     -5663.2039     -92.147017      48340.317      4.2638984    
      6180   297.69442     -5722.5549     -5663.4881     -79.244653      48343.516      4.2952702    
      6190   296.77097     -5722.6362     -5663.7526     -66.416696      48345.865      4.3251414    
      6200   296.42501     -5722.8065     -5663.9916     -62.209917      48347.488      4.3530712    
      6210   296.40679     -5723.0123     -5664.201      -91.268095      48348.383      4.378524     
      6220   296.39585     -5723.1921     -5664.383      -109.97522      48348.309      4.4007149    
      6230   295.95115     -5723.2621     -5664.5411     -129.08395      48347.04       4.418775     
      6240   295.25073     -5723.2493     -5664.6673     -137.87621      48344.359      4.4318372    
      6250   295.14966     -5723.3302     -5664.7683     -140.92604      48340.162      4.4391345    
      6260   295.87469     -5723.5503     -5664.8445     -154.94517      48334.392      4.440103     
      6270   296.93838     -5723.818      -5664.9012     -160.62226      48326.918      4.4343767    
      6280   297.71701     -5724.0165     -5664.9452     -172.26646      48317.653      4.4218914    
      6290   298.14261     -5724.1315     -5664.9757     -176.13383      48306.504      4.4029152    
      6300   298.51916     -5724.226      -5664.9955     -177.22206      48293.443      4.3779259    
      6310   299.22417     -5724.3787     -5665.0083     -181.51801      48278.448      4.3474829    
      6320   299.80043     -5724.4995     -5665.0148     -186.53973      48261.473      4.3121987    
      6330   299.78796     -5724.5006     -5665.0184     -165.09444      48242.517      4.272741     
      6340   299.39794     -5724.4219     -5665.017      -126.44147      48221.84       4.2299784    
      6350   299.18376     -5724.3739     -5665.0116     -65.934659      48199.916      4.184917     
      6360   299.25956     -5724.3768     -5664.9994      11.907002      48177.393      4.1387861    
      6370   299.40049     -5724.3871     -5664.9817      101.83078      48155.126      4.0928515    
      6380   299.18283     -5724.3237     -5664.9616      190.27937      48134.106      4.048346     
      6390   298.15379     -5724.0978     -5664.9398      292.25268      48115.321      4.0063395    
      6400   296.41628     -5723.7209     -5664.9077      388.3285       48099.834      3.9678117    
      6410   294.50771     -5723.3027     -5664.8682      469.96196      48088.658      3.9334963    
      6420   292.75212     -5722.8984     -5664.8122      530.22603      48082.638      3.9038898    
      6430   291.17942     -5722.511      -5664.7368      564.74398      48082.39       3.879366     
      6440   290.08267     -5722.1953     -5664.6388      571.25632      48088.255      3.8600944    
      6450   289.86103     -5722.0309     -5664.5183      527.66006      48100.231      3.8460764    
      6460   290.42669     -5721.9979     -5664.3731      453.25546      48117.847      3.837051     
      6470   291.20412     -5721.9877     -5664.2086      364.01737      48140.278      3.8324947    
      6480   291.90441     -5721.9448     -5664.0268      255.85113      48166.492      3.8318002    
      6490   292.8173      -5721.9371     -5663.838       147.88386      48195.297      3.8343373    
      6500   294.59582     -5722.1023     -5663.6503      24.916318      48225.485      3.8395273    
      6510   297.11943     -5722.4209     -5663.4681     -106.10071      48255.713      3.8467737    
      6520   299.63329     -5722.7542     -5663.3026     -241.00874      48284.535      3.8554671    
      6530   301.47283     -5722.9801     -5663.1636     -351.99522      48310.525      3.8649693    
      6540   302.22794     -5723.0189     -5663.0526     -440.60636      48332.468      3.8748072    
      6550   301.85519     -5722.8596     -5662.9672     -499.0779       48349.433      3.8846266    
      6560   300.91028     -5722.611      -5662.9061     -536.85445      48360.811      3.8941588    
      6570   300.52904     -5722.4916     -5662.8623     -547.86643      48366.244      3.9033495    
      6580   301.64386     -5722.6783     -5662.8279     -566.76561      48365.607      3.9123943    
      6590   304.02097     -5723.1343     -5662.8122     -573.15405      48358.762      3.9215499    
      6600   305.91986     -5723.5192     -5662.8203     -552.1746       48345.695      3.9311644    
      6610   305.57389     -5723.484      -5662.8538     -479.58097      48326.715      3.9418073    
      6620   302.8006      -5722.9929     -5662.9129     -342.20719      48302.671      3.9542086    
      6630   298.66416     -5722.2378     -5662.9785     -192.76396      48275.073      3.9693606    
      6640   294.62648     -5721.4962     -5663.0381     -46.987216      48245.603      3.9882271    
      6650   291.98376     -5721.0066     -5663.0728      83.861074      48215.854      4.0114833    
      6660   291.5525      -5720.9238     -5663.0756      196.96332      48187.284      4.0395263    
      6670   293.1138      -5721.2007     -5663.0427      264.51087      48161.114      4.0724287    
      6680   295.63223     -5721.6332     -5662.9755      290.97079      48138.061      4.1097238    
      6690   298.2448      -5722.0613     -5662.8852      297.07862      48118.411      4.1505239    
      6700   300.49629     -5722.3993     -5662.7765      288.41115      48102.215      4.1935386    
      6710   302.49597     -5722.6791     -5662.6595      280.30274      48089.37       4.2372848    
      6720   304.19797     -5722.9014     -5662.5441      271.70069      48079.739      4.2803502    
      6730   305.2138      -5722.9991     -5662.4404      271.17551      48073.185      4.3214908    
      6740   305.72458     -5723.0123     -5662.3522      285.59446      48069.677      4.3596436    
      6750   306.15761     -5723.0277     -5662.2817      300.99745      48069.318      4.3939622    
      6760   306.76129     -5723.1039     -5662.238       315.32903      48072.225      4.4237556    
      6770   307.39242     -5723.213      -5662.222       303.38127      48078.442      4.4484973    
      6780   307.64094     -5723.2826     -5662.2422      286.35376      48087.821      4.4678504    
      6790   307.27095     -5723.2712     -5662.3043      268.14235      48100.149      4.4817588    
      6800   306.3226      -5723.1896     -5662.4108      238.66524      48115.159      4.4902881    
      6810   305.38523     -5723.1577     -5662.5649      208.49086      48132.522      4.4935474    
      6820   305.02435     -5723.2863     -5662.7651      167.72652      48151.869      4.4917693    
      6830   304.92604     -5723.5236     -5663.0219      119.97553      48172.74       4.4852904    
      6840   303.83849     -5723.6202     -5663.3343      73.276998      48194.598      4.4744258    
      6850   301.09894     -5723.4382     -5663.6959      42.931319      48216.925      4.4595321    
      6860   297.60494     -5723.1376     -5664.0885      25.363269      48239.4        4.4410831    
      6870   294.90731     -5722.9991     -5664.4853     -33.443625      48261.768      4.4196062    
      6880   293.77788     -5723.1548     -5664.865      -131.0269       48283.385      4.395326     
      6890   293.55744     -5723.4518     -5665.2058     -240.82756      48303.219      4.3681423    
      6900   293.64253     -5723.7678     -5665.5049     -352.1099       48320.083      4.3378611    
      6910   293.73317     -5724.0388     -5665.7579     -440.78548      48332.831      4.304306     
      6920   293.73841     -5724.2494     -5665.9675     -502.80672      48340.555      4.2674467    
      6930   293.92356     -5724.4563     -5666.1377     -531.39749      48342.687      4.2273499    
      6940   294.50652     -5724.7068     -5666.2725     -553.40254      48338.989      4.1841859    
      6950   295.34581     -5724.9749     -5666.374      -551.17162      48329.364      4.1382655    
      6960   296.2329      -5725.2275     -5666.4507     -525.36668      48313.953      4.0901248    
      6970   296.75452     -5725.3821     -5666.5017     -461.02981      48293.175      4.0404155    
      6980   296.58784     -5725.3795     -5666.5322     -362.45109      48267.866      3.989975     
      6990   295.73967     -5725.2224     -5666.5434     -243.25347      48239.185      3.9398196    
      7000   294.76941     -5725.021      -5666.5345     -121.94147      48208.5        3.8911497    
      7010   294.26799     -5724.8833     -5666.4963     -16.014455      48177.185      3.8451919    
      7020   294.4568      -5724.8657     -5666.4413      61.189394      48146.392      3.8031149    
      7030   295.00619     -5724.8987     -5666.3652      116.66759      48116.931      3.7659304    
      7040   295.2637      -5724.8588     -5666.2742      183.67106      48089.426      3.7344922    
      7050   294.94556     -5724.6947     -5666.1733      245.80721      48064.536      3.7096093    
      7060   294.33898     -5724.4611     -5666.06        292.22854      48042.837      3.6920279    
      7070   293.91862     -5724.2509     -5665.9332      321.65327      48024.756      3.6822483    
      7080   294.10693     -5724.1494     -5665.7944      338.33156      48010.542      3.680473     
      7090   294.88191     -5724.152      -5665.6432      347.72329      48000.291      3.686609     
      7100   295.89574     -5724.1941     -5665.4841      365.96155      47994.019      3.7001732    
      7110   296.79017     -5724.2051     -5665.3177      382.20419      47991.825      3.7204602    
      7120   297.29923     -5724.1377     -5665.1493      395.29964      47993.762      3.7465682    
      7130   297.52843     -5724.0161     -5664.9822      415.89447      47999.91       3.7775664    
      7140   297.9194      -5723.9301     -5664.8186      418.66182      48010.372      3.8126107    
      7150   299.13483     -5724.0121     -5664.6594      394.93942      48025.069      3.8508709    
      7160   300.91723     -5724.2205     -5664.5142      347.33387      48043.686      3.8915095    
      7170   302.28208     -5724.3629     -5664.3858      281.33859      48065.616      3.9336446    
      7180   302.64888     -5724.3263     -5664.2764      194.70938      48090.056      3.9763452    
      7190   301.94624     -5724.1033     -5664.1928      123.65893      48116.069      4.0186322    
      7200   300.42679     -5723.7345     -5664.1255      71.257089      48142.843      4.059546     
      7210   298.68726     -5723.3302     -5664.0664      16.572343      48169.767      4.0982582    
      7220   297.34606     -5723.0094     -5664.0117     -22.697513      48196.273      4.1340469    
      7230   296.60715     -5722.8073     -5663.9561     -72.167996      48221.896      4.1664559    
      7240   296.1722      -5722.6619     -5663.8971     -113.81812      48246.167      4.1951435    
      7250   295.76056     -5722.5168     -5663.8337     -168.62491      48268.636      4.2198198    
      7260   295.54571     -5722.4048     -5663.7643     -220.11403      48288.77       4.2401729    
      7270   295.72172     -5722.3656     -5663.6902     -277.0902       48306.038      4.255979     
      7280   296.24253     -5722.3887     -5663.6099     -315.4148       48319.911      4.2671041    
      7290   296.96722     -5722.4484     -5663.5258     -336.24148      48330.04       4.2734962    
      7300   297.50002     -5722.4689     -5663.4406     -343.24547      48336.303      4.2752764    
      7310   297.52428     -5722.3883     -5663.3552     -332.16018      48338.715      4.2728139    
      7320   297.03881     -5722.203      -5663.2662     -320.50552      48337.44       4.2666149    
      7330   296.13442     -5721.9305     -5663.1732     -296.15419      48332.71       4.2572265    
      7340   295.35661     -5721.6764     -5663.0734     -267.4548       48324.859      4.2451461    
      7350   295.37796     -5721.5684     -5662.9611     -242.4436       48314.26       4.2308365    
      7360   296.28037     -5721.624      -5662.8378     -213.13384      48301.256      4.2146251    
      7370   297.91575     -5721.8145     -5662.7037     -191.48138      48286.197      4.1968074    
      7380   299.87335     -5722.0686     -5662.5694     -154.26555      48269.379      4.1775685    
      7390   301.48221     -5722.2554     -5662.437      -114.75671      48251.225      4.157128     
      7400   302.07923     -5722.2524     -5662.3156     -54.755564      48232.221      4.1357334    
      7410   301.51113     -5722.0291     -5662.2049      20.194545      48213.026      4.1136447    
      7420   300.53574     -5721.7324     -5662.1018      88.391105      48194.44       4.0911803    
      7430   299.9406      -5721.5156     -5662.0031      133.9932       48177.161      4.0687096    
      7440   300.31283     -5721.4907     -5661.9044      174.71879      48161.685      4.0466141    
      7450   301.68589     -5721.6687     -5661.8099      180.90636      48148.379      4.0254359    
      7460   303.67126     -5721.9705     -5661.7177      173.08888      48137.289      4.0056182    
      7470   305.5961      -5722.2733     -5661.6387      144.13195      48128.266      3.9875871    
      7480   307.01153     -5722.4978     -5661.5823      123.03639      48120.98       3.9716358    
      7490   307.73474     -5722.6088     -5661.5498      109.97422      48115.154      3.9579172    
      7500   307.71775     -5722.6066     -5661.551       92.729633      48110.612      3.9465415    
      7510   306.96081     -5722.489      -5661.5836      76.292338      48107.139      3.93744      
      7520   305.83662     -5722.3308     -5661.6484      82.910165      48104.58       3.9303606    
      7530   304.78307     -5722.2188     -5661.7454      87.039492      48102.954      3.9250805    
      7540   303.99855     -5722.1927     -5661.8751      87.667964      48102.276      3.921403     
      7550   303.45548     -5722.2506     -5662.0407      97.214809      48102.561      3.9192959    
[...]
     18200   1243.4226     -5449.1133     -5202.4004      2778.5289      56156.323      41.652085    
     18210   1241.6383     -5448.0542     -5201.6954      2648.555       56225.244      42.045675    
     18220   1237.7715     -5446.2839     -5200.6923      2625.2238      56291.72       42.432796    
     18230   1233.0162     -5443.9717     -5199.3236      2628.3313      56354.57       42.806949    
     18240   1234.6826     -5442.5284     -5197.5497      2603.0024      56412.965      43.162989    
     18250   1248.0034     -5443.0404     -5195.4187      2546.276       56466.159      43.49646     
     18260   1265.4849     -5444.2203     -5193.13        2484.4338      56513.611      43.80427     
     18270   1281.8891     -5445.3245     -5190.9793      2463.6716      56555.253      44.085798    
     18280   1297.3328     -5446.5981     -5189.1887      2430.4938      56591.547      44.342664    
     18290   1306.0352     -5446.9622     -5187.8261      2513.7453      56623.468      44.578313    
     18300   1305.6878     -5445.9023     -5186.8352      2636.3261      56652.513      44.798026    
     18310   1307.7364     -5445.5808     -5186.1072      2690.4382      56679.891      45.006253    
     18320   1317.0017     -5446.8684     -5185.5564      2699.4709      56706.142      45.206726    
     18330   1329.4933     -5448.9404     -5185.1499      2638.0583      56731.406      45.402444    
     18340   1334.0604     -5449.5839     -5184.8872      2659.4747      56755.358      45.593263    
     18350   1326.5068     -5447.9531     -5184.7552      2737.4838      56777.699      45.777319    
     18360   1312.0303     -5445.0392     -5184.7136      2868.4471      56798.256      45.952027    
     18370   1300.8889     -5442.8218     -5184.7068      2987.107       56817.203      46.11626     
     18380   1297.3806     -5442.1084     -5184.6895      3013.8655      56835.02       46.271073    
     18390   1299.5023     -5442.4893     -5184.6494      2937.9605      56851.994      46.417552    
     18400   1304.8349     -5443.4817     -5184.5838      2751.0837      56868.111      46.556547    
     18410   1309.1247     -5444.2544     -5184.5053      2508.9228      56883.321      46.688593    
     18420   1312.3773     -5444.8176     -5184.4232      2217.3199      56897.04       46.810327    
     18430   1312.0694     -5444.677      -5184.3436      2004.9491      56907.715      46.912587    
     18440   1306.2197     -5443.4366     -5184.2639      1837.7831      56913.638      46.985958    
     18450   1300.8443     -5442.2725     -5184.1663      1676.0042      56913.269      47.022211    
     18460   1303.4671     -5442.6577     -5184.0312      1535.3161      56905.644      47.015893    
     18470   1311.6984     -5444.1211     -5183.8613      1438.3523      56890.344      46.964793    
     18480   1316.3536     -5444.855      -5183.6716      1403.8545      56867.459      46.870235    
     18490   1314.9457     -5444.3756     -5183.4716      1523.4844      56837.421      46.735813    
     18500   1313.6091     -5443.8904     -5183.2515      1681.1002      56801.18       46.568294    
     18510   1311.3999     -5443.1909     -5182.9904      1903.46        56760.378      46.378735    
     18520   1301.0765     -5440.8171     -5182.6649      2159.1493      56717.434      46.181976    
     18530   1292.1449     -5438.6158     -5182.2358      2447.0982      56674.814      45.992091    
     18540   1290.8692     -5437.7966     -5181.6697      2685.2392      56634.666      45.820495    
     18550   1295.8177     -5438.0577     -5180.9489      2842.7957      56598.475      45.674815    
     18560   1304.7977     -5438.9729     -5180.0823      2987.6912      56567.106      45.559318    
     18570   1312.2351     -5439.4662     -5179.0999      3157.7869      56540.941      45.475465    
     18580   1318.6171     -5439.6661     -5178.0336      3279.7368      56520.197      45.423289    
     18590   1329.075      -5440.626      -5176.9185      3398.5545      56504.875      45.401336    
     18600   1340.67       -5441.8059     -5175.7978      3445.8309      56495.052      45.408498    
     18610   1347.3944     -5442.0707     -5174.7283      3485.6869      56490.865      45.444111    
     18620   1344.586      -5440.5256     -5173.7405      3460.0025      56492.706      45.509098    
     18630   1340.1348     -5438.7407     -5172.8388      3373.7421      56500.65       45.603322    
     18640   1341.4619     -5438.172      -5172.0067      3246.8096      56514.083      45.723726    
     18650   1339.6712     -5437.0426     -5171.2326      3114.0945      56531.839      45.865214    
     18660   1328.6013     -5434.1191     -5170.5056      3063.0567      56552.385      46.021138    
     18670   1316.0821     -5430.9159     -5169.7864      3094.8363      56574.397      46.185187    
     18680   1304.4064     -5427.8463     -5169.0334      3240.5616      56596.744      46.350815    
     18690   1293.2618     -5424.8119     -5168.2102      3414.5574      56618.721      46.51286     
     18700   1291.6463     -5423.5741     -5167.293       3533.6211      56640.277      46.669687    
     18710   1303.238      -5424.8613     -5166.2802      3606.5418      56661.662      46.822796    
     18720   1318.8407     -5426.8887     -5165.2118      3612.8168      56683.088      46.975033    
     18730   1332.9071     -5428.6252     -5164.1574      3676.473       56704.739      47.129273    
     18740   1343.0128     -5429.6499     -5163.1769      3796.9534      56727.366      47.290572    
     18750   1345.3931     -5429.2485     -5162.3033      3909.6437      56752.437      47.467099    
     18760   1339.8394     -5427.3889     -5161.5456      4097.3377      56781.772      47.668521    
     18770   1331.2088     -5424.9987     -5160.8678      4280.5969      56816.989      47.903798    
     18780   1328.0643     -5423.7385     -5160.2316      4332.6526      56858.973      48.178044    
     18790   1335.8377     -5424.6526     -5159.6033      4191.4061      56907.495      48.490165    
     18800   1351.7302     -5427.197      -5158.9944      3949.8161      56961.712      48.836612    
     18810   1364.4554     -5429.1595     -5158.432       3639.8414      57020.407      49.212008    
     18820   1365.3066     -5428.8391     -5157.9427      3389.8391      57082.292      49.609925    
     18830   1358.1573     -5426.9993     -5157.5214      3222.1383      57146.313      50.024992    
     18840   1353.9439     -5425.7725     -5157.1306      3081.4261      57211.7        50.453601    
     18850   1352.6883     -5425.1396     -5156.7469      2971.569       57277.734      50.891977    
     18860   1346.9779     -5423.6096     -5156.3499      2830.0199      57343.891      51.33611     
     18870   1339.5714     -5421.7042     -5155.9141      2724.5923      57409.354      51.778919    
     18880   1339.0527     -5421.1033     -5155.416       2587.7419      57473.168      52.212323    
     18890   1343.0507     -5421.323      -5154.8425      2451.6581      57534.451      52.629521    
     18900   1348.8443     -5421.8342     -5154.2042      2267.2285      57592.443      53.025353    
     18910   1357.4263     -5422.8508     -5153.518       2092.6319      57646.452      53.395436    
     18920   1366.9895     -5424.037      -5152.8067      1885.7388      57696.034      53.736956    
     18930   1376.4316     -5425.2048     -5152.1011      1705.8878      57740.701      54.046864    
     18940   1382.6638     -5425.7688     -5151.4285      1628.0364      57779.779      54.321456    
     18950   1385.2326     -5425.6597     -5150.8097      1605.1379      57812.812      54.558321    
     18960   1384.906      -5425.0327     -5150.2475      1632.5107      57839.431      54.75507     
     18970   1381.2328     -5423.7949     -5149.7386      1742.9956      57859.414      54.909986    
     18980   1376.4197     -5422.3638     -5149.2624      1897.8279      57872.889      55.024084    
     18990   1373.1285     -5421.2479     -5148.7996      2101.4426      57880.426      55.101715    
     19000   1373.2053     -5420.7891     -5148.3255      2239.4316      57883.298      55.151393    
     19010   1379.1461     -5421.4775     -5147.8352      2283.6567      57883.038      55.182398    
     19020   1385.1573     -5422.1689     -5147.3339      2363.3383      57881.225      55.203478    
     19030   1387.9509     -5422.2253     -5146.836       2395.9447      57879.638      55.224301    
     19040   1393.5695     -5422.8486     -5146.3445      2373.2645      57879.697      55.253194    
     19050   1397.8738     -5423.2302     -5145.872       2315.1606      57881.762      55.293303    
     19060   1396.4064     -5422.4912     -5145.4242      2300.1712      57884.936      55.340043    
     19070   1396.9164     -5422.1613     -5144.993       2263.2193      57887.707      55.384072    
     19080   1401.9067     -5422.7329     -5144.5745      2216.802       57888.348      55.415019    
     19090   1405.9238     -5423.1277     -5144.1723      2225.5033      57885.234      55.424299    
     19100   1404.2339     -5422.4114     -5143.7913      2293.5028      57877.513      55.408771    
     19110   1400.3812     -5421.2699     -5143.4142      2424.7891      57865.4        55.37185     
     19120   1398.1934     -5420.436      -5143.0144      2539.4303      57850.053      55.321415    
     19130   1392.3871     -5418.8236     -5142.5541      2718.2685      57832.782      55.263513    
     19140   1386.4965     -5417.0859     -5141.9852      2790.6531      57814.858      55.203437    
     19150   1387.8019     -5416.6044     -5141.2446      2841.2949      57797.083      55.144636    
     19160   1396.0124     -5417.2625     -5140.2736      2772.0126      57780.05       55.090953    
     19170   1406.7242     -5418.1538     -5139.0396      2691.488       57763.67       55.043112    
     19180   1417.4827     -5418.7885     -5137.5396      2648.2618      57747.622      54.999308    
     19190   1423.8552     -5418.3365     -5135.8233      2629.5468      57732.141      54.959604    
     19200   1427.6468     -5417.2434     -5133.9778      2632.1673      57717.965      54.926729    
     19210   1426.3146     -5415.1124     -5132.1112      2669.47        57705.956      54.905063    
     19220   1418.952      -5411.8652     -5130.3248      2775.2056      57696.982      54.900541    
     19230   1418.7367     -5410.1689     -5128.6713      2825.8153      57691.483      54.917533    
     19240   1436.8121     -5412.2739     -5127.1898      2747.1097      57689.211      54.955638    
     19250   1455.0993     -5414.6517     -5125.9392      2735.667       57689.577      55.010264    
     19260   1456.4445     -5413.9523     -5124.9728      2785.3134      57692.492      55.078916    
     19270   1446.7572     -5411.3324     -5124.2751      2916.6821      57698.282      55.162468    
     19280   1441.2872     -5409.7511     -5123.7791      2963.3198      57707.736      55.266546    
     19290   1443.1498     -5409.7734     -5123.4319      2860.3221      57720.938      55.393255    
     19300   1445.2478     -5409.9683     -5123.2104      2657.0485      57737.226      55.539287    
     19310   1441.5312     -5409.1234     -5123.103       2486.2662      57755.301      55.696579    
     19320   1426.655      -5406.1472     -5123.0784      2387.2299      57773.483      55.85466     
     19330   1414.9605     -5403.8287     -5123.0803      2278.0285      57789.708      56.001036    
     19340   1419.8904     -5404.7974     -5123.0708      2036.2367      57801.573      56.121514    
     19350   1427.1877     -5406.2391     -5123.0647      1822.887       57806.505      56.201195    
     19360   1426.0477     -5406.0322     -5123.0839      1728.4731      57802.768      56.229874    
     19370   1421.6208     -5405.1943     -5123.1244      1798.1184      57789.997      56.204523    
     19380   1419.6968     -5404.8516     -5123.1634      1955.1794      57769.15       56.12969     
     19390   1418.6993     -5404.6758     -5123.1855      2160.5365      57741.886      56.015492    
     19400   1415.6738     -5404.0649     -5123.175       2418.1234      57710.286      55.875529    
     19410   1406.9517     -5402.2712     -5123.1119      2728.6693      57676.437      55.722764    
     19420   1390.5877     -5398.8658     -5122.9533      3096.8602      57642.431      55.568506    
     19430   1381.4876     -5396.7466     -5122.6397      3410.0236      57610.432      55.423678    
     19440   1390.508      -5398.0323     -5122.1357      3475.322       57582.154      55.297588    
     19450   1405.0178     -5400.2117     -5121.436       3468.3505      57557.658      55.19137     
     19460   1419.0062     -5402.1189     -5120.5677      3454.5238      57535.986      55.101117    
     19470   1432.2881     -5403.7423     -5119.5558      3402.0642      57516.426      55.024227    
     19480   1445.6179     -5405.2676     -5118.4363      3373.8162      57498.909      54.961075    
     19490   1457.0518     -5406.349      -5117.2491      3357.1177      57483.982      54.914727    
     19500   1461.591      -5406.041      -5116.0404      3387.4114      57472.236      54.888038    
     19510   1460.6225     -5404.6516     -5114.8432      3505.935       57464.167      54.883869    
     19520   1462.4607     -5403.839      -5113.6658      3534.2235      57460.512      54.906861    
     19530   1471.2133     -5404.433      -5112.5232      3525.3984      57461.854      54.960148    
     19540   1484.1564     -5405.9264     -5111.4485      3488.641       57468.699      55.04534     
     19550   1492.3202     -5406.59       -5110.4923      3398.9357      57480.991      55.160598    
     19560   1488.7195     -5405.0713     -5109.688       3430.9441      57498.31       55.30322     
     19570   1482.6492     -5403.204      -5109.0251      3560.4269      57520.513      55.472048    
     19580   1491.661      -5404.4597     -5108.4928      3514.2837      57547.966      55.668529    
     19590   1493.3964     -5404.396      -5108.0848      3438.6739      57580.645      55.895133    
     19600   1489.7874     -5403.416      -5107.8209      3344.0348      57618.412      56.154628    
     19610   1488.8708     -5403.0985     -5107.6852      3146.9081      57661.005      56.447877    
     19620   1486.6473     -5402.6418     -5107.6697      2941.8165      57707.741      56.772462    
     19630   1480.6333     -5401.5425     -5107.7636      2671.3483      57757.519      57.121731    
     19640   1474.1503     -5400.4515     -5107.959       2386.0283      57808.644      57.483466    
     19650   1470.9066     -5400.097      -5108.2481      2081.0564      57858.722      57.840334    
     19660   1467.8356     -5399.8938     -5108.6542      1806.431       57905.016      58.17342     
     19670   1461.1395     -5399.1244     -5109.2134      1676.8081      57945.151      58.465797    
     19680   1457.6128     -5399.1782     -5109.967       1576.483       57977.691      58.706205    
     19690   1459.8108     -5400.6086     -5110.9613      1573.5986      58001.905      58.888964    
     19700   1459.0622     -5401.7347     -5112.2359      1615.5973      58017.83       59.014858    
     19710   1448.0164     -5401.0873     -5113.7801      1717.4892      58026.352      59.090941    
     19720   1432.3336     -5399.6858     -5115.4903      1888.5743      58029.031      59.128555    
     19730   1419.845      -5398.9384     -5117.2208      2074.6736      58027.555      59.139922    
     19740   1410.9131     -5398.7838     -5118.8384      2209.4576      58023.179      59.134063    
     19750   1402.0738     -5398.4352     -5120.2437      2343.5999      58017.009      59.117697    
     19760   1394.6063     -5398.0833     -5121.3734      2465.5333      58010.087      59.097632    
     19770   1394.3421     -5398.8644     -5122.2069      2518.9474      58003.559      59.081978    
     19780   1406.9213     -5401.9116     -5122.7583      2484.9968      57998.487      59.077392    
     19790   1424.111      -5405.6429     -5123.0789      2424.8706      57995.803      59.088356    
     19800   1431.9585     -5407.3422     -5123.2211      2448.6391      57996.409      59.11924     
     19810   1425.3132     -5406.0077     -5123.2051      2550.008       58001.121      59.174289    
     19820   1411.0169     -5402.9773     -5123.0113      2706.9999      58010.787      59.257317    
     19830   1404.4827     -5401.2667     -5122.5972      2778.5289      58026.294      59.372004    
     19840   1406.2049     -5400.9415     -5121.9303      2803.695       58048.287      59.521901    
     19850   1411.0708     -5400.9749     -5120.9982      2753.1623      58076.881      59.70838     
     19860   1424.0125     -5402.3588     -5119.8143      2690.1497      58111.382      59.928187    
     19870   1439.1001     -5403.9591     -5118.421       2628.0183      58150.73       60.176009    
     19880   1442.1461     -5403.0454     -5116.903       2698.2308      58194.205      60.448767    
     19890   1439.3016     -5400.9104     -5115.3323      2777.0831      58241.739      60.747818    
     19900   1448.0444     -5401.0664     -5113.7537      2784.4689      58293.229      61.074707    
     19910   1463.0483     -5402.5122     -5112.2225      2730.526       58348.119      61.428075    
     19920   1465.4881     -5401.5857     -5110.8119      2693.9864      58405.675      61.803629    
     19930   1457.2371     -5398.6849     -5109.5482      2686.4696      58465.371      62.196886    
     19940   1453.0635     -5396.7034     -5108.3948      2591.6766      58527.079      62.605373    
     19950   1456.8894     -5396.3833     -5107.3156      2429.3259      58590.515      63.02616     
     19960   1458.9106     -5395.752      -5106.2832      2183.4086      58655.223      63.456564    
     19970   1452.464      -5393.4752     -5105.2856      2007.8006      58720.47       63.893029    
     19980   1442.1036     -5390.4155     -5104.2815      1819.6311      58785.433      64.330539    
     19990   1442.3428     -5389.4041     -5103.2226      1589.4124      58848.783      64.760042    
     20000   1450.6095     -5389.9102     -5102.0885      1356.7385      58908.36       65.167195    
Loop time of 3438.7 on 1 procs for 10000 steps with 1536 atoms

Performance: 0.126 ns/day, 191.039 hours/ns, 2.908 timesteps/s, 4.467 katom-step/s
94.7% CPU use with 1 MPI tasks x 1 OpenMP threads

MPI task timing breakdown:
Section |  min time  |  avg time  |  max time  |%varavg| %total
---------------------------------------------------------------
Pair    | 3040.1     | 3040.1     | 3040.1     |   0.0 | 88.41
Bond    | 0.014549   | 0.014549   | 0.014549   |   0.0 |  0.00
Neigh   | 2.1675     | 2.1675     | 2.1675     |   0.0 |  0.06
Comm    | 0.50427    | 0.50427    | 0.50427    |   0.0 |  0.01
Output  | 394.93     | 394.93     | 394.93     |   0.0 | 11.48
Modify  | 0.83864    | 0.83864    | 0.83864    |   0.0 |  0.02
Other   |            | 0.1485     |            |       |  0.00

Nlocal:           1536 ave        1536 max        1536 min
Histogram: 1 0 0 0 0 0 0 0 0 0
Nghost:           2478 ave        2478 max        2478 min
Histogram: 1 0 0 0 0 0 0 0 0 0
Neighs:              0 ave           0 max           0 min
Histogram: 1 0 0 0 0 0 0 0 0 0
FullNghs:        41102 ave       41102 max       41102 min
Histogram: 1 0 0 0 0 0 0 0 0 0

Total # of neighbors = 41102
Ave neighs/atom = 26.759115
Ave special neighs/atom = 0
Neighbor list builds = 977
Dangerous builds = 874
unfix           2

write_data      structure.ready.data
System init for write_data ...

write_restart   structure.ready
System init for write_restart ...
    
Total wall time: 1:55:47
