LAMMPS (2 Aug 2023)
OMP_NUM_THREADS environment is not set. Defaulting to 1 thread. (src/comm.cpp:98)
  using 1 OpenMP thread(s) per MPI task
Reading restart file ...
  restart file = 2 Aug 2023, LAMMPS = 2 Aug 2023
  restoring atom style full from restart
  orthogonal box = (-0.73569318 -0.82717062 -9.2097329) to (24.671166 24.762643 81.01615)
  1 by 1 by 1 MPI processor grid
  pair style chgnet/gpu stores no restart info
  1536 atoms
Finding 1-2 1-3 1-4 neighbors ...
  special bond factors lj:    0        0        0       
  special bond factors coul:  0        0        0       
     0 = max # of 1-2 neighbors
     0 = max # of 1-3 neighbors
     0 = max # of 1-4 neighbors
     1 = max # of special neighbors
  special bonds CPU = 0.001 seconds
  read_restart CPU = 0.084 seconds
Resetting peratom fix info from restart file:
  fix style: STORE/ATOM, fix ID: msd_COMPUTE_STORE
All restart file peratom fix info was re-assigned
Neighbor list info ...
  update: every = 1 steps, delay = 10 steps, check = yes
  max neighbors/atom: 2000, page size: 100000
  master list distance cutoff = 6.3
  ghost atom cutoff = 6.3
  binsize = 3.15, bins = 9 9 29
  1 neighbor lists, perpetual/occasional/extra = 1 0 0
  (1) pair chgnet/gpu, perpetual
      attributes: full, newton on
      pair build: full/bin
      stencil: full/bin/3d
      bin: standard
Setting up Verlet run ...
  Unit style    : metal
  Current step  : 20000
  Time step     : 0.001
Per MPI rank memory allocation (min/avg/max) = 6.519 | 6.519 | 6.519 Mbytes
   Step          Temp          PotEng         TotEng         Press          Volume        c_msd[4]   
     20000   1512.4261     -5388.1069     -5088.0199      2618.089       58660.97       49.242492    
     20010   1521.4947     -5389.9365     -5088.0502      2461.3828      58661.128      49.35739     
     20020   1515.6484     -5388.8826     -5088.1562      2514.483       58661.523      49.445333    
     20030   1508.7549     -5387.6917     -5088.3331      2722.1752      58662.173      49.523423    
     20040   1491.8568     -5384.5367     -5088.531       2996.8398      58663.361      49.610474    
     20050   1485.5864     -5383.4806     -5088.719       3221.9214      58665.357      49.704693    
     20060   1506.4699     -5387.8015     -5088.8963      3242.7131      58667.996      49.794652    
     20070   1509.5827     -5388.6346     -5089.1118      3229.5091      58671.123      49.885773    
     20080   1491.8707     -5385.3893     -5089.3808      3229.0965      58674.969      49.984609    
     20090   1472.1174     -5381.7506     -5089.6614      3004.7548      58679.939      50.086002    
     20100   1461.7167     -5379.902      -5089.8765      2640.8469      58686.153      50.193871    
     20110   1458.5322     -5379.3962     -5090.0026      2213.9641      58693.133      50.312908    
     20120   1444.4788     -5376.5892     -5089.9839      2068.3608      58700.295      50.441351    
     20130   1452.81       -5378.0632     -5089.8049      2046.559       58707.242      50.576701    
     20140   1464.3568     -5379.9727     -5089.4233      2162.2668      58713.8        50.725814    
     20150   1463.8767     -5379.3062     -5088.8521      2488.6524      58720.133      50.893401    
     20160   1458.1773     -5377.3696     -5088.0464      2829.8467      58726.516      51.070894    
     20170   1486.9303     -5382.0051     -5086.9769      2698.7998      58733.212      51.249119    
     20180   1497.7634     -5382.8525     -5085.6748      2792.805       58740.626      51.425564    
     20190   1483.9787     -5378.6547     -5084.212       3011.5774      58749.243      51.598616    
     20200   1475.7902     -5375.4104     -5082.5925      3029.7974      58759.101      51.761203    
     20210   1481.9268     -5374.8633     -5080.8278      2757.1795      58769.795      51.920639    
     20220   1507.3608     -5378.0764     -5078.9944      2340.1025      58780.881      52.087119    
     20230   1557.8013     -5386.3206     -5077.2305      1868.3524      58791.929      52.260394    
     20240   1570.1946     -5387.3013     -5075.7522      1808.7447      58802.463      52.429613    
     20250   1578.5528     -5387.9077     -5074.7002      1682.1489      58812.279      52.590714    
     20260   1566.9172     -5384.9447     -5074.0459      1643.9155      58821.404      52.741294    
     20270   1548.4068     -5380.9468     -5073.7207      1816.5694      58829.747      52.876016    
     20280   1544.0415     -5380.0225     -5073.6625      2033.3947      58837.211      52.998762    
     20290   1523.7741     -5376.1322     -5073.7936      2346.3435      58843.846      53.117608    
     20300   1505.0651     -5372.688      -5074.0615      2679.0958      58850.084      53.234756    
     20310   1505.4734     -5373.0981     -5074.3907      2783.8313      58856.639      53.362117    
     20320   1494.7539     -5371.3564     -5074.7759      2912.9262      58863.852      53.509242    
     20330   1478.6556     -5368.5601     -5075.1736      3035.9779      58871.89       53.668805    
     20340   1475.8706     -5368.3835     -5075.5497      2869.8937      58880.673      53.827932    
     20350   1473.274      -5368.2056     -5075.8869      2722.4434      58889.836      53.981237    
     20360   1481.48       -5370.1241     -5076.1773      2521.6669      58899.134      54.123811    
     20370   1509.6457     -5376.0315     -5076.4962      2309.0934      58908.573      54.245925    
     20380   1514.0304     -5377.2913     -5076.8859      2412.1459      58918.407      54.374759    
     20390   1520.1791     -5379.0608     -5077.4355      2583.5904      58929.037      54.519593    
     20400   1509.7978     -5377.6908     -5078.1253      2779.2819      58940.81       54.662029    
     20410   1514.0592     -5379.3798     -5078.9687      2791.4833      58954.092      54.799293    
     20420   1500.3968     -5377.6443     -5079.9441      2833.288       58969.05       54.942096    
     20430   1519.799      -5382.6134     -5081.0635      2542.147       58985.608      55.09211     
     20440   1507.6776     -5381.5001     -5082.3553      2588.0708      59003.37       55.2586      
     20450   1489.5595     -5379.3083     -5083.7584      2778.1872      59022.089      55.434048    
     20460   1489.7257     -5380.7926     -5085.2097      2725.9393      59041.551      55.61572     
     20470   1502.9742     -5384.9026     -5086.691       2463.5044      59061.425      55.803772    
     20480   1498.2148     -5385.4292     -5088.1619      2304.2198      59081.29       55.993064    
     20490   1488.5609     -5384.9436     -5089.5918      2117.3681      59101.184      56.182992    
     20500   1481.6767     -5384.8649     -5090.879       2007.1849      59121.47       56.37442     
     20510   1480.6377     -5385.7775     -5091.9977      1855.4736      59142.294      56.559672    
     20520   1479.0908     -5386.3806     -5092.9078      1603.7581      59163.191      56.746894    
     20530   1490.2701     -5389.3484     -5093.6574      1316.4948      59183.25       56.935539    
     20540   1471.3532     -5386.2103     -5094.2728      1395.9912      59201.886      57.113526    
     20550   1466.0323     -5385.6218     -5094.74        1262.1743      59219.11       57.279752    
     20560   1473.3239     -5387.4236     -5095.095       929.5854       59234.786      57.441232    
     20570   1451.8375     -5383.4176     -5095.3522      917.56863      59248.565      57.59911     
     20580   1438.0534     -5380.8311     -5095.5007      1002.4943      59260.543      57.759952    
     20590   1448.9453     -5383.0133     -5095.5218      843.92135      59270.928      57.91925     
     20600   1457.3905     -5384.6224     -5095.4553      636.55033      59279.347      58.065416    
     20610   1457.5795     -5384.5331     -5095.3284      508.52765      59285.273      58.190517    
     20620   1467.0447     -5386.2729     -5095.1903      597.46622      59288.386      58.296752    
     20630   1451.4662     -5383.0104     -5095.0187      909.50181      59288.843      58.403695    
     20640   1445.43       -5381.6001     -5094.8061      967.23532      59287.333      58.526918    
     20650   1446.3048     -5381.4822     -5094.5146      1025.1031      59284.223      58.66322     
     20660   1443.8329     -5380.6146     -5094.1375      1214.0514      59279.446      58.793807    
     20670   1452.2408     -5381.8151     -5093.6697      1287.1889      59273.043      58.895721    
     20680   1486.2419     -5388.0557     -5093.164       1129.6375      59264.98       58.978069    
     20690   1486.7669     -5387.677      -5092.6812      1308.3188      59255.112      59.062107    
     20700   1494.4184     -5388.795      -5092.281       1218.077       59243.559      59.146314    
     20710   1493.2231     -5388.2373     -5091.9605      990.65756      59229.942      59.225902    
     20720   1486.361      -5386.6494     -5091.7341      865.88164      59213.866      59.299354    
     20730   1470.0631     -5383.2389     -5091.5573      1035.9721      59195.382      59.362854    
     20740   1467.9962     -5382.6694     -5091.398       1223.0452      59174.926      59.407863    
     20750   1484.1237     -5385.7086     -5091.2372      1360.2161      59152.991      59.42456     
     20760   1503.8526     -5389.5183     -5091.1324      1445.5546      59130.004      59.428616    
     20770   1499.9281     -5388.7441     -5091.1369      1865.935       59106.262      59.437604    
     20780   1502.0552     -5389.3187     -5091.2895      2290.0312      59081.955      59.447584    
     20790   1502.0203     -5389.6062     -5091.5839      2503.7119      59057.099      59.452616    
     20800   1502.9515     -5390.2749     -5092.0678      2506.609       59031.797      59.455075    
     20810   1476.9676     -5385.7716     -5092.7201      2643.8133      59006.128      59.466143    
     20820   1477.5021     -5386.6597     -5093.5021      2575.6602      58980.145      59.48403     
     20830   1493.8541     -5390.8513     -5094.4493      2248.8366      58953.759      59.495164    
     20840   1485.2596     -5390.3002     -5095.6034      2147.9425      58926.812      59.490796    
     20850   1464.9257     -5387.5909     -5096.9287      2102.5848      58899.55       59.471612    
     20860   1453.9468     -5386.8475     -5098.3637      1987.7426      58872.314      59.434319    
     20870   1440.9984     -5385.7365     -5099.8217      1861.2994      58845.083      59.386862    
     20880   1432.3431     -5385.4556     -5101.2582      1672.3749      58817.51       59.336621    
     20890   1426.3012     -5385.5782     -5102.5797      1581.815       58789.299      59.281056    
     20900   1425.7879     -5386.6696     -5103.7728      1530.8137      58760.478      59.219476    
     20910   1424.4562     -5387.4229     -5104.7903      1492.8825      58731.218      59.161117    
     20920   1447.585      -5392.9116     -5105.69        1430.3265      58701.252      59.103559    
     20930   1443.079      -5392.8076     -5106.4801      1781.2253      58670.259      59.040038    
     20940   1452.5989     -5395.4147     -5107.1982      1998.8893      58638.486      58.967371    
     20950   1449.4532     -5395.4352     -5107.8429      2259.9854      58606.137      58.893875    
     20960   1451.2388     -5396.3848     -5108.4382      2198.1354      58573.098      58.824784    
     20970   1445.3541     -5395.7527     -5108.9737      2074.8978      58539.053      58.764811    
     20980   1447.3151     -5396.6246     -5109.4566      2009.9243      58503.897      58.707924    
     20990   1432.3524     -5394.0579     -5109.8586      2092.2656      58467.645      58.634214    
     21000   1433.9581     -5394.6848     -5110.167       2247.6658      58430.557      58.540842    
     21010   1447.864      -5397.6625     -5110.3855      2315.2328      58392.95       58.441022    
     21020   1462.0877     -5400.6713     -5110.5721      2478.9538      58355.132      58.340623    
     21030   1445.5306     -5397.5522     -5110.7383      2931.4728      58317.559      58.242111    
     21040   1434.6431     -5395.5198     -5110.866       3243.445       58280.953      58.144045    
     21050   1438.1938     -5396.2782     -5110.9199      3052.7632      58245.894      58.049733    
     21060   1446.6232     -5397.9521     -5110.9214      2609.5049      58212.376      57.962338    
     21070   1443.8692     -5397.3904     -5110.906       2267.9853      58180.146      57.875665    
     21080   1455.9019     -5399.7561     -5110.8843      2060.6307      58148.957      57.794609    
     21090   1466.9286     -5401.9241     -5110.8644      2011.6884      58118.336      57.725566    
     21100   1485.2805     -5405.6426     -5110.9417      2000.987       58087.869      57.664009    
     21110   1469.1918     -5402.6093     -5111.1006      2327.4186      58057.534      57.621218    
     21120   1449.4215     -5398.9006     -5111.3146      2709.383       58027.844      57.600812    
     21130   1438.8611     -5397.0187     -5111.528       2796.189       57999.097      57.590778    
     21140   1429.0678     -5395.2393     -5111.6917      2507.3379      57971.079      57.592502    
     21150   1434.8472     -5396.4998     -5111.8055      2162.5256      57943.373      57.600573    
     21160   1432.5532     -5396.1021     -5111.863       2104.2363      57915.819      57.602309    
     21170   1422.9039     -5394.1882     -5111.8637      2324.889       57888.486      57.584871    
     21180   1417.0144     -5392.9263     -5111.7703      2733.0156      57861.685      57.550618    
     21190   1408.1408     -5390.9674     -5111.5721      2996.9456      57835.837      57.511034    
     21200   1406.0304     -5390.2291     -5111.2526      3103.8424      57811.114      57.466909    
     21210   1414.7851     -5391.5215     -5110.8079      2867.7884      57787.308      57.419283    
     21220   1424.5889     -5392.8896     -5110.2308      2505.4497      57764.006      57.379491    
     21230   1470.048      -5401.2883     -5109.6097      2039.8264      57740.911      57.346545    
     21240   1474.0464     -5401.5066     -5109.0347      2213.5935      57717.593      57.324597    
     21250   1447.1493     -5395.6692     -5108.534       2772.2585      57694.207      57.307033    
     21260   1439.2813     -5393.6125     -5108.0385      3241.3211      57671.345      57.279174    
     21270   1452.5061     -5395.7007     -5107.5027      3404.2819      57649.362      57.249725    
     21280   1454.1626     -5395.4641     -5106.9374      3549.1512      57628.433      57.231736    
     21290   1432.4197     -5390.5129     -5106.3004      3693.6243      57608.699      57.228039    
     21300   1459.4569     -5395.1195     -5105.5423      3192.7448      57590.168      57.23061     
     21310   1474.2154     -5397.0824     -5104.5769      2611.1328      57572.306      57.232183    
     21320   1475.3618     -5396.1152     -5103.3823      2263.9226      57554.381      57.243232    
     21330   1476.7403     -5394.8236     -5101.8172      2160.2541      57535.937      57.268401    
     21340   1466.2495     -5390.6982     -5099.7733      2577.7903      57517.05       57.305692    
     21350   1481.0525     -5391.1344     -5097.2724      3023.6024      57498.506      57.345529    
     21360   1521.0476     -5396.3247     -5094.5271      3172.5614      57481.146      57.385661    
     21370   1548.0416     -5399.1248     -5091.9711      3247.1357      57465.392      57.426997    
     21380   1567.6149     -5401.006      -5089.9687      3229.4141      57451.298      57.472625    
     21390   1561.7415     -5398.4905     -5088.6186      3370.6921      57438.883      57.530779    
     21400   1545.6072     -5394.5673     -5087.8967      3413.9803      57428.116      57.603606    
     21410   1514.956      -5388.2285     -5087.6396      3680.5286      57418.799      57.695786    
     21420   1499.4974     -5385.1923     -5087.6705      3744.1202      57410.795      57.808861    
     21430   1508.2671     -5387.2262     -5087.9644      3643.4012      57403.9        57.929645    
     21440   1493.3334     -5384.7986     -5088.4998      3850.6665      57397.671      58.047668    
     21450   1464.2391     -5379.7419     -5089.2159      4213.2053      57391.597      58.150831    
     21460   1469.546      -5381.6118     -5090.0328      4192.7743      57385.711      58.236801    
     21470   1471.2371     -5382.8591     -5090.9446      4249.6829      57380.544      58.314982    
     21480   1478.6332     -5385.3435     -5091.9615      4153.9629      57376.536      58.401808    
     21490   1490.937      -5388.9419     -5093.1186      3948.9304      57373.532      58.505796    
     21500   1482.5509     -5388.6006     -5094.4413      3902.2471      57371.04       58.611039    
     21510   1474.173      -5388.3896     -5095.8926      3921.1544      57368.893      58.694673    
     21520   1441.2666     -5383.2909     -5097.323       4095.6582      57367.194      58.761443    
     21530   1445.4367     -5385.4589     -5098.6635      3807.1952      57366.38       58.821506    
     21540   1465.8626     -5390.7891     -5099.9409      3599.9464      57366.573      58.881264    
     21550   1450.4674     -5388.9653     -5101.1718      3965.7113      57367.653      58.949687    
     21560   1438.9645     -5387.8121     -5102.301       4196.0793      57369.605      59.038263    
     21570   1446.6504     -5390.3749     -5103.3387      4072.7726      57372.302      59.14411     
     21580   1444.5359     -5390.9114     -5104.2948      3925.1486      57375.601      59.251984    
     21590   1451.9103     -5393.2804     -5105.2006      3818.8272      57379.538      59.363054    
     21600   1451.6811     -5394.119      -5106.0847      3905.0972      57384.173      59.48012     
     21610   1450.0105     -5394.6731     -5106.9702      4000.5499      57389.594      59.607625    
     21620   1434.5766     -5392.4509     -5107.8104      4082.7221      57396.029      59.752596    
     21630   1450.9882     -5396.5269     -5108.63        3703.9742      57403.696      59.902606    
     21640   1456.3014     -5398.4165     -5109.4654      3438.6588      57412.441      60.042611    
     21650   1440.4919     -5396.1313     -5110.3171      3288.6202      57422.242      60.179976    
     21660   1453.9135     -5399.6646     -5111.1873      3013.98        57433.246      60.323811    
     21670   1457.9979     -5401.3744     -5112.0867      2787.9084      57445.574      60.478314    
     21680   1462.808      -5403.293      -5113.0509      2956.6742      57459.256      60.64546     
     21690   1473.6031     -5406.4823     -5114.0983      3064.8074      57474.285      60.815611    
     21700   1467.1501     -5406.3354     -5115.2319      3275.1567      57490.437      60.976955    
     21710   1471.9971     -5408.5078     -5116.4425      3210.3025      57507.542      61.128163    
     21720   1470.6498     -5409.5189     -5117.7209      3099.8742      57525.485      61.279616    
     21730   1456.9315     -5408.1167     -5119.0406      2876.5191      57544.195      61.428066    
     21740   1453.6377     -5408.7484     -5120.3259      2646.1091      57563.763      61.565656    
     21750   1457.8108     -5410.8486     -5121.5981      2397.5317      57584.118      61.691761    
     21760   1434.0345     -5407.3246     -5122.7916      2378.2478      57604.699      61.813891    
     21770   1431.8672     -5407.9915     -5123.8885      2140.3683      57625.149      61.938875    
     21780   1425.8063     -5407.7845     -5124.8842      2055.8978      57645.403      62.081157    
     21790   1407.6109     -5405.0292     -5125.739       2092.9184      57665.424      62.240218    
     21800   1401.7824     -5404.6011     -5126.4674      2008.9999      57684.868      62.394503    
     21810   1385.4023     -5401.9091     -5127.0254      2032.0886      57703.019      62.539881    
     21820   1413.9938     -5408.0189     -5127.4623      1719.1959      57719.469      62.681346    
     21830   1427.0924     -5410.9889     -5127.8333      1444.5381      57733.988      62.812323    
     21840   1419.7262     -5409.924      -5128.2299      1276.4185      57746.625      62.923005    
     21850   1375.8555     -5401.5634     -5128.5739      1189.1203      57757.499      63.021546    
     21860   1369.6679     -5400.5636     -5128.8019      948.17317      57766.506      63.127269    
     21870   1360.6065     -5398.8083     -5128.8445      877.71106      57773.468      63.257316    
     21880   1360.1261     -5398.5861     -5128.7176      902.51926      57778.423      63.410934    
     21890   1358.27       -5397.9034     -5128.4032      946.62984      57781.42       63.569001    
     21900   1338.4535     -5393.4617     -5127.8933      1309.2892      57782.509      63.706143    
     21910   1351.8933     -5395.3854     -5127.1504      1623.7936      57782.156      63.813842    
     21920   1356.2898     -5395.2737     -5126.1664      1865.5674      57780.825      63.903569    
     21930   1365.6441     -5395.9728     -5125.0094      2012.2585      57778.807      63.980122    
     21940   1397.8041     -5401.0448     -5123.7004      1876.9308      57776.286      64.059782    
     21950   1409.4131     -5402.001      -5122.3532      1964.2137      57773.271      64.158       
     21960   1433.0945     -5405.4419     -5121.0954      2033.3169      57769.811      64.285903    
     21970   1452.5406     -5408.1965     -5119.9917      1884.4162      57765.788      64.431056    
     21980   1455.562      -5407.9303     -5119.1259      1717.1233      57760.847      64.57367     
     21990   1448.1055     -5405.8195     -5118.4946      1801.9792      57755.047      64.702038    
     22000   1431.2802     -5402.0446     -5118.0581      2114.513       57748.759      64.805065    
     22010   1412.6912     -5398.0334     -5117.7353      2475.5195      57742.368      64.881717    
     22020   1419.3075     -5399.0757     -5117.4648      2530.7914      57736.256      64.942845    
     22030   1431.4692     -5401.2762     -5117.2523      2452.4422      57730.53       65.006581    
     22040   1435.4553     -5401.9504     -5117.1355      2544.9341      57725.133      65.077404    
     22050   1422.0117     -5399.2511     -5117.1036      2766.0136      57720.112      65.152868    
     22060   1433.938      -5401.6692     -5117.1553      2789.8996      57715.628      65.239793    
     22070   1420.2093     -5399.0599     -5117.2701      2881.6178      57711.668      65.333026    
     22080   1389.5796     -5393.135      -5117.4225      2977.4432      57708.254      65.427695    
     22090   1390.4225     -5393.4122     -5117.5325      2789.5135      57705.44       65.518901    
     22100   1381.0581     -5391.5896     -5117.5679      2663.307       57703.224      65.60148     
     22110   1388.8575     -5393.0995     -5117.5303      2698.4179      57701.726      65.66532     
     22120   1407.3048     -5396.6638     -5117.4344      2857.1366      57701.028      65.714987    
     22130   1431.5251     -5401.3901     -5117.3551      2971.3215      57701.13       65.772235    
     22140   1453.5856     -5405.7861     -5117.3739      2998.7892      57701.991      65.84751     
     22150   1450.614      -5405.3712     -5117.5486      2915.7662      57703.707      65.932009    
     22160   1471.9262     -5410.0034     -5117.9522      2518.9012      57706.094      66.012894    
     22170   1454.8979     -5407.2744     -5118.6018      2297.7866      57708.52       66.089399    
     22180   1431.5303     -5403.5182     -5119.4821      2314.6516      57710.562      66.171664    
     22190   1413.4764     -5400.9562     -5120.5022      2381.8509      57712.143      66.268125    
     22200   1395.074      -5398.4312     -5121.6285      2485.3304      57713.071      66.377942    
     22210   1382.0334     -5396.9912     -5122.776       2650.0344      57713.16       66.49768     
     22220   1377.9984     -5397.334      -5123.9194      2727.9313      57712.392      66.61959     
     22230   1376.8741     -5398.2213     -5125.0298      2883.6207      57710.646      66.735968    
     22240   1373.252      -5398.5469     -5126.074       3168.7635      57708.083      66.854974    
     22250   1397.2126     -5404.3224     -5127.0954      3142.811       57705.458      66.984759    
     22260   1425.7872     -5411.0468     -5128.1501      3092.0651      57703.421      67.11032     
     22270   1438.1778     -5414.6917     -5129.3366      3227.1199      57702.269      67.225182    
     22280   1420.9344     -5412.5859     -5130.6522      3477.5721      57702.306      67.340208    
     22290   1407.6202     -5411.3031     -5132.0111      3497.8343      57703.728      67.469103    
     22300   1393.7852     -5409.8665     -5133.3195      3337.7118      57706.38       67.606482    
     22310   1379.241      -5408.1566     -5134.4954      2905.8629      57709.774      67.736725    
     22320   1375.1308     -5408.3027     -5135.4571      2461.2344      57713.49       67.86135     
     22330   1377.5545     -5409.5299     -5136.2034      2235.5811      57717.335      67.991612    
     22340   1359.0355     -5406.3768     -5136.7247      2407.366       57721.407      68.13429     
     22350   1353.4305     -5405.5748     -5137.0348      2680.9289      57726.116      68.286342    
     22360   1356.5144     -5406.2999     -5137.148       2789.8815      57731.804      68.445146    
     22370   1362.2903     -5407.4158     -5137.1179      2544.7148      57738.526      68.60369     
     22380   1377.181      -5410.2576     -5137.0051      2155.825       57745.981      68.757909    
     22390   1379.105      -5410.4956     -5136.8614      2221.7457      57753.564      68.909191    
     22400   1378.9066     -5410.2957     -5136.7008      2498.1884      57761.012      69.059573    
     22410   1374.0045     -5409.1392     -5136.517       2653.8006      57768.414      69.205569    
     22420   1372.3825     -5408.5994     -5136.299       2774.3076      57775.975      69.335759    
     22430   1390.34       -5411.922      -5136.0586      2673.9141      57783.95       69.449108    
     22440   1377.9656     -5409.212      -5135.8039      2689.2653      57792.327      69.555778    
     22450   1375.0743     -5408.3771     -5135.5426      2557.9073      57800.941      69.66098     
     22460   1367.9131     -5406.6357     -5135.2222      2413.7304      57809.492      69.756378    
     22470   1356.9806     -5404.0745     -5134.8301      2420.5716      57817.529      69.844643    
     22480   1368.4488     -5405.8784     -5134.3586      2356.3308      57824.963      69.941597    
     22490   1372.5408     -5406.1318     -5133.8001      2325.6486      57832.043      70.045582    
     22500   1390.2739     -5409.0568     -5133.2065      2195.5012      57838.871      70.150497    
     22510   1388.4494     -5408.0878     -5132.5995      2336.2658      57845.301      70.257407    
     22520   1388.5066     -5407.5106     -5132.011       2605.3683      57851.311      70.353717    
     22530   1394.5059     -5408.1101     -5131.4202      2752.2817      57857.088      70.428852    
     22540   1418.0035     -5412.2058     -5130.8536      2513.2207      57862.922      70.498944    
     22550   1442.1137     -5416.5264     -5130.3903      2206.847       57868.766      70.573552    
     22560   1428.3601     -5413.5084     -5130.1013      2088.0164      57874.365      70.632656    
     22570   1415.349      -5410.8054     -5129.9799      1966.6222      57879.722      70.665382    
     22580   1404.8792     -5408.7206     -5129.9724      1960.6424      57884.721      70.690186    
     22590   1382.1522     -5404.2726     -5130.0338      2064.0801      57889.423      70.726989    
     22600   1367.9383     -5401.5194     -5130.1009      2070.701       57894.211      70.782774    
     22610   1360.3069     -5400.0073     -5130.1029      1859.1374      57899.156      70.85301     
     22620   1352.2344     -5398.3517     -5130.049       1635.3546      57903.864      70.919608    
     22630   1329.9289     -5393.7382     -5129.8612      1668.5788      57908.12       70.974261    
     22640   1338.9888     -5395.1711     -5129.4966      1699.7824      57911.994      71.027419    
     22650   1350.1918     -5396.8359     -5128.9385      1797.6159      57915.516      71.090898    
     22660   1365.284      -5399.1039     -5128.212       1890.4306      57918.5        71.162709    
     22670   1397.0515     -5404.5447     -5127.3497      1858.1317      57920.758      71.232647    
     22680   1423.9091     -5408.9674     -5126.4435      1922.7873      57922.236      71.291166    
     22690   1442.2154     -5411.7755     -5125.6193      2125.6585      57922.897      71.350701    
     22700   1428.6551     -5408.4104     -5124.9448      2374.8289      57922.787      71.42459     
     22710   1417.9754     -5405.7609     -5124.4142      2347.7498      57922.156      71.506105    
     22720   1413.9828     -5404.5502     -5123.9957      2255.975       57921.017      71.580828    
     22730   1420.0098     -5405.4261     -5123.6759      2094.3408      57919.164      71.639396    
     22740   1436.6705     -5408.5591     -5123.5031      1943.5307      57916.299      71.694966    
     22750   1432.6998     -5407.7838     -5123.5157      2109.0517      57912.12       71.758935    
     22760   1415.1719     -5404.548      -5123.7576      2374.7945      57906.626      71.83424     
     22770   1403.6203     -5402.6807     -5124.1823      2618.2653      57900.137      71.919381    
     22780   1397.238      -5402.016      -5124.784       2558.205       57893.05       72.006278    
     22790   1417.8356     -5406.9053     -5125.5864      2204.7058      57885.335      72.089819    
     22800   1415.2952     -5407.4758     -5126.661       2019.9941      57876.745      72.170108    
     22810   1407.8742     -5407.3751     -5128.0327      1787.0838      57867.057      72.253684    
     22820   1412.6415     -5409.9529     -5129.6646      1559.5566      57856.099      72.328254    
     22830   1404.4033     -5410.1719     -5131.5181      1621.3656      57843.877      72.376926    
     22840   1377.5205     -5406.7537     -5133.4339      1910.1472      57830.587      72.397629    
     22850   1361.3586     -5405.361      -5135.2479      2061.6156      57816.324      72.408397    
     22860   1331.5434     -5400.9884     -5136.7911      2285.3251      57800.734      72.411257    
     22870   1313.3233     -5398.5656     -5137.9834      2471.2873      57783.76       72.396048    
     22880   1318.8915     -5400.5054     -5138.8184      2525.0166      57765.774      72.375896    
     22890   1332.0608     -5403.6793     -5139.3794      2496.7517      57747.031      72.353148    
     22900   1347.697      -5407.151      -5139.7486      2417.572       57727.762      72.311065    
     22910   1366.3494     -5411.1218     -5140.0185      2405.0599      57708.196      72.253262    
     22920   1367.2307     -5411.5122     -5140.2341      2513.851       57688.389      72.199532    
     22930   1362.698      -5410.8135     -5140.4347      2638.9626      57668.284      72.152851    
     22940   1345.7387     -5407.6077     -5140.5938      2725.8219      57647.755      72.103617    
     22950   1345.6996     -5407.6798     -5140.6737      2618.737       57626.89       72.058533    
     22960   1365.4841     -5411.6224     -5140.6908      2245.4072      57605.974      72.024711    
     22970   1355.5074     -5409.6292     -5140.6771      2232.1027      57585.138      72.002026    
     22980   1346.6304     -5407.8215     -5140.6308      2317.0479      57564.591      71.989033    
     22990   1332.8207     -5404.9603     -5140.5096      2477.2199      57544.545      71.982032    
     23000   1319.9622     -5402.1672     -5140.2678      2647.6569      57525.179      71.975641    
     23010   1333.8889     -5404.5612     -5139.8985      2737.0084      57506.602      71.974264    
     23020   1340.9088     -5405.454      -5139.3985      3031.3451      57488.821      71.990523    
     23030   1369.7419     -5410.5828     -5138.8064      3108.047       57471.994      72.039116    
     23040   1412.2883     -5418.4464     -5138.2282      2919.7669      57456.042      72.114508    
     23050   1405.8753     -5416.7252     -5137.7794      2964.4683      57440.617      72.193246    
     23060   1384.1373     -5412.1077     -5137.475       3295.9345      57425.678      72.265192    
     23070   1394.6876     -5413.9805     -5137.2545      3253.1369      57411.504      72.330129    
     23080   1420.8356     -5419.0609     -5137.1468      2942.904       57398.136      72.40062     
     23090   1430.7239     -5421.1289     -5137.2528      2687.9969      57385.281      72.490793    
     23100   1419.9764     -5419.3821     -5137.6384      2661.6728      57372.598      72.587322    
     23110   1395.0982     -5415.0765     -5138.2691      2768.3492      57359.925      72.679335    
     23120   1392.375      -5415.3842     -5139.117       2743.7275      57347.261      72.77032     
     23130   1399.1993     -5417.7887     -5140.1675      2583.4138      57334.569      72.86878     
     23140   1402.1578     -5419.6941     -5141.4859      2296.8841      57321.718      72.959544    
     23150   1388.9918     -5418.6595     -5143.0637      2056.829       57308.555      73.019448    
     23160   1363.0979     -5415.2402     -5144.7821      1886.7404      57295.001      73.050154    
     23170   1360.5146     -5416.4696     -5146.524       1595.0589      57280.803      73.067223    
     23180   1356.3867     -5417.3079     -5148.1813      1701.5823      57265.673      73.088734    
     23190   1345.0475     -5416.5472     -5149.6706      1998.6999      57249.624      73.130806    
     23200   1340.0995     -5416.808      -5150.9131      2204.3384      57232.831      73.190843    
     23210   1328.0056     -5415.386      -5151.8907      2298.989       57215.549      73.251782    
     23220   1321.989      -5414.8971     -5152.5955      2405.1921      57198.067      73.302147    
     23230   1337.1206     -5418.3878     -5153.0839      2393.8526      57180.598      73.339083    
     23240   1344.304      -5420.1577     -5153.4286      2614.6226      57163.167      73.35609     
     23250   1349.2992     -5421.4065     -5153.6862      2773.5052      57145.735      73.351167    
     23260   1364.8756     -5424.7086     -5153.8978      2700.3012      57128.272      73.345794    
     23270   1371.6144     -5426.269      -5154.1211      2553.1055      57110.678      73.357716    
     23280   1362.0188     -5424.616      -5154.3719      2386.6001      57093.141      73.38264     
     23290   1341.0746     -5420.722      -5154.6336      2309.8447      57075.73       73.425909    
     23300   1314.3023     -5415.5896     -5154.8132      2388.5466      57058.534      73.495262    
     23310   1312.0551     -5415.2205     -5154.8899      2393.9407      57041.508      73.57764     
     23320   1310.6281     -5414.8726     -5154.8252      2314.2491      57024.188      73.629004    
     23330   1315.2848     -5415.6152     -5154.6439      2167.9578      57006.102      73.628556    
     23340   1330.6136     -5418.3732     -5154.3604      1864.5599      56986.938      73.599545    
     23350   1346.1925     -5421.1088     -5154.0049      1711.7585      56966.322      73.543298    
     23360   1359.7591     -5423.4456     -5153.6499      1677.5563      56943.995      73.453263    
     23370   1365.0613     -5424.1718     -5153.324       1977.3818      56920.085      73.341267    
     23380   1360.3609     -5422.9662     -5153.0511      2362.6313      56895.008      73.226461    
     23390   1346.648      -5419.9969     -5152.8027      2784.7066      56869.083      73.120007    
     23400   1343.678      -5419.1477     -5152.5427      3200.8168      56842.696      73.036533    
     23410   1375.7398     -5425.2583     -5152.2918      3195.4723      56816.38       72.964838    
     23420   1381.3963     -5426.1885     -5152.0997      3239.2445      56790.408      72.88328     
     23430   1378.9675     -5425.6355     -5152.0286      3320.4912      56765.212      72.800956    
     23440   1376.9886     -5425.2872     -5152.073       3336.2165      56741.145      72.733393    
     23450   1372.8987     -5424.6372     -5152.2344      3267.7054      56718.283      72.682982    
     23460   1368.6258     -5424.0736     -5152.5187      2961.2551      56696.56       72.646293    
     23470   1386.3467     -5428.0217     -5152.9507      2540.7615      56675.72       72.61946     
     23480   1389.6983     -5429.3199     -5153.5839      2450.8149      56655.255      72.599017    
     23490   1369.6767     -5426.2332     -5154.4697      2802.6132      56634.635      72.576192    
     23500   1345.1659     -5422.4213     -5155.5211      3154.6376      56613.831      72.555412    
     23510   1343.8745     -5423.3496     -5156.7057      3190.9441      56593.176      72.549754    
     23520   1329.146      -5421.6925     -5157.9709      3252.0703      56572.703      72.55513     
     23530   1307.7357     -5418.7332     -5159.2597      3341.5929      56552.399      72.561996    
     23540   1299.0649     -5418.2194     -5160.4663      3412.6945      56532.379      72.568015    
     23550   1326.0641     -5424.6969     -5161.5868      3222.7932      56512.926      72.579716    
     23560   1329.708      -5426.4873     -5162.6542      3199.8489      56494.336      72.591369    
     23570   1334.0704     -5428.3824     -5163.6838      3159.756       56476.929      72.613505    
     23580   1334.5461     -5429.4584     -5164.6653      3072.6785      56460.651      72.655908    
     23590   1344.2878     -5432.3328     -5165.6068      2816.3906      56445.19       72.704401    
     23600   1368.4829     -5438.0808     -5166.5542      2450.7077      56430.271      72.751932    
     23610   1373.9247     -5440.1667     -5167.5604      2312.264       56415.544      72.800153    
     23620   1358.8947     -5438.2214     -5168.5973      2592.0763      56400.726      72.846245    
     23630   1341.704      -5435.8147     -5169.6014      3043.6195      56385.881      72.890198    
     23640   1321.3806     -5432.6561     -5170.4753      3478.2449      56371.3        72.927526    
     23650   1334.7098     -5436.0205     -5171.195       3579.509       56357.293      72.953416    
     23660   1337.1304     -5437.1016     -5171.7957      3595.3028      56344.263      72.988364    
     23670   1330.1249     -5436.2245     -5172.3086      3645.624       56332.597      73.054117    
     23680   1318.1783     -5434.2535     -5172.7081      3644.9636      56322.251      73.150868    
     23690   1330.2116     -5436.9397     -5173.0067      3350.8948      56312.887      73.270919    
     23700   1352.1421     -5441.5375     -5173.2531      3053.4225      56304.069      73.399362    
     23710   1350.1233     -5441.4016     -5173.5178      2990.2451      56295.565      73.528319    
     23720   1326.8963     -5437.0631     -5173.7879      3170.1956      56287.424      73.644962    
     23730   1318.9705     -5435.7096     -5174.0069      3211.9871      56279.847      73.729624    
     23740   1330.3447     -5438.1255     -5174.1661      3091.5084      56273.027      73.787005    
     23750   1334.0524     -5438.9989     -5174.3038      2955.2697      56266.998      73.844631    
     23760   1323.9745     -5437.1191     -5174.4236      3017.6407      56261.62       73.921275    
     23770   1320.1392     -5436.4611     -5174.5265      3066.6826      56256.789      74.023309    
     23780   1307.3713     -5433.9727     -5174.5715      3169.1002      56252.351      74.146548    
     23790   1310.2104     -5434.5172     -5174.5527      3233.2436      56248.019      74.27601     
     23800   1320.6319     -5436.5079     -5174.4757      3262.5324      56243.494      74.408773    
     23810   1320.1153     -5436.2944     -5174.3647      3270.1208      56238.629      74.54997     
     23820   1308.7434     -5433.8914     -5174.2179      3348.8757      56233.545      74.68843     
     23830   1311.2804     -5434.1993     -5174.0225      3444.515       56228.492      74.814623    
     23840   1307.3312     -5433.1553     -5173.762       3575.3137      56223.74       74.930076    
     23850   1317.6599     -5434.8831     -5173.4405      3560.6529      56219.534      75.038883    
     23860   1323.3918     -5435.6503     -5173.0704      3483.7483      56215.823      75.15209     
     23870   1317.8067     -5434.147      -5172.6753      3446.6338      56212.449      75.280234    
     23880   1310.0267     -5432.1768     -5172.2487      3447.9568      56209.274      75.424547    
     23890   1311.6097     -5431.9907     -5171.7486      3458.9524      56206.347      75.571592    
     23900   1332.8962     -5435.6565     -5171.1908      3415.4223      56203.73       75.698096    
     23910   1337.4206     -5435.9846     -5170.6212      3599.0065      56201.328      75.786478    
     23920   1311.9401     -5430.3428     -5170.0351      3945.271       56199.325      75.844005    
     23930   1323.214      -5431.9647     -5169.4201      3758.812       56198.112      75.89276     
     23940   1333.7685     -5433.3842     -5168.7454      3468.6344      56197.705      75.952753    
     23950   1322.8027     -5430.5024     -5168.0394      3444.9861      56197.861      76.035932    
     23960   1314.4062     -5428.0854     -5167.2884      3532.1827      56198.708      76.149827    
     23970   1323.4352     -5429.0358     -5166.4473      3451.6325      56200.469      76.278653    
     23980   1324.481      -5428.3147     -5165.5187      3554.0446      56203.155      76.401164    
     23990   1321.8987     -5426.7817     -5164.4981      3772.7382      56206.913      76.50926     
     24000   1348.8659     -5431.025      -5163.3907      3751.0479      56211.89       76.608375    
     24010   1383.1092     -5436.6896     -5162.2609      3676.034       56218.122      76.7195      
     24020   1387.6353     -5436.5647     -5161.238       3881.7933      56225.63       76.835913    
     24030   1378.0335     -5433.8192     -5160.3976      4115.1095      56234.456      76.944436    
     24040   1377.4827     -5433.0333     -5159.721       4145.3247      56244.649      77.065237    
     24050   1375.1421     -5432.0533     -5159.2055      4078.2066      56256.269      77.210138    
     24060   1375.5762     -5431.7926     -5158.8586      3984.029       56269.17       77.365518    
     24070   1361.1319     -5428.738      -5158.67        3913.9958      56282.998      77.532335    
     24080   1353.6166     -5427.2098     -5158.6329      3896.2197      56297.424      77.708805    
     24090   1367.6278     -5430.108      -5158.7511      3700.832       56312.223      77.88834     
     24100   1366.9125     -5430.3098     -5159.0948      3527.991       56327.273      78.068856    
     24110   1349.599      -5427.4969     -5159.7172      3481.9738      56342.754      78.247381    
     24120   1335.0645     -5425.5428     -5160.6469      3317.1348      56358.88       78.422681    
     24130   1310.7345     -5421.8771     -5161.8086      3218.0794      56375.649      78.594955    
     24140   1317.1307     -5424.5292     -5163.1916      2845.0853      56392.893      78.773128    
     24150   1309.8471     -5424.6412     -5164.7488      2433.7704      56410.024      78.958706    
     24160   1306.7736     -5425.6699     -5166.3873      2003.5239      56426.476      79.13876     
     24170   1310.7076     -5428.1052     -5168.0421      1735.4315      56441.769      79.31218     
     24180   1316.9578     -5430.9467     -5169.6434      1652.2104      56455.817      79.477026    
     24190   1327.068      -5434.4773     -5171.168       1734.0819      56468.805      79.628058    
     24200   1317.1616     -5433.9229     -5172.5791      2125.5017      56481.028      79.778139    
     24210   1316.1266     -5434.9801     -5173.8417      2497.8094      56492.936      79.944258    
     24220   1320.8684     -5437.04       -5174.9608      2911.6754      56505.189      80.130867    
     24230   1317.4231     -5437.3531     -5175.9575      3163.798       56518.317      80.339751    
     24240   1317.7609     -5438.3126     -5176.85        3109.6908      56532.52       80.573591    
     24250   1301.4306     -5435.8704     -5177.6479      3123.4035      56547.825      80.821163    
     24260   1280.5766     -5432.3811     -5178.2964      3117.0908      56564.035      81.06102     
     24270   1283.8886     -5433.5398     -5178.7979      2825.1843      56580.69       81.271301    
     24280   1299.2438     -5436.9745     -5179.1859      2448.9394      56597.149      81.456451    
     24290   1288.1249     -5435.0753     -5179.4929      2337.9336      56612.942      81.634082    
     24300   1285.7344     -5434.8336     -5179.7255      2385.323       56627.958      81.810811    
     24310   1301.7085     -5438.172      -5179.8944      2382.6263      56642.33       81.997643    
     24320   1309.051      -5439.769      -5180.0346      2506.2346      56656.167      82.195672    
     24330   1300.7553     -5438.2705     -5180.182       2563.9992      56669.754      82.39358     
     24340   1295.5348     -5437.3693     -5180.3166      2416.2562      56683.252      82.571844    
     24350   1287.4587     -5435.8575     -5180.4073      2123.4891      56696.349      82.731184    
     24360   1276.2481     -5433.6713     -5180.4454      1849.3419      56708.669      82.885322    
     24370   1269.681      -5432.3126     -5180.3897      1718.0095      56719.957      83.041823    
     24380   1270.2469     -5432.2555     -5180.2203      1748.6486      56730.218      83.190187    
     24390   1296.6135     -5437.2048     -5179.9381      1634.1659      56739.424      83.319004    
     24400   1308.0269     -5439.1377     -5179.6064      1612.1287      56747.155      83.426761    
     24410   1291.2106     -5435.4595     -5179.2648      1888.6603      56753.198      83.518868    
     24420   1270.5854     -5430.9653     -5178.863       2185.1802      56757.696      83.595415    
     24430   1286.5069     -5433.6423     -5178.3809      2091.4259      56761.011      83.651093    
     24440   1287.2396     -5433.1879     -5177.7811      2048.1812      56763.549      83.694587    
     24450   1282.4472     -5431.5542     -5177.0983      2225.6018      56765.455      83.730053    
     24460   1281.504      -5430.5739     -5176.3051      2551.3713      56766.77       83.766003    
     24470   1303.2987     -5434.0027     -5175.4096      2756.1661      56767.388      83.814467    
     24480   1300.7494     -5432.528      -5174.4406      3081.1303      56767.206      83.882036    
     24490   1303.2529     -5432.0383     -5173.4543      3187.3726      56766.466      83.97353     
     24500   1309.8632     -5432.3324     -5172.4368      3093.6807      56765.403      84.083627    
     24510   1296.1192     -5428.5974     -5171.4288      3150.0922      56764.076      84.202851    
     24520   1277.2398     -5423.8326     -5170.41        3304.5119      56762.601      84.324605    
     24530   1278.8967     -5423.0999     -5169.3484      3229.2328      56761.221      84.4477      
     24540   1271.6206     -5420.5444     -5168.2367      3233.4122      56759.938      84.569412    
     24550   1266.0065     -5418.2838     -5167.09        3181.858       56758.8        84.667853    
     24560   1285.7417     -5421.0256     -5165.9161      2908.0569      56758.034      84.744804    
     24570   1310.0755     -5424.7266     -5164.7888      2635.0212      56757.495      84.822281    
     24580   1300.4777     -5421.8441     -5163.8107      2848.0916      56756.926      84.915916    
     24590   1299.2242     -5420.7708     -5162.9861      3114.3201      56756.669      85.025198    
     24600   1322.5024     -5424.7163     -5162.3129      3097.2806      56757.353      85.156018    
     24610   1324.5967     -5424.6335     -5161.8146      3044.5569      56759.343      85.313291    
     24620   1312.0593     -5421.8357     -5161.5043      3237.4618      56762.796      85.475637    
     24630   1315.9087     -5422.4048     -5161.3097      3371.3722      56767.905      85.605856    
     24640   1350.1279     -5429.1284     -5161.2437      3392.8794      56774.883      85.707963    
     24650   1365.2862     -5432.2815     -5161.3892      3428.6443      56784.092      85.810383    
     24660   1365.8877     -5432.7938     -5161.7821      3385.9989      56795.963      85.929124    
     24670   1361.284      -5432.4796     -5162.3814      3162.5454      56810.683      86.070707    
     24680   1348.4432     -5430.7148     -5163.1644      2985.0714      56827.96       86.227313    
     24690   1330.4683     -5428.0276     -5164.0436      3010.5281      56847.193      86.403808    
     24700   1329.3033     -5428.7128     -5164.96        3165.3773      56867.81       86.590205    
     24710   1340.4399     -5431.886      -5165.9235      3221.6267      56889.622      86.762633    
     24720   1350.9797     -5435.012      -5166.9582      3114.595       56912.599      86.908406    
     24730   1365.0573     -5438.9337     -5168.0868      2691.3079      56936.428      87.032525    
     24740   1368.4453     -5440.8688     -5169.3496      2304.5878      56960.518      87.145582    
     24750   1346.3494     -5437.8252     -5170.6902      2203.7352      56984.454      87.266381    
     24760   1314.4429     -5432.7993     -5171.995       2294.9956      57008.09       87.413671    
     24770   1297.3063     -5430.5746     -5173.1704      2398.8921      57031.454      87.602846    
     24780   1288.2888     -5429.8015     -5174.1866      2462.5043      57054.707      87.824841    
     24790   1284.0186     -5429.8184     -5175.0507      2460.1171      57077.828      88.054854    
     24800   1291.8796     -5432.1328     -5175.8054      2317.4347      57100.524      88.286955    
     24810   1279.6431     -5430.3684     -5176.4689      2293.7055      57122.404      88.51491     
     24820   1272.3983     -5429.5115     -5177.0494      2235.731       57143.163      88.732057    
     24830   1273.9295     -5430.3098     -5177.544       2052.6655      57162.596      88.942329    
     24840   1284.7275     -5432.8821     -5177.9737      1743.9425      57180.615      89.152146    
     24850   1287.2026     -5433.7961     -5178.3967      1497.7172      57197.039      89.363448    
     24860   1292.6784     -5435.2991     -5178.8132      1191.8687      57211.635      89.573046    
     24870   1302.5735     -5437.7146     -5179.2654      888.77186      57224.082      89.77472     
     24880   1299.3089     -5437.5989     -5179.7974      869.12606      57234.191      89.943792    
     24890   1278.0254     -5433.9536     -5180.3751      1180.1052      57242.182      90.069159    
     24900   1254.5705     -5429.8521     -5180.9273      1552.6156      57248.681      90.161348    
     24910   1245.3413     -5428.4923     -5181.3988      1886.656       57254.154      90.239943    
     24920   1229.496      -5425.6941     -5181.7445      2283.6752      57259.044      90.322534    
     24930   1227.9471     -5425.5718     -5181.9295      2502.8289      57263.815      90.423379    
     24940   1245.3014     -5429.042      -5181.9564      2540.8515      57268.639      90.547816    
     24950   1266.7611     -5433.2164     -5181.8729      2187.3204      57273.351      90.689587    
     24960   1253.0359     -5430.3505     -5181.7302      2048.7017      57277.527      90.842215    
     24970   1226.9681     -5424.9452     -5181.4971      2091.4841      57280.665      90.988152    
     24980   1223.8798     -5423.9546     -5181.1193      2119.7906      57282.496      91.111461    
     24990   1221.8928     -5422.9574     -5180.5164      2228.1864      57283.016      91.206771    
     25000   1245.3364     -5426.8246     -5179.732       2066.775       57282.547      91.278119    
     25010   1257.1453     -5428.2125     -5178.7769      1855.2673      57281.508      91.337953    
     25020   1272.2385     -5430.1604     -5177.7301      1631.0016      57280.074      91.395371    
     25030   1287.4613     -5432.1053     -5176.6546      1408.035       57278.176      91.465982    
     25040   1288.3212     -5431.2341     -5175.6127      1420.9659      57275.589      91.546923    
     25050   1292.3024     -5431.0576     -5174.6463      1454.1301      57272.047      91.632651    
     25060   1299.5872     -5431.6436     -5173.7868      1529.321       57267.331      91.714145    
     25070   1288.3536     -5428.6655     -5173.0377      1785.1292      57261.354      91.782263    
     25080   1281.5693     -5426.6763     -5172.3946      2011.4294      57254.381      91.838834    
     25090   1281.6512     -5426.1196     -5171.8217      2198.5941      57246.796      91.899309    
     25100   1280.5172     -5425.3759     -5171.3029      2234.782       57238.756      91.9618      
     25110   1294.128      -5427.6343     -5170.8607      1908.2509      57230.114      92.022926    
     25120   1282.9823     -5425.0587     -5170.4966      1769.5093      57220.549      92.085516    
     25130   1268.4056     -5421.8719     -5170.2021      1772.7507      57209.779      92.145674    
     25140   1262.6831     -5420.4661     -5169.9317      1878.7316      57197.536      92.202811    
     25150   1261.3428     -5419.9193     -5169.6508      1959.1571      57183.559      92.242369    
     25160   1266.9402     -5420.7407     -5169.3616      2041.3754      57167.698      92.247521    
     25170   1265.4672     -5420.165      -5169.0782      2348.0408      57150.14       92.233018    
     25180   1272.6786     -5421.308      -5168.7903      2495.2653      57131.283      92.206446    
     25190   1262.6915     -5419.021      -5168.4849      2705.5001      57111.6        92.16773     
     25200   1260.6455     -5418.3076     -5168.1775      2856.5856      57091.718      92.123226    
     25210   1278.7542     -5421.5753     -5167.8522      2688.0204      57072.012      92.079202    
     25220   1301.49       -5425.7915     -5167.5573      2454.2871      57052.677      92.040987    
     25230   1325.6312     -5430.4146     -5167.3903      2330.4746      57033.852      92.006481    
     25240   1337.4004     -5432.7935     -5167.4341      2266.9195      57015.411      91.957413    
     25250   1346.2071     -5434.897      -5167.7902      2159.3215      56996.914      91.898065    
     25260   1336.7727     -5433.6987     -5168.4639      2143.7858      56977.973      91.842102    
     25270   1346.6468     -5436.7229     -5169.5289      1951.0895      56958.397      91.798361    
     25280   1338.0408     -5436.5215     -5171.035       1820.0399      56938.025      91.770852    
     25290   1323.3674     -5435.5485     -5172.9734      1780.5379      56916.806      91.751945    
     25300   1312.1068     -5435.5422     -5175.2014      1947.1476      56894.819      91.731244    
     25310   1297.7925     -5434.9731     -5177.4725      2131.4929      56872.357      91.717102    
     25320   1291.5874     -5435.7708     -5179.5013      2162.6123      56849.662      91.712482    
     25330   1281.9971     -5435.4679     -5181.1013      2063.0178      56826.649      91.713878    
     25340   1270.4485     -5434.3455     -5182.2703      1866.5975      56803.051      91.729621    
     25350   1262.9812     -5433.6841     -5183.0905      1574.8137      56778.715      91.761737    
     25360   1264.9126     -5434.675      -5183.6983      1312.8466      56753.583      91.795878    
     25370   1268.3795     -5435.8546     -5184.19        1219.6538      56727.618      91.819748    
     25380   1264.7502     -5435.5737     -5184.6292      1290.0437      56700.855      91.833638    
     25390   1257.7973     -5434.6062     -5185.0412      1443.0723      56673.5        91.831367    
     25400   1256.0919     -5434.6527     -5185.4261      1564.0519      56645.813      91.812568    
     25410   1254.0409     -5434.5967     -5185.777       1805.2407      56617.874      91.798804    
     25420   1237.6076     -5431.663      -5186.1039      2174.0836      56589.88       91.804985    
     25430   1227.1349     -5429.826      -5186.3449      2449.723       56562.372      91.828625    
     25440   1235.5194     -5431.623      -5186.4783      2466.8908      56535.884      91.879496    
     25450   1259.0402     -5436.3765     -5186.5649      2362.5794      56510.572      91.95808     
     25460   1265.4084     -5437.734      -5186.6589      2346.1246      56486.277      92.033641    
     25470   1270.2176     -5438.8312     -5186.8018      2307.1497      56462.739      92.078907    
     25480   1261.9425     -5437.3883     -5187.0008      2317.1063      56439.709      92.0867      
     25490   1264.0915     -5438.0574     -5187.2435      2316.3885      56417.132      92.054851    
     25500   1260.0543     -5437.5315     -5187.5187      2351.3733      56395.058      92.003825    
     25510   1246.152      -5435.0837     -5187.8293      2441.778       56373.64       91.966113    
     25520   1241.0167     -5434.3575     -5188.1221      2477.7869      56353.101      91.959516    
     25530   1255.5106     -5437.5029     -5188.3916      2381.3045      56333.465      91.977321    
     25540   1261.0219     -5438.8975     -5188.6927      2337.2511      56314.625      92.003835    
     25550   1242.5121     -5435.5466     -5189.0144      2555.1639      56296.661      92.030278    
     25560   1229.0694     -5433.1915     -5189.3265      2737.1354      56279.748      92.067626    
     25570   1230.9896     -5433.8313     -5189.5853      2796.1875      56263.734      92.11408     
     25580   1241.5373     -5436.1348     -5189.796       2761.7275      56248.562      92.162095    
     25590   1245.7847     -5437.1689     -5189.9874      2706.0052      56234.23       92.218346    
     25600   1245.6557     -5437.3246     -5190.1686      2737.8836      56220.636      92.281434    
     25610   1242.4669     -5436.8774     -5190.3542      2674.2524      56207.715      92.335377    
     25620   1237.029      -5435.978      -5190.5338      2590.9064      56195.436      92.375702    
     25630   1228.8857     -5434.5015     -5190.6729      2577.9469      56183.679      92.40952     
     25640   1243.388      -5437.4919     -5190.786       2405.44        56172.161      92.438934    
     25650   1249.9631     -5438.8898     -5190.8792      2321.6271      56160.446      92.460972    
     25660   1238.1738     -5436.6573     -5190.9859      2479.9788      56148.294      92.487646    
     25670   1242.9591     -5437.7007     -5191.0798      2472.6791      56135.687      92.535024    
     25680   1255.3054     -5440.2554     -5191.1848      2487.8857      56122.491      92.607178    
     25690   1249.0842     -5439.1597     -5191.3235      2584.3133      56108.491      92.696755    
     25700   1252.3626     -5439.9862     -5191.4995      2661.514       56093.712      92.793172    
     25710   1261.9195     -5442.1066     -5191.7237      2732.0189      56078.254      92.877485    
     25720   1258.9739     -5441.818      -5192.0195      2986.9442      56062.186      92.923685    
     25730   1250.6145     -5440.5267     -5192.3869      3206.0616      56045.884      92.944829    
     25740   1264.3136     -5443.6985     -5192.8406      3130.7433      56029.859      92.980997    
     25750   1249.2517     -5441.2394     -5193.37        3177.6969      56014.337      93.031901    
     25760   1246.4496     -5441.3071     -5193.9937      3146.4586      55999.254      93.07502     
     25770   1251.3546     -5442.9558     -5194.6691      3057.0032      55984.525      93.115188    
     25780   1258.3035     -5445.1084     -5195.443       2899.0461      55970.17       93.168521    
     25790   1255.0866     -5445.3398     -5196.3127      2745.276       55956.058      93.244374    
     25800   1262.4797     -5447.7949     -5197.3009      2555.5956      55942.012      93.337846    
     25810   1246.2315     -5445.6533     -5198.3831      2586.9992      55927.925      93.431341    
     25820   1219.996      -5441.5386     -5199.4739      2688.2846      55913.751      93.491348    
     25830   1213.4996     -5441.2679     -5200.4922      2602.0856      55899.406      93.497056    
     25840   1214.5322     -5442.3882     -5201.4076      2517.8661      55884.871      93.458538    
     25850   1209.6778     -5442.223      -5202.2056      2597.3634      55870.31       93.407096    
     25860   1208.5973     -5442.6782     -5202.8752      2742.604       55856.137      93.384628    
     25870   1232.3582     -5447.9659     -5203.4484      2653.1654      55842.54       93.405392    
     25880   1239.8663     -5449.9944     -5203.9872      2722.9976      55829.341      93.453248    
     25890   1225.758      -5447.7037     -5204.4958      2917.9313      55816.676      93.521853    
     25900   1237.2825     -5450.4675     -5204.973       2807.91        55804.797      93.618641    
     25910   1235.4364     -5450.5741     -5205.4458      2733.2422      55793.51       93.725612    
     25920   1212.6924     -5446.5099     -5205.8944      2693.992       55782.457      93.801792    
     25930   1204.0533     -5445.1538     -5206.2524      2674.3329      55771.424      93.834767    
     25940   1213.4538     -5447.2822     -5206.5156      2502.8696      55760.235      93.85244     
     25950   1215.3643     -5447.8608     -5206.7151      2452.0212      55748.523      93.876772    
     25960   1202.362      -5445.4039     -5206.8381      2464.3112      55735.889      93.908678    
     25970   1216.8774     -5448.3285     -5206.8826      2315.8405      55722.19       93.944441    
     25980   1228.2595     -5450.5763     -5206.872       2346.5832      55707.444      93.981397    
     25990   1220.3186     -5448.98       -5206.8513      2726.3772      55691.909      94.015825    
     26000   1191.6019     -5443.1964     -5206.7655      3242.8915      55676.109      94.059959    
     26010   1182.8671     -5441.2654     -5206.5676      3488.1221      55660.481      94.12674     
     26020   1190.096      -5442.3285     -5206.1964      3521.5755      55645.21       94.192967    
     26030   1207.951      -5445.3153     -5205.6405      3309.9759      55630.287      94.234202    
     26040   1237.5316     -5450.5038     -5204.9598      2980.999       55615.485      94.242985    
     26050   1253.2498     -5452.8757     -5204.213       2908.0787      55600.517      94.216854    
     26060   1249.1477     -5451.2963     -5203.4475      2941.0009      55585.426      94.161245    
     26070   1246.1129     -5449.9006     -5202.654       2995.2388      55570.564      94.092544    
     26080   1251.7051     -5450.1566     -5201.8004      3058.8574      55556.41       94.031676    
     26090   1248.3698     -5448.572      -5200.8776      3297.6301      55543.223      93.982324    
     26100   1248.7724     -5447.6415     -5199.8671      3554.3749      55531.051      93.933758    
     26110   1250.5588     -5446.89       -5198.7612      3775.7269      55519.966      93.892109    
     26120   1246.9921     -5444.9696     -5197.5485      3934.2033      55510.002      93.871025    
     26130   1251.0335     -5444.4525     -5196.2296      3986.0363      55501.376      93.865784    
     26140   1260.0085     -5444.829      -5194.8252      3895.1722      55494.299      93.87718     
     26150   1286.8595     -5448.754      -5193.4227      3504.0989      55488.781      93.900502    
     26160   1294.4965     -5448.9763     -5192.1297      3261.3801      55484.669      93.925668    
     26170   1308.1624     -5450.625      -5191.0668      3132.896       55481.837      93.952795    
     26180   1309.8978     -5450.1943     -5190.2918      3361.4024      55480.331      93.983993    
     26190   1299.4645     -5447.6719     -5189.8395      3708.6755      55480.343      94.024206    
     26200   1287.1773     -5445.0714     -5189.677       3974.6489      55481.956      94.083658    
     26210   1262.27       -5440.1986     -5189.7462      4224.493       55485.1        94.154137    
     26220   1256.6205     -5439.3175     -5189.986       4204.6174      55489.729      94.22799     
     26230   1265.3717     -5441.4525     -5190.3846      4039.0421      55495.754      94.305036    
     26240   1285.2905     -5446.0166     -5190.9965      3676.6245      55502.949      94.386656    
     26250   1292.8509     -5448.4446     -5191.9244      3519.3857      55510.963      94.482938    
     26260   1286.818      -5448.5248     -5193.2016      3540.4355      55519.663      94.596269    
     26270   1276.6168     -5448.1135     -5194.8145      3467.3225      55529.082      94.710301    
     26280   1270.8971     -5448.8196     -5196.6554      3157.856       55539.044      94.816092    
     26290   1279.5684     -5452.5081     -5198.6234      2751.7209      55549.082      94.916562    
     26300   1268.3273     -5452.1708     -5200.5165      2643.8565      55558.68       95.019527    
     26310   1260.1857     -5452.2147     -5202.1758      2817.9875      55567.624      95.133198    
     26320   1254.9877     -5452.5293     -5203.5218      2867.5058      55576.234      95.250283    
     26330   1260.6873     -5454.7526     -5204.6142      2691.0237      55584.842      95.36731     
     26340   1243.9221     -5452.3341     -5205.5221      2535.584       55593.343      95.501749    
     26350   1242.3577     -5452.8058     -5206.3042      2273.7043      55601.473      95.637473    
     26360   1230.7002     -5451.2131     -5207.0246      2209.8838      55609.167      95.768337    
     26370   1210.8668     -5447.937      -5207.6837      2254.498       55616.586      95.904766    
     26380   1198.5274     -5446.0558     -5208.2508      2509.6554      55623.831      96.052735    
     26390   1198.3025     -5446.4945     -5208.7341      2732.508       55630.962      96.213389    
     26400   1197.0676     -5446.6406     -5209.1253      2973.0416      55638.098      96.375666    
     26410   1224.5285     -5452.4473     -5209.4833      2872.5516      55645.45       96.52505     
     26420   1244.7113     -5456.848      -5209.8795      2729.3333      55652.909      96.657839    
     26430   1237.2499     -5455.8618     -5210.3737      2841.3454      55660.128      96.779322    
     26440   1216.328      -5452.296      -5210.9591      3124.8551      55667.051      96.897998    
     26450   1192.2243     -5448.0952     -5211.5408      3439.1402      55674.1        97.018452    
     26460   1187.2489     -5447.6404     -5212.0732      3458.6559      55681.707      97.151799    
     26470   1185.9613     -5447.8403     -5212.5286      3294.519       55689.809      97.304781    
     26480   1191.5134     -5449.3176     -5212.9043      2995.952       55698.23       97.464183    
     26490   1212.076      -5453.7389     -5213.2457      2662.4518      55706.779      97.617614    
     26500   1212.184      -5454.1102     -5213.5956      2728.6309      55715.358      97.766893    
     26510   1203.1602     -5452.6838     -5213.9596      2893.4469      55724.042      97.907865    
     26520   1213.432      -5455.0975     -5214.3353      2784.3904      55733.001      98.035744    
     26530   1214.7312     -5455.7534     -5214.7333      2600.1347      55742.177      98.161336    
     26540   1219.3344     -5457.1058     -5215.1724      2270.4372      55751.259      98.295511    
     26550   1212.9361     -5456.3265     -5215.6626      2019.0873      55759.722      98.428582    
     26560   1208.4767     -5455.9709     -5216.1919      1780.9613      55767.063      98.548088    
     26570   1202.6556     -5455.3645     -5216.7404      1647.2552      55772.988      98.6635      
     26580   1195.5099     -5454.5043     -5217.298       1667.7117      55777.519      98.786582    
     26590   1179.1945     -5451.7899     -5217.8208      2001.1608      55780.804      98.905706    
     26600   1176.5096     -5451.717      -5218.2807      2330.5359      55783.174      99.013516    
     26610   1176.3787     -5452.0723     -5218.6619      2500.4789      55785.002      99.121408    
     26620   1172.301      -5451.5581     -5218.9568      2642.8836      55786.734      99.235562    
     26630   1175.3202     -5452.37       -5219.1696      2467.1615      55788.736      99.343209    
     26640   1181.8547     -5453.7968     -5219.2998      2351.5877      55790.813      99.42663     
     26650   1185.6127     -5454.6021     -5219.3595      2408.5381      55792.778      99.491298    
     26660   1201.5576     -5457.7833     -5219.3771      2403.3652      55794.564      99.556475    
     26670   1215.0428     -5460.4849     -5219.403       2390.0589      55796.249      99.630353    
     26680   1219.1995     -5461.3912     -5219.4846      2341.1674      55797.837      99.698849    
     26690   1196.0805     -5456.9396     -5219.6201      2321.0571      55799.391      99.754485    
     26700   1175.521      -5453.0002     -5219.76        2412.7287      55801.053      99.808671    
     26710   1166.2957     -5451.2443     -5219.8345      2538.5495      55802.86       99.855141    
     26720   1164.2529     -5450.8085     -5219.804       2658.6312      55804.737      99.894945    
     26730   1168.8512     -5451.5739     -5219.657       2549.6477      55806.599      99.952069    
     26740   1189.6753     -5455.4572     -5219.4085      2324.9808      55808.347      100.02844    
     26750   1205.9948     -5458.3733     -5219.0867      2130.9045      55809.908      100.10783    
     26760   1216.6054     -5460.1458     -5218.7538      1971.4935      55811.273      100.1802     
     26770   1200.0234     -5456.5477     -5218.4459      2101.4551      55812.165      100.23917    
     26780   1186.7858     -5453.6107     -5218.1354      2182.0274      55812.441      100.28904    
     26790   1178.3275     -5451.5563     -5217.7592      2179.8207      55812.087      100.35319    
     26800   1182.8349     -5451.9763     -5217.2849      2359.0128      55811.104      100.43251    
     26810   1191.5774     -5453.1427     -5216.7167      2660.9729      55809.592      100.51242    
     26820   1206.1415     -5455.3883     -5216.0726      2901.1873      55807.584      100.58625    
     26830   1216.4801     -5456.762      -5215.3949      3049.3842      55805.244      100.64486    
     26840   1209.9523     -5454.8016     -5214.7298      3055.6202      55802.87       100.68281    
     26850   1224.2139     -5456.9879     -5214.0863      2790.5021      55800.534      100.70365    
     26860   1229.3203     -5457.3995     -5213.4848      2508.9007      55798.006      100.72644    
     26870   1244.6361     -5459.9392     -5212.9856      2225.8474      55794.984      100.7704     
     26880   1246.6054     -5459.9722     -5212.6278      2201.0997      55791.326      100.83854    
     26890   1237.4306     -5457.976      -5212.452       2476.5579      55787.135      100.92945    
     26900   1221.6998     -5454.8434     -5212.4406      2964.3387      55782.813      101.05586    
     26910   1198.5548     -5450.3448     -5212.5344      3314.1489      55778.768      101.20435    
     26920   1212.08       -5453.198      -5212.704       3300.8287      55775.068      101.34904    
     26930   1221.2642     -5455.2975     -5212.9812      3162.1387      55771.515      101.49942    
     26940   1222.8138     -5456.0197     -5213.3959      3079.2301      55767.978      101.67252    
     26950   1245.3967     -5461.1327     -5214.0282      2762.46        55764.316      101.83902    
     26960   1246.9989     -5462.3705     -5214.948       2622.3041      55760.279      101.96653    
     26970   1217.3065     -5457.7028     -5216.1717      2753.2366      55755.794      102.0624     
     26980   1192.6369     -5454.178      -5217.5417      2906.3834      55750.845      102.1317     
     26990   1182.1004     -5453.4957     -5218.9501      2940.0164      55745.348      102.18531    
     27000   1163.7044     -5451.1853     -5220.2897      3130.4487      55739.45       102.24037    
     27010   1158.4652     -5451.3237     -5221.4676      3069.71        55733.6        102.30968    
     27020   1166.4246     -5453.918      -5222.4826      2758.0544      55727.963      102.39245    
     27030   1154.8917     -5452.4634     -5223.3163      2659.9024      55722.334      102.46699    
     27040   1147.0847     -5451.576      -5223.978       2724.9753      55716.378      102.50847    
     27050   1118.3495     -5446.3217     -5224.4251      2941.0523      55709.81       102.52208    
     27060   1116.3405     -5446.1371     -5224.6391      2904.9948      55702.44       102.52157    
     27070   1124.0878     -5447.6741     -5224.639       2800.9911      55693.878      102.51806    
     27080   1111.8339     -5445.0527     -5224.449       2958.8351      55683.797      102.51888    
     27090   1110.6486     -5444.4309     -5224.0623      3141.8222      55672.289      102.53075    
     27100   1139.7817     -5449.6417     -5223.4927      2977.7684      55659.81       102.56552    
     27110   1159.386      -5452.8431     -5222.8043      2733.9948      55646.716      102.61084    
     27120   1167.8558     -5453.8066     -5222.0873      2537.3667      55633.069      102.65525    
     27130   1188.3814     -5457.1908     -5221.3989      2304.2306      55618.682      102.7064     
     27140   1198.0535     -5458.4872     -5220.7762      2290.2276      55603.404      102.76185    
     27150   1190.9219     -5456.5598     -5220.2638      2559.2478      55587.296      102.79689    
     27160   1190.9761     -5456.1592     -5219.8525      2898.0109      55570.616      102.78805    
     27170   1189.4186     -5455.4967     -5219.499       3151.5555      55553.603      102.74537    
     27180   1197.6884     -5456.8649     -5219.2263      3231.2403      55536.366      102.69248    
     27190   1189.1265     -5454.9716     -5219.0318      3227.6793      55519.043      102.63751    
     27200   1194.7244     -5455.9541     -5218.9037      2917.1148      55501.66       102.59023    
     27210   1198.914      -5456.7268     -5218.8451      2522.5162      55483.854      102.56318    
     27220   1187.0661     -5454.3922     -5218.8613      2430.5427      55465.244      102.55454    
     27230   1189.6927     -5454.9877     -5218.9356      2529.9396      55445.852      102.54347    
     27240   1191.9741     -5455.5549     -5219.0502      2685.7334      55425.938      102.5154     
     27250   1196.2758     -5456.5854     -5219.2272      2823.3192      55405.795      102.47165    
     27260   1200.6845     -5457.7145     -5219.4815      2840.7975      55385.614      102.41565    
     27270   1200.6107     -5458.0364     -5219.818       2855.0508      55365.504      102.34365    
     27280   1202.4389     -5458.8428     -5220.2617      2941.8779      55345.636      102.25629    
     27290   1191.6825     -5457.2472     -5220.8003      3114.2689      55326.391      102.17395    
     27300   1196.5625     -5458.8358     -5221.4207      3094.5933      55308.082      102.12568    
     27310   1201.6317     -5460.564      -5222.143       3121.41        55290.574      102.13286    
     27320   1187.3773     -5458.5498     -5222.9571      3381.6311      55273.688      102.18514    
     27330   1188.7331     -5459.7147     -5223.853       3515.5954      55257.562      102.23739    
     27340   1198.0568     -5462.5206     -5224.809       3426.2093      55242.197      102.27122    
     27350   1193.9798     -5462.7294     -5225.8267      3366.8199      55227.151      102.28286    
     27360   1190.2318     -5463.0319     -5226.8728      3132.3369      55212.106      102.27925    
     27370   1186.095      -5463.2545     -5227.9163      2965.6959      55196.914      102.27504    
     27380   1171.2621     -5461.277      -5228.8818      2888.1008      55181.552      102.27303    
     27390   1162.3214     -5460.3296     -5229.7084      2988.5349      55165.964      102.27124    
     27400   1151.339      -5458.801      -5230.3589      3166.0889      55150.212      102.26313    
     27410   1152.0238     -5459.4067     -5230.8287      3283.7141      55134.524      102.25564    
     27420   1160.4871     -5461.4147     -5231.1574      3312.7819      55119.185      102.25912    
     27430   1169.7048     -5463.4816     -5231.3954      3402.1813      55104.406      102.26569    
     27440   1184.4549     -5466.6079     -5231.5951      3350.5235      55090.404      102.26748    
     27450   1207.3909     -5471.3969     -5231.8332      3195.1715      55077.35       102.2723     
     27460   1206.3905     -5471.532      -5232.1668      3263.5905      55065.256      102.28081    
     27470   1180.8039     -5466.8606     -5232.5722      3415.3295      55054.159      102.27147    
     27480   1175.2898     -5466.1798     -5232.9855      3335.9169      55044.068      102.23278    
     27490   1191.3302     -5469.7822     -5233.4053      3174.0144      55034.766      102.1806     
     27500   1194.9204     -5470.9768     -5233.8875      3098.9779      55025.977      102.14628    
     27510   1199.7959     -5472.498      -5234.4414      3137.8654      55017.748      102.15112    
     27520   1201.5188     -5473.5        -5235.1015      3137.4233      55010.409      102.18998    
     27530   1182.8111     -5470.5337     -5235.847       3208.6434      55004.078      102.24803    
     27540   1158.2131     -5466.405      -5236.599       3233.2883      54998.834      102.32693    
     27550   1152.2767     -5465.9293     -5237.3011      2987.0553      54994.783      102.417      
     27560   1156.1457     -5467.3575     -5237.9617      2690.2993      54991.735      102.51456    
     27570   1141.4036     -5465.0211     -5238.5503      2704.6195      54989.342      102.61174    
     27580   1147.9744     -5466.8379     -5239.0633      2543.0653      54987.454      102.68772    
     27590   1153.5652     -5468.41       -5239.5262      2445.9507      54985.981      102.74135    
     27600   1156.8777     -5469.4966     -5239.9555      2416.5016      54984.96       102.80192    
     27610   1154.8671     -5469.5112     -5240.3691      2447.3613      54984.392      102.88326    
     27620   1140.3726     -5467.021      -5240.7547      2507.2089      54984.181      102.97548    
     27630   1135.4599     -5466.382      -5241.0905      2562.8649      54984.088      103.0781     
     27640   1104.3607     -5460.4406     -5241.3196      2790.7068      54983.95       103.1783     
     27650   1101.0837     -5459.8667     -5241.3959      2725.7328      54983.972      103.27064    
     27660   1131.5703     -5465.8235     -5241.3037      2336.9869      54984.23       103.34797    
     27670   1161.4306     -5471.5631     -5241.1186      2108.8072      54984.375      103.39683    
[...]
     48200   1040.4229     -5432.3826     -5225.9478     -73.91409       64441.188      297.10564    
     48210   1055.7634     -5435.3628     -5225.8842     -256.02704      64426.966      297.12116    
     48220   1068.1798     -5437.7754     -5225.8332     -352.28089      64411.309      297.11391    
     48230   1072.1496     -5438.5796     -5225.8498     -415.7907       64393.622      297.07593    
     48240   1068.5674     -5437.9958     -5225.9768     -378.57773      64373.611      297.0141     
     48250   1053.1087     -5435.1669     -5226.215      -259.98238      64351.465      296.95032    
     48260   1050.0399     -5434.8962     -5226.5533     -194.42519      64327.739      296.9059     
     48270   1051.1219     -5435.5591     -5227.0014     -224.68915      64302.725      296.88324    
     48280   1041.2362     -5434.1572     -5227.5611     -216.20835      64276.367      296.85737    
     48290   1026.3082     -5431.8435     -5228.2093     -219.79661      64248.647      296.8148     
     48300   1017.2923     -5430.7072     -5228.8618     -261.45452      64219.542      296.77942    
     48310   1031.4154     -5434.1587     -5229.5111     -356.12951      64188.807      296.74828    
     48320   1029.5939     -5434.4326     -5230.1464     -256.503        64156.006      296.70501    
     48330   1022.9554     -5433.7101     -5230.7411     -76.950058      64121.647      296.65299    
     48340   1031.5976     -5435.9612     -5231.2774      26.805368      64086.618      296.59568    
     48350   1027.2769     -5435.5836     -5231.7572      211.47671      64051.587      296.52243    
     48360   1019.9452     -5434.5289     -5232.1572      358.26102      64017.512      296.42844    
     48370   1020.3929     -5434.9259     -5232.4653      435.92977      63985.219      296.31627    
     48380   1012.1998     -5433.4885     -5232.6536      558.44065      63955.188      296.19369    
     48390   1019.8817     -5435.0782     -5232.7191      549.25489      63927.962      296.07329    
     48400   1021.8409     -5435.4133     -5232.6655      581.27695      63903.649      295.96715    
     48410   1018.1845     -5434.5176     -5232.4952      634.56181      63882.431      295.87643    
     48420   1024.9102     -5435.5591     -5232.2022      486.63921      63864.456      295.81087    
     48430   1034.43       -5437.0378     -5231.7921      273.59987      63849.025      295.77881    
     48440   1040.5037     -5437.7457     -5231.2949      55.550789      63834.989      295.7639     
     48450   1049.8656     -5439.0483     -5230.74       -162.28898      63821.157      295.74209    
     48460   1054.7821     -5439.4376     -5230.1537     -274.99188      63806.378      295.71472    
     48470   1052.7623     -5438.45       -5229.5668     -179.30858      63790.106      295.70649    
     48480   1050.7302     -5437.4604     -5228.9805     -64.573531      63772.737      295.73556    
     48490   1040.5119     -5434.8223     -5228.3698      43.535911      63754.899      295.7863     
     48500   1036.3692     -5433.3424     -5227.7119      44.623428      63737.117      295.84857    
     48510   1041.512      -5433.6438     -5226.9929     -109.12384      63719.324      295.91147    
     48520   1035.2756     -5431.6289     -5226.2154     -161.87087      63700.829      295.97184    
     48530   1032.6876     -5430.2765     -5225.3765     -165.15996      63681.325      296.02406    
     48540   1039.3241     -5430.6965     -5224.4798     -85.896747      63660.79       296.05846    
     48550   1040.7825     -5430.0396     -5223.5334      199.15896      63639.732      296.08787    
     48560   1049.1411     -5430.7379     -5222.5733      375.19542      63619.514      296.12416    
     48570   1061.5994     -5432.2698     -5221.6332      434.66133      63601.14       296.1634     
     48580   1078.907      -5434.849      -5220.7784      345.78516      63584.909      296.20968    
     48590   1090.1487     -5436.3768     -5220.0757      367.70923      63570.503      296.27366    
     48600   1088.3743     -5435.5042     -5219.5551      517.44932      63558.048      296.36947    
     48610   1087.1497     -5434.9329     -5219.2268      738.44971      63548.343      296.50639    
     48620   1088.2479     -5434.9852     -5219.0613      884.83412      63542.534      296.68793    
     48630   1091.8293     -5435.7012     -5219.0666      924.06224      63541.435      296.90621    
     48640   1085.6971     -5434.6501     -5219.2323      1000.4665      63545.426      297.12648    
     48650   1088.6618     -5435.5627     -5219.5567      895.99614      63554.787      297.3111     
     48660   1081.4315     -5434.5981     -5220.0267      862.66235      63569.221      297.47198    
     48670   1075.2446     -5433.9661     -5220.6221      813.46615      63588.56       297.63568    
     48680   1071.853      -5433.984      -5221.313       690.28521      63612.558      297.83785    
     48690   1070.2508     -5434.4388     -5222.0858      525.11006      63640.628      298.09904    
     48700   1074.2321     -5436.0681     -5222.9251      188.77313      63671.816      298.39126    
     48710   1068.034      -5435.7385     -5223.8253     -61.348009      63704.498      298.66957    
     48720   1056.4841     -5434.3693     -5224.7477     -237.57067      63737.277      298.91768    
     48730   1041.815      -5432.3427     -5225.6316     -262.22756      63769.221      299.14533    
     48740   1034.9685     -5431.7662     -5226.4137     -223.13607      63800.127      299.35914    
     48750   1044.1486     -5434.2598     -5227.0857     -183.97729      63830.202      299.55448    
     48760   1044.2541     -5434.8589     -5227.6639     -27.619489      63859.751      299.73627    
     48770   1043.6907     -5435.2357     -5228.1525      82.422662      63889.527      299.91958    
     48780   1046.4062     -5436.1901     -5228.5681      85.652105      63920.035      300.11645    
     48790   1034.7073     -5434.2092     -5228.9085      163.76706      63951.423      300.33696    
     48800   1021.6675     -5431.8549     -5229.1414      236.2565       63984.105      300.57958    
     48810   1025.033      -5432.6375     -5229.2562      228.07526      64018.439      300.82796    
     48820   1025.7295     -5432.7773     -5229.2579      296.57277      64054.512      301.06411    
     48830   1027.1962     -5432.9788     -5229.1683      311.79926      64092.643      301.28683    
     48840   1030.1664     -5433.4098     -5229.01        225.21777      64132.938      301.51892    
     48850   1032.4837     -5433.6621     -5228.8026      17.053931      64174.902      301.78581    
     48860   1021.5698     -5431.2323     -5228.5382     -171.51334      64217.502      302.0905     
     48870   1024.2172     -5431.4348     -5228.2154     -471.89254      64259.6        302.39507    
     48880   1025.3867     -5431.2755     -5227.8241     -751.51224      64299.584      302.67505    
     48890   1030.7192     -5431.8955     -5227.3861     -950.32175      64335.881      302.92193    
     48900   1044.6725     -5434.2019     -5226.9239     -1101.8801      64367.315      303.13641    
     48910   1052.2526     -5435.2654     -5226.4834     -1099.7459      64392.982      303.31533    
     48920   1049.8977     -5434.407      -5226.0922     -876.76641      64412.895      303.45052    
     48930   1051.202      -5434.3224     -5225.7489     -671.51887      64428.107      303.54204    
     48940   1036.5965     -5431.1052     -5225.4296     -365.59265      64439.825      303.60696    
     48950   1024.5958     -5428.3843     -5225.0898     -144.76113      64449.624      303.66066    
     48960   1034.6562     -5429.9875     -5224.6969     -94.807698      64458.685      303.7121     
     48970   1039.0219     -5430.4142     -5224.2574     -83.849016      64467.361      303.78088    
     48980   1046.1409     -5431.3843     -5223.8149     -82.781606      64475.693      303.85823    
     48990   1037.2422     -5429.1724     -5223.3686      75.358578      64483.754      303.92699    
     49000   1036.8813     -5428.6421     -5222.91        212.06397      64492.317      303.98877    
     49010   1052.1574     -5431.1986     -5222.4355      206.67015      64502.121      304.05652    
     49020   1069.8269     -5434.2601     -5221.9912      113.95025      64513.178      304.13047    
     49030   1070.5981     -5434.0503     -5221.6283      94.593132      64525.093      304.20537    
     49040   1066.9387     -5433.0637     -5221.3678      96.894501      64537.745      304.29903    
     49050   1055.3297     -5430.575      -5221.1824      48.688831      64551.106      304.42577    
     49060   1040.9742     -5427.5698     -5221.0256      8.2115915      64564.979      304.57994    
     49070   1034.2112     -5426.0482     -5220.8459     -80.487157      64579.057      304.73761    
     49080   1027.6424     -5424.501      -5220.602      -131.70188      64592.897      304.87973    
     49090   1035.023      -5425.6465     -5220.2831     -372.68676      64606.067      305.0118     
     49100   1054.0767     -5429.0522     -5219.9083     -692.97644      64617.276      305.13592    
     49110   1061.1497     -5430.0868     -5219.5395     -814.4283       64624.832      305.23788    
     49120   1058.8927     -5429.3108     -5219.2113     -778.09194      64627.947      305.29844    
     49130   1055.2295     -5428.2898     -5218.9171     -753.85245      64626.699      305.29879    
     49140   1056.6584     -5428.2935     -5218.6373     -826.71881      64621.109      305.2576     
     49150   1054.5444     -5427.6079     -5218.3712     -846.28905      64610.806      305.21583    
     49160   1059.7704     -5428.3883     -5218.1147     -936.00919      64595.526      305.19955    
     49170   1060.41       -5428.2839     -5217.8834     -934.06289      64574.801      305.21852    
     49180   1050.5661     -5426.1152     -5217.6679     -817.97215      64548.55       305.25449    
     49190   1047.5064     -5425.2836     -5217.4433     -639.05523      64517.369      305.28392    
     49200   1043.3565     -5424.1798     -5217.1629     -353.82175      64482.251      305.29629    
     49210   1043.4144     -5423.8228     -5216.7944     -75.138384      64444.623      305.30826    
     49220   1049.7033     -5424.5815     -5216.3054      195.33869      64406.022      305.35177    
     49230   1053.1361     -5424.6233     -5215.666       413.20367      64367.96       305.4406     
     49240   1067.5009     -5426.6799     -5214.8725      374.13524      64331.523      305.55594    
     49250   1072.9549     -5426.811      -5213.9214      289.20187      64296.638      305.67667    
     49260   1078.0142     -5426.7433     -5212.8498      328.0002       64262.94       305.80362    
     49270   1075.4202     -5425.0529     -5211.6741      506.95642      64230.655      305.94389    
     49280   1077.8499     -5424.2966     -5210.4358      608.94738      64200.693      306.09587    
     49290   1089.4975     -5425.363      -5209.1911      488.32658      64173.595      306.26144    
     49300   1095.7016     -5425.4257     -5208.0228      473.08198      64148.92       306.44411    
     49310   1095.2684     -5424.3153     -5206.9984      608.69123      64126.59       306.64461    
     49320   1109.2586     -5426.2471     -5206.1543      663.74253      64107.251      306.86371    
     49330   1124.3895     -5428.6377     -5205.5427      652.14997      64091.271      307.08214    
     49340   1127.0889     -5428.8622     -5205.2316      610.26619      64078.651      307.29769    
     49350   1129.1158     -5429.2881     -5205.2553      557.49887      64069.264      307.53402    
     49360   1123.6118     -5428.5531     -5205.6124      495.90042      64062.861      307.78879    
     49370   1105.0803     -5425.5443     -5206.2805      504.5022       64059.183      308.03515    
     49380   1096.4497     -5424.7456     -5207.1943      405.8932       64058.206      308.25045    
     49390   1089.106      -5424.4032     -5CHGNet v0.3.0 initialized with 412,525 parameters
CHGNet will run on cuda:0
CHGNet will run on cuda:0
208.309       288.98091      64059.445      308.4311     
     49400   1073.0186     -5422.4561     -5209.5538      359.19071      64062.405      308.58393    
     49410   1057.3404     -5420.6235     -5210.8321      529.16811      64067.48       308.7301     
     49420   1042.5904     -5418.8914     -5212.0265      725.81109      64075.649      308.90149    
     49430   1059.6746     -5423.3723     -5213.1177      651.15555      64087.823      309.11262    
     49440   1068.8734     -5426.2097     -5214.1299      497.29048      64103.752      309.35875    
     49450   1070.0108     -5427.3922     -5215.0867      330.50104      64122.687      309.64216    
     49460   1074.4504     -5429.1848     -5215.9985      61.362133      64143.699      309.96231    
     49470   1074.4754     -5430.0582     -5216.8669     -201.47372      64165.363      310.28026    
     49480   1073.7428     -5430.7478     -5217.7019     -356.42677      64186.278      310.56722    
     49490   1062.6344     -5429.3313     -5218.4894     -357.37903      64205.609      310.82771    
     49500   1056.2754     -5428.7915     -5219.2113     -317.06022      64223.261      311.0802     
     49510   1048.3882     -5427.869      -5219.8538     -185.0203       64239.439      311.32757    
     49520   1036.5634     -5426.0687     -5220.3997      57.195985      64254.882      311.5644     
     49530   1039.2401     -5427.0458     -5220.8457      200.13054      64270.807      311.79519    
     49540   1046.8525     -5428.9285     -5221.2179      190.07817      64287.976      312.04137    
     49550   1048.0785     -5429.5038     -5221.55        130.3755       64306.396      312.31297    
     49560   1036.6055     -5427.5164     -5221.839       186.56506      64325.9        312.59904    
     49570   1037.8997     -5428.0009     -5222.0667      51.157939      64346.639      312.89388    
     49580   1043.7249     -5429.3298     -5222.2399     -193.03474      64367.914      313.18306    
     49590   1035.5688     -5427.8467     -5222.375      -258.18528      64388.485      313.44137    
     49600   1026.832      -5426.1899     -5222.4518     -213.21782      64407.934      313.65704    
     49610   1026.5222     -5426.1215     -5222.4447     -137.00618      64426.506      313.82436    
     49620   1030.3713     -5426.7773     -5222.3369     -261.97157      64444.466      313.94496    
     49630   1044.2172     -5429.3401     -5222.1524     -512.7251       64461.119      314.02719    
     49640   1053.5991     -5430.9803     -5221.9312     -725.64055      64475.115      314.09668    
     49650   1061.9817     -5432.4382     -5221.7259     -855.97715      64485.233      314.17651    
     49660   1060.2778     -5431.9296     -5221.5553     -808.03717      64490.735      314.24336    
     49670   1050.2763     -5429.8059     -5221.4161     -597.40081      64491.844      314.26641    
     49680   1053.7858     -5430.3589     -5221.2727     -485.71815      64489.558      314.25291    
     49690   1072.7474     -5433.9987     -5221.1502     -607.48845      64484.356      314.21328    
     49700   1084.8997     -5436.3743     -5221.1146     -678.38552      64475.695      314.14096    
     49710   1079.5001     -5435.4064     -5221.2181     -554.20579      64463.208      314.03636    
     49720   1063.5697     -5432.4668     -5221.4393     -322.65783      64447.522      313.90312    
     49730   1066.6281     -5433.3918     -5221.7576     -284.31378      64429.731      313.75523    
     49740   1062.664      -5433.0355     -5222.1878     -226.60908      64410.164      313.61824    
     49750   1044.6598     -5429.9843     -5222.7088     -101.8571       64389.132      313.51593    
     49760   1047.229      -5431.0829     -5223.2976     -38.935875      64367.247      313.43847    
     49770   1047.1795     -5431.7318     -5223.9564     -22.782879      64344.891      313.37548    
     49780   1039.6408     -5430.9602     -5224.6806     -44.319868      64322.122      313.33227    
     49790   1044.8309     -5432.7902     -5225.4807     -213.65737      64298.725      313.30454    
     49800   1038.9857     -5432.499      -5226.3494     -350.67938      64273.869      313.27364    
     49810   1025.0667     -5430.6475     -5227.2595     -393.76724      64246.829      313.22769    
     49820   1017.1709     -5429.9799     -5228.1586     -425.51096      64217.24       313.17238    
     49830   1009.1593     -5429.2178     -5228.9861     -403.6217       64184.94       313.11571    
     49840   1002.8418     -5428.6831     -5229.7049     -306.8103       64150.027      313.05709    
     49850   1006.3113     -5429.9553     -5230.2888     -178.97708      64112.936      312.99147    
     49860   1007.8976     -5430.7141     -5230.7328     -24.346833      64074.362      312.93846    
     49870   1010.6269     -5431.5652     -5231.0423      70.311729      64035.134      312.91665    
     49880   1019.2774     -5433.4592     -5231.22       -16.681999      63995.691      312.90777    
     49890   1025.0803     -5434.6849     -5231.2943     -160.38961      63955.657      312.87627    
     49900   1032.1424     -5436.071      -5231.2792     -359.42224      63914.235      312.81416    
     49910   1040.9729     -5437.7318     -5231.1879     -502.96553      63870.382      312.72413    
     49920   1048.8327     -5439.1487     -5231.0452     -611.2172       63823.269      312.608      
     49930   1052.2032     -5439.6427     -5230.8705     -571.81349      63772.349      312.4909     
     49940   1051.9949     -5439.3988     -5230.6679     -340.52114      63717.847      312.39421    
     49950   1056.648      -5440.0902     -5230.4361     -22.06603       63660.955      312.32357    
     49960   1054.5415     -5439.416      -5230.1799      386.08909      63603.452      312.27124    
     49970   1043.0932     -5436.8419     -5229.8773      769.2652       63547.498      312.2241     
     49980   1031.8691     -5434.2217     -5229.4841      1001.9621      63495.185      312.16725    
     49990   1041.1786     -5435.5474     -5228.9626      939.21646      63447.765      312.08664    
     50000   1050.8739     -5436.8394     -5228.3309      762.5385       63405.028      312.01182    
Loop time of 5230.57 on 1 procs for 20000 steps with 1536 atoms

Performance: 0.330 ns/day, 72.647 hours/ns, 3.824 timesteps/s, 5.873 katom-step/s
134.6% CPU use with 1 MPI tasks x 1 OpenMP threads

MPI task timing breakdown:
Section |  min time  |  avg time  |  max time  |%varavg| %total
---------------------------------------------------------------
Pair    | 5107.8     | 5107.8     | 5107.8     |   0.0 | 97.65
Bond    | 0.045777   | 0.045777   | 0.045777   |   0.0 |  0.00
Neigh   | 5.1014     | 5.1014     | 5.1014     |   0.0 |  0.10
Comm    | 0.67997    | 0.67997    | 0.67997    |   0.0 |  0.01
Output  | 115.19     | 115.19     | 115.19     |   0.0 |  2.20
Modify  | 1.5143     | 1.5143     | 1.5143     |   0.0 |  0.03
Other   |            | 0.248      |            |       |  0.00

Nlocal:           1536 ave        1536 max        1536 min
Histogram: 1 0 0 0 0 0 0 0 0 0
Nghost:           2300 ave        2300 max        2300 min
Histogram: 1 0 0 0 0 0 0 0 0 0
Neighs:              0 ave           0 max           0 min
Histogram: 1 0 0 0 0 0 0 0 0 0
FullNghs:        37764 ave       37764 max       37764 min
Histogram: 1 0 0 0 0 0 0 0 0 0

Total # of neighbors = 37764
Ave neighs/atom = 24.585938
Ave special neighs/atom = 0
Neighbor list builds = 2000
Dangerous builds = 2000
System init for write_data ...
System init for write_restart ...
Total wall time: 2:16:01
