LAMMPS (29 Sep 2021 - Update 3)
OMP_NUM_THREADS environment is not set. Defaulting to 1 thread. (src/comm.cpp:98)
  using 1 OpenMP thread(s) per MPI task
Reading data file ...
  orthogonal box = (0.0000000 0.0000000 0.0000000) to (15.857269 15.758596 73.856324)
  2 by 1 by 8 MPI processor grid
  reading atoms ...
  864 atoms
Finding 1-2 1-3 1-4 neighbors ...
  special bond factors lj:    0        0        0       
  special bond factors coul:  0        0        0       
     0 = max # of 1-2 neighbors
     0 = max # of 1-3 neighbors
     0 = max # of 1-4 neighbors
     1 = max # of special neighbors
  special bonds CPU = 0.005 seconds
  read_data CPU = 0.021 seconds
Neighbor list info ...
  update every 1 steps, delay 10 steps, check yes
  max neighbors/atom: 2000, page size: 100000
  master list distance cutoff = 6.22
  ghost atom cutoff = 6.22
  binsize = 3.11, bins = 6 6 24
  1 neighbor lists, perpetual/occasional/extra = 1 0 0
  (1) pair quip, perpetual
      attributes: full, newton on
      pair build: full/bin
      stencil: full/bin/3d
      bin: standard
Setting up Verlet run ...
  Unit style    : metal
  Current step  : 0
  Time step     : 0.001
Per MPI rank memory allocation (min/avg/max) = 8.896 | 8.907 | 8.915 Mbytes
Step Temp PotEng TotEng Press Volume c_msd[4] 
       0            0   -6680.0933   -6680.0933   -8281.1165    18455.831            0 
      10    70.089017   -6687.9205    -6680.102   -9637.9304    18455.831 0.00053514082 
      20    180.09083   -6700.2003   -6680.1109   -11326.743    18455.831 0.0066144209 
      30    218.60542   -6704.4933   -6680.1075   -10699.378    18455.831  0.022432956 
      40    219.14865   -6704.5494    -6680.103   -8951.3193    18455.831  0.042690684 
      50    240.47609   -6706.9311   -6680.1056   -8003.5149    18455.831  0.059191698 
      60    253.66901   -6708.4039   -6680.1068    -7626.627    18455.831   0.07070925 
      70     242.9182   -6707.2018   -6680.1039   -7466.6829    18455.831  0.079364222 
      80    245.92472    -6707.537   -6680.1038   -7609.4954    18455.831  0.086633288 
      90    257.49674   -6708.8305   -6680.1063   -7851.5904    18455.831  0.095173812 
     100    252.46946   -6708.2676   -6680.1043   -7551.0395    18455.831   0.10676573 
     110    248.46405   -6707.8212   -6680.1047   -7097.6705    18455.831   0.12025968 
     120    250.68872   -6708.0687    -6680.104   -6824.8497    18455.831   0.13340609 
     130      258.818   -6708.9777   -6680.1062   -6596.3887    18455.831   0.14573975 
     140    253.60976   -6708.3953   -6680.1047   -6185.2051    18455.831   0.15889724 
     150    247.40375   -6707.7026   -6680.1043   -5947.5032    18455.831   0.17318983 
     160    248.95468   -6707.8762   -6680.1049   -5851.7986    18455.831   0.18766652 
     170    251.06346   -6708.1121   -6680.1056   -5590.4969    18455.831   0.20144657 
     180    246.23782    -6707.572   -6680.1038   -5247.2261    18455.831   0.21382042 
     190    251.48989   -6708.1586   -6680.1045   -5416.1608    18455.831   0.22371169 
     200    260.44308   -6709.1586   -6680.1058   -5793.9896    18455.831   0.23141162 
     210    257.82494   -6708.8658    -6680.105   -6133.6533    18455.831   0.23844771 
     220    250.73963   -6708.0747   -6680.1043   -6257.2025    18455.831   0.24564622 
     230    248.07271   -6707.7773   -6680.1044   -6243.0592    18455.831   0.25309034 
     240    248.93862   -6707.8742   -6680.1047   -6226.9294    18455.831   0.26091643 
     250    248.99388   -6707.8804   -6680.1047   -6334.5414    18455.831   0.26913526 
     260    251.27669   -6708.1344   -6680.1041   -6551.8246    18455.831   0.27705303 
     270    260.34527   -6709.1477   -6680.1058        -6764    18455.831   0.28421607 
     280    260.83001   -6709.2011   -6680.1051   -6639.8092    18455.831   0.29163604 
     290    256.24266   -6708.6893    -6680.105   -6449.9322    18455.831   0.29974682 
     300    250.69638     -6708.07   -6680.1044   -6471.1016    18455.831   0.30849754 
     310    250.05901    -6707.999   -6680.1046   -6562.0942    18455.831   0.31777754 
     320    252.23509   -6708.2423   -6680.1051   -6693.6464    18455.831   0.32755563 
     330    250.81469   -6708.0833   -6680.1046   -6713.8004    18455.831   0.33779883 
     340    250.65515   -6708.0657   -6680.1047     -6614.52    18455.831   0.34801692 
     350    252.94275   -6708.3202   -6680.1041   -6588.7327    18455.831   0.35730468 
     360    261.50627   -6709.2774    -6680.106   -6797.9362    18455.831   0.36504658 
     370    261.10007   -6709.2316   -6680.1055   -6831.7443    18455.831   0.37190178 
     380    253.99916   -6708.4387   -6680.1047   -6726.1215    18455.831   0.37827271 
     390    253.05009   -6708.3325   -6680.1044    -6835.806    18455.831   0.38397661 
     400    258.03703   -6708.8906   -6680.1062   -6768.7818    18455.831   0.38955387 
     410      252.036   -6708.2195   -6680.1045   -6292.4532    18455.831   0.39652014 
     420    250.52201   -6708.0507   -6680.1046   -5826.2725    18455.831   0.40500255 
     430    256.29495   -6708.6954   -6680.1053    -5546.315    18455.831    0.4145153 
     440    262.43605   -6709.3808   -6680.1057   -5439.0868    18455.831   0.42473971 
     450    264.26046   -6709.5844   -6680.1058   -5272.9671    18455.831   0.43527985 
     460    262.52327   -6709.3894   -6680.1046   -5195.9426    18455.831   0.44476232 
     470    267.68384   -6709.9661   -6680.1056   -5304.7962    18455.831   0.45177569 
     480    270.55653   -6710.2863   -6680.1053   -5291.2639    18455.831   0.45687774 
     490    270.72724   -6710.3054   -6680.1053   -5218.7322    18455.831   0.46120142 
     500    269.05227   -6710.1187   -6680.1055   -5175.8745    18455.831   0.46642946 
     510    263.94553   -6709.5489   -6680.1053   -5239.9274    18455.831   0.47407361 
     520    257.63711   -6708.8446   -6680.1048   -5291.7388    18455.831   0.48412853 
     530    257.06548   -6708.7811   -6680.1051   -5321.5334    18455.831   0.49506416 
     540    260.38526   -6709.1518   -6680.1055   -5376.0867    18455.831   0.50501047 
     550    260.91759   -6709.2118    -6680.106    -5479.615    18455.831   0.51322197 
     560    255.01677   -6708.5518   -6680.1043   -5675.0057    18455.831   0.52041437 
     570     259.1908   -6709.0183   -6680.1051   -6233.3417    18455.831    0.5272333 
     580    265.73933   -6709.7494   -6680.1058   -6810.0612    18455.831   0.53425593 
     590    267.07214   -6709.8973    -6680.105   -7271.0617    18455.831   0.54173358 
     600    270.59769   -6710.2906    -6680.105   -7669.4363    18455.831   0.54966243 
     610    275.51295   -6710.8394   -6680.1055   -7859.4286    18455.831   0.55825095 
     620    275.26386   -6710.8118   -6680.1057   -7564.3126    18455.831   0.56786247 
     630    267.62803    -6709.959   -6680.1047   -6980.9593    18455.831   0.57832835 
     640    265.09163   -6709.6761   -6680.1047   -6568.2152    18455.831   0.58820723 
     650    267.67247   -6709.9653    -6680.106    -6347.284    18455.831   0.59641333 
     660    264.01415   -6709.5562    -6680.105   -5916.0469    18455.831   0.60309646 
     670    263.52965    -6709.502   -6680.1049   -5671.0684    18455.831   0.60844331 
     680    269.00124    -6710.113   -6680.1055   -5692.2827    18455.831    0.6132683 
     690    271.45591    -6710.387   -6680.1057   -5574.8525    18455.831   0.61933075 
     700     270.0884   -6710.2336   -6680.1048   -5412.3704    18455.831   0.62727776 
     710    274.16504    -6710.689   -6680.1055   -5445.9009    18455.831   0.63604213 
     720    276.77226   -6710.9801   -6680.1057   -5459.4182    18455.831   0.64454539 
     730    275.88502   -6710.8806   -6680.1052    -5417.932    18455.831   0.65171241 
     740    275.85971   -6710.8783   -6680.1057   -5536.9233    18455.831   0.65662341 
     750    272.97993   -6710.5569   -6680.1056   -5708.1328    18455.831    0.6598394 
     760    268.28422    -6710.033   -6680.1055   -5761.8441    18455.831   0.66298993 
     770    264.14144   -6709.5705   -6680.1051   -5775.8492    18455.831   0.66717813 
     780    263.51726    -6709.501   -6680.1053   -5700.2554    18455.831   0.67265545 
     790    266.55703   -6709.8409    -6680.106    -5605.591    18455.831   0.67864068 
     800    265.59911   -6709.7343   -6680.1063   -5512.5062    18455.831   0.68325498 
     810    257.26872   -6708.8037    -6680.105    -5609.846    18455.831   0.68551207 
     820    257.02246   -6708.7759   -6680.1047   -5957.2323    18455.831   0.68532325 
     830    268.49996   -6710.0576    -6680.106   -6395.3276    18455.831   0.68384718 
     840      275.603   -6710.8497   -6680.1057   -6790.5333    18455.831   0.68323699 
     850    277.81756   -6711.0961   -6680.1052   -7039.0507    18455.831   0.68429619 
     860    281.61629     -6711.52   -6680.1053    -7112.387    18455.831   0.68675849 
     870    285.63694   -6711.9688   -6680.1055   -6936.0551    18455.831    0.6904508 
     880    286.29079   -6712.0419   -6680.1057   -6480.6542    18455.831   0.69538495 
     890    281.96956   -6711.5596   -6680.1055   -6039.8274    18455.831   0.70113257 
     900    274.65893   -6710.7442   -6680.1055     -5564.23    18455.831   0.70667182 
     910    267.20366   -6709.9114   -6680.1045   -5257.3591    18455.831   0.71136984 
     920     269.3838   -6710.1555   -6680.1053    -5367.122    18455.831   0.71512054 
     930    273.08823   -6710.5689   -6680.1055   -5720.7294    18455.831   0.71853359 
     940    275.14424   -6710.7982   -6680.1055   -5917.6904    18455.831   0.72236347 
     950    276.67291   -6710.9689   -6680.1056   -5610.0935    18455.831   0.72713733 
     960    276.62748   -6710.9635   -6680.1053   -5046.3658    18455.831   0.73337224 
     970     278.3434   -6711.1556   -6680.1059   -4610.3497    18455.831   0.74121898 
     980    276.50421   -6710.9503   -6680.1058   -4305.2609    18455.831   0.75038076 
     990    274.46428   -6710.7216   -6680.1047   -4327.9119    18455.831   0.75935205 
    1000    282.87647   -6711.6614   -6680.1061   -4696.6429    18455.831   0.76641954 
    1010    286.63377   -6712.0812   -6680.1068   -4990.2699    18455.831   0.77271728 
    1020    279.06324   -6711.2352   -6680.1053   -4771.2676    18455.831   0.78024384 
    1030    275.82234   -6710.8738   -6680.1054    -4403.339    18455.831   0.78871428 
    1040    278.66942   -6711.1919   -6680.1059   -3941.2604    18455.831   0.79675694 
    1050    279.04998   -6711.2352   -6680.1068   -3356.1301    18455.831   0.80429238 
    1060    270.39607   -6710.2685   -6680.1054   -2836.7873    18455.831   0.81167046 
    1070    268.92869   -6710.1046   -6680.1052   -2775.6081    18455.831   0.81774479 
    1080    276.86697   -6710.9921   -6680.1072   -2982.0197    18455.831   0.82183502 
    1090    273.51021   -6710.6167   -6680.1062   -3002.8881    18455.831   0.82504043 
    1100    268.10286   -6710.0129   -6680.1056    -3041.916    18455.831   0.82859974 
    1110    268.86345   -6710.0983   -6680.1061   -3274.5241    18455.831   0.83307382 
    1120    271.12867   -6710.3511   -6680.1063   -3502.0504    18455.831   0.83788345 
    1130    271.41072   -6710.3825   -6680.1063   -3567.0764    18455.831   0.84210043 
    1140    271.86949   -6710.4327   -6680.1053   -3657.0206    18455.831   0.84510588 
    1150    281.86599   -6711.5491   -6680.1065   -4076.7437    18455.831    0.8468347 
    1160    288.73127   -6712.3154    -6680.107   -4317.2032    18455.831    0.8485126 
    1170    284.72713   -6711.8682   -6680.1065   -4221.6867    18455.831   0.85124425 
    1180    277.76624   -6711.0907   -6680.1055   -3786.2546    18455.831   0.85522238 
    1190    278.42764   -6711.1658   -6680.1068   -3453.5254    18455.831   0.86063272 
    1200    274.57485   -6710.7358   -6680.1066   -3135.4804    18455.831   0.86799772 
    1210    268.17301   -6710.0207   -6680.1056   -3061.7485    18455.831   0.87596914 
    1220    269.73514   -6710.1951   -6680.1058   -3498.6687    18455.831   0.88197829 
    1230    275.57277   -6710.8475    -6680.107   -3998.6686    18455.831   0.88464671 
    1240    273.28864   -6710.5919   -6680.1062   -4275.4959    18455.831   0.88485118 
    1250    269.21341   -6710.1371    -6680.106   -4301.1389    18455.831   0.88413656 
    1260    268.47841   -6710.0549   -6680.1057   -4311.1873    18455.831   0.88296339 
    1270    272.54156   -6710.5085   -6680.1061   -4356.8217    18455.831   0.88172746 
    1280    277.77621   -6711.0926   -6680.1063   -4588.2508    18455.831   0.88180594 
    1290    280.19269   -6711.3629    -6680.107   -4852.3632    18455.831   0.88389526 
    1300    274.38994   -6710.7142   -6680.1056   -4801.0391    18455.831   0.88737003 
    1310    272.68687   -6710.5248   -6680.1062   -4600.8128    18455.831   0.89133871 
    1320    273.33879   -6710.5972   -6680.1059   -4506.2257    18455.831   0.89528436 
    1330    275.86937     -6710.88   -6680.1064   -4590.7459    18455.831   0.89889495 
    1340    276.57557   -6710.9584    -6680.106   -4592.8619    18455.831   0.90245999 
    1350    276.61512   -6710.9634   -6680.1066   -4506.7758    18455.831   0.90646299 
    1360    272.26073   -6710.4771    -6680.106   -4467.2196    18455.831   0.91136845 
    1370    268.73878   -6710.0839   -6680.1057   -4589.1112    18455.831   0.91701889 
    1380    269.83102   -6710.2061    -6680.106   -4803.1401    18455.831   0.92344131 
    1390    271.01809   -6710.3391   -6680.1066   -4995.7936    18455.831   0.93117145 
    1400    266.53417   -6709.8383   -6680.1061   -4887.7324    18455.831   0.93925395 
    1410    264.34979   -6709.5941   -6680.1054   -4661.6641    18455.831   0.94440069 
    1420    271.24246   -6710.3639   -6680.1064   -4782.1646    18455.831   0.94464645 
    1430    278.14891   -6711.1341   -6680.1062   -5345.1098    18455.831   0.94130273 
    1440    284.26073    -6711.816   -6680.1063   -5956.3496    18455.831    0.9366539 
    1450    286.06102   -6712.0176    -6680.107   -6473.9841    18455.831   0.93338269 
    1460    278.13817   -6711.1322   -6680.1055    -6637.014    18455.831   0.93336514 
    1470    274.95588   -6710.7774   -6680.1057   -6848.7234    18455.831   0.93597431 
    1480    275.34081   -6710.8209   -6680.1062   -7017.9963    18455.831   0.93943367 
    1490    271.96867   -6710.4442   -6680.1057   -6827.7136    18455.831   0.94245071 
    1500    271.43894   -6710.3851   -6680.1057   -6399.8258    18455.831   0.94456699 
    1510    273.11981   -6710.5738   -6680.1069   -5919.9683    18455.831   0.94612167 
    1520    266.58025   -6709.8431   -6680.1057   -5429.0631    18455.831   0.94681802 
    1530    264.24493   -6709.5825   -6680.1056   -5386.7007    18455.831   0.94511663 
    1540    268.14703   -6710.0187   -6680.1065   -5636.8718    18455.831   0.94138542 
    1550    270.20911    -6710.248   -6680.1058   -5845.7424    18455.831   0.93815309 
    1560    276.27553   -6710.9252   -6680.1062   -5792.6983    18455.831   0.93754478 
    1570    281.48981   -6711.5074   -6680.1068   -5440.6487    18455.831   0.94039184 
    1580    279.21915   -6711.2534    -6680.106   -4999.2991    18455.831   0.94601391 
    1590     277.1071   -6711.0177    -6680.106   -4867.2447    18455.831   0.95254979 
    1600    278.30993   -6711.1519    -6680.106   -4854.7315    18455.831   0.95811089 
    1610    283.09805   -6711.6862   -6680.1062   -4922.4033    18455.831   0.96206314 
    1620    285.07138   -6711.9077   -6680.1076   -4696.0901    18455.831   0.96577017 
    1630    273.23535   -6710.5854   -6680.1056   -4246.7962    18455.831   0.97096923 
    1640     267.7179   -6709.9697   -6680.1053   -4035.6486    18455.831     0.977191 
    1650    272.52244   -6710.5064   -6680.1061   -4111.8074    18455.831   0.98346373 
    1660     277.8589   -6711.1018   -6680.1062   -4253.7363    18455.831   0.98934697 
    1670    281.07361    -6711.461   -6680.1068   -4561.0787    18455.831   0.99446833 
    1680    278.83973   -6711.2107   -6680.1057   -4801.2753    18455.831   0.99855733 
    1690    282.27607   -6711.5942   -6680.1059   -5070.8212    18455.831    1.0013333 
    1700    288.92729   -6712.3376   -6680.1074   -5075.7299    18455.831    1.0032748 
    1710    283.97303   -6711.7838   -6680.1062   -4524.3033    18455.831    1.0056492 
    1720    280.32496   -6711.3763   -6680.1056   -4088.2037    18455.831    1.0090707 
    1730    285.00962   -6711.9005   -6680.1072   -4166.6509    18455.831    1.0129097 
    1740    281.71349    -6711.532   -6680.1064   -4428.6075    18455.831    1.0162807 
    1750    277.27178   -6711.0355   -6680.1055   -4669.9286    18455.831    1.0185587 
    1760    282.23006   -6711.5895   -6680.1063   -4723.6015    18455.831    1.0199448 
    1770    285.90961   -6712.0006   -6680.1069   -4414.9618    18455.831      1.02094 
    1780    282.38129   -6711.6061    -6680.106   -3873.7091    18455.831    1.0213084 
    1790    282.44165    -6711.613   -6680.1062   -3619.8434    18455.831    1.0208436 
    1800    287.55602   -6712.1841   -6680.1067   -3726.4708    18455.831    1.0207901 
    1810    288.11308   -6712.2473   -6680.1079    -3934.633    18455.831    1.0230701 
    1820    276.98552   -6711.0034   -6680.1052    -4186.202    18455.831    1.0283135 
    1830    277.15263   -6711.0235   -6680.1067   -4345.9838    18455.831    1.0350393 
    1840    276.23823   -6710.9215   -6680.1067   -4368.7653    18455.831    1.0414724 
    1850    273.19513   -6710.5804   -6680.1051   -4416.5455    18455.831    1.0455768 
    1860    283.83055   -6711.7684   -6680.1067   -4696.8368    18455.831    1.0462471 
    1870    291.37755   -6712.6113   -6680.1077   -4729.2468    18455.831    1.0448258 
    1880    283.33807   -6711.7134   -6680.1066   -4658.1696    18455.831    1.0428769 
    1890    273.10669    -6710.571   -6680.1055   -4806.2478    18455.831     1.040683 
    1900    272.25017   -6710.4761   -6680.1062   -4992.1727    18455.831    1.0384095 
    1910    274.11365   -6710.6842   -6680.1065    -4851.611    18455.831    1.0367748 
    1920     274.3815    -6710.714   -6680.1064   -4374.9654    18455.831    1.0362621 
    1930    273.80361   -6710.6496   -6680.1064   -3953.3671    18455.831    1.0369737 
    1940    273.81216   -6710.6506   -6680.1064   -3660.7249    18455.831     1.038631 
    1950     274.0972   -6710.6826   -6680.1067   -3555.6748    18455.831    1.0408007 
    1960     275.1804   -6710.8028    -6680.106   -3995.0323    18455.831    1.0431217 
    1970    281.99645   -6711.5638   -6680.1067   -4818.7611    18455.831    1.0450424 
    1980     287.0536   -6712.1285   -6680.1072   -5430.2829    18455.831    1.0464652 
    1990    282.90097   -6711.6645   -6680.1064   -5324.8363    18455.831    1.0478613 
    2000    278.29624   -6711.1501   -6680.1058   -5003.2499    18455.831    1.0492005 
Loop time of 1542.12 on 16 procs for 2000 steps with 864 atoms

Performance: 0.112 ns/day, 214.183 hours/ns, 1.297 timesteps/s
97.6% CPU use with 16 MPI tasks x 1 OpenMP threads

MPI task timing breakdown:
Section |  min time  |  avg time  |  max time  |%varavg| %total
---------------------------------------------------------------
Pair    | 689.02     | 1147       | 1535.4     | 572.0 | 74.38
Bond    | 0.00018191 | 0.00050096 | 0.0011601  |   0.0 |  0.00
Neigh   | 0.018796   | 0.030231   | 0.049678   |   3.9 |  0.00
Comm    | 6.2343     | 352.88     | 809.88     | 966.8 | 22.88
Output  | 0.3348     | 24.276     | 57.634     | 450.2 |  1.57
Modify  | 0.0096676  | 0.011698   | 0.014983   |   1.3 |  0.00
Other   |            | 17.9       |            |       |  1.16

Nlocal:        54.0000 ave          86 max          35 min
Histogram: 1 1 3 7 2 1 0 0 0 1
Nghost:        537.750 ave         662 max         448 min
Histogram: 3 1 1 5 0 0 3 1 1 1
Neighs:         0.00000 ave           0 max           0 min
Histogram: 16 0 0 0 0 0 0 0 0 0
FullNghs:      2646.75 ave        5387 max        1216 min
Histogram: 2 2 3 4 3 1 0 0 0 1

Total # of neighbors = 42348
Ave neighs/atom = 49.013889
Ave special neighs/atom = 0.0000000
Neighbor list builds = 199
Dangerous builds = 198
Setting up Verlet run ...
  Unit style    : metal
  Current step  : 2000
  Time step     : 0.001
Per MPI rank memory allocation (min/avg/max) = 8.897 | 8.909 | 8.917 Mbytes
Step Temp PotEng TotEng Press Volume c_msd[4] 
    2000        862.5   -6711.1501    -6614.937   -1231.6529    18455.831    1.0492005 
    2010    756.54897   -6699.2974   -6614.9032     1242.987    18455.433    1.0560132 
    2020    607.24258   -6682.4287   -6614.6899    4559.8882    18456.319    1.0718462 
    2030    568.16661   -6677.5463   -6614.1665    4999.3308    18461.467    1.0864425 
    2040    547.99937   -6674.4012   -6613.2711    4381.2585    18471.508    1.1011013 
    2050    525.37859    -6670.775   -6612.1682    3957.3492    18485.953    1.1163229 
    2060    537.02625   -6670.9791    -6611.073    3154.0945    18504.329    1.1304889 
    2070    557.18841   -6672.2193   -6610.0641     2655.946    18525.922    1.1449098 
    2080    571.20345   -6672.8156    -6609.097    2595.9018    18550.274     1.160186 
    2090    574.80752     -6672.19   -6608.0693    2144.8551    18577.257    1.1748318 
    2100    593.87483   -6673.1654   -6606.9178    888.56289     18606.39     1.188052 
    2110    629.55251   -6675.8181   -6605.5906   -803.66225    18636.425    1.2022366 
    2120     627.7122   -6674.1857   -6604.1634   -1230.9786    18665.793    1.2196038 
    2130    590.33104   -6668.6136   -6602.7613   -232.04684    18694.076    1.2384702 
    2140    595.08765   -6667.7494   -6601.3664    227.82014    18722.074    1.2552569 
    2150     596.3498   -6666.4274   -6599.9037   -117.33437    18750.244    1.2707514 
    2160    600.61252   -6665.4075   -6598.4082   -1075.0249    18778.236    1.2854025 
    2170    624.37252   -6666.4955   -6596.8458   -1861.5898    18805.114     1.299748 
    2180    628.96827   -6665.4052   -6595.2429   -1923.3688    18830.111     1.315099 
    2190      622.408   -6663.0825   -6593.6519   -1662.1332    18853.122     1.330844 
    2200     629.3512   -6662.2575   -6592.0524   -1699.6591     18874.36    1.3457555 
    2210     641.6305    -6661.986   -6590.4111   -2152.3785    18893.771    1.3594301 
    2220    639.22568   -6660.0561   -6588.7495   -2322.5309    18910.938    1.3712415 
    2230    635.86478    -6658.028   -6587.0964   -2595.9509    18925.639     1.379576 
    2240    649.52926   -6657.8741   -6585.4181   -3314.4303    18937.566    1.3839075 
    2250    657.85821   -6657.0967   -6583.7116   -3706.9567    18946.044    1.3864308 
    2260    672.32665   -6657.0003   -6582.0012   -3486.6805    18950.691    1.3886312 
    2270    679.94782   -6656.1316   -6580.2824   -2638.4994     18951.76    1.3926931 
    2280    683.65933   -6654.8342    -6578.571   -1664.9647    18950.068     1.400073 
    2290    679.21678   -6652.6337   -6576.8661   -637.85476    18946.664    1.4070919 
    2300    701.53351   -6653.3974   -6575.1403   -646.64956    18942.507     1.409278 
    2310    731.24951   -6654.9449   -6573.3729   -872.88187    18937.695    1.4080971 
    2320    753.62026   -6655.6706   -6571.6032   -943.29997    18932.001    1.4074129 
    2330     748.8001   -6653.4056   -6569.8758   -689.42622     18925.35    1.4105792 
    2340    723.18206    -6648.892     -6568.22   -216.52708    18918.038     1.417385 
    2350    739.94902   -6649.1094   -6566.5669   -681.58255    18910.421    1.4250856 
    2360    754.79552   -6649.0728   -6564.8742   -1101.2423    18902.123    1.4326771 
    2370    757.76319   -6647.7149   -6563.1853   -857.85978    18892.761    1.4393946 
    2380    751.49061   -6645.3529    -6561.523   -494.26117    18882.534    1.4437394 
    2390     764.8102   -6645.1788   -6559.8631   -561.36975    18871.764    1.4449751 
    2400    772.84843    -6644.407   -6558.1946   -512.90254    18860.444    1.4463195 
    2410    775.75859   -6643.0754   -6556.5383    91.271293    18848.661    1.4503055 
    2420    780.23471   -6641.9318   -6554.8954    908.06926    18837.014    1.4573054 
    2430    801.72203   -6642.6903    -6553.257    1149.0004    18826.249    1.4673173 
    2440    807.57937   -6641.7219   -6551.6352     1818.613    18816.727    1.4792273 
    2450    811.36151   -6640.5691   -6550.0605     2233.932    18809.073    1.4875144 
    2460    837.21123   -6641.9092    -6548.517    1510.8842    18803.628    1.4900883 
    2470    853.26661   -6642.1967   -6547.0135     809.5146    18799.756    1.4918293 
    2480    856.29756   -6641.1116   -6545.5903    1404.8005    18796.834     1.497473 
    2490    839.29249   -6637.8741   -6544.2497    2934.4813    18795.446    1.5091172 
    2500    819.13523   -6634.3514   -6542.9756     4095.206    18797.049    1.5233866 
    2510    818.26984   -6633.0005   -6541.7213    4360.5147    18802.802    1.5361807 
    2520    840.84835     -6634.25   -6540.4521    3220.3824    18812.915    1.5479728 
    2530    869.38722   -6636.1595    -6539.178    1758.5378     18826.34    1.5622406 
    2540    883.05542   -6636.4569   -6537.9508    645.09022     18841.62    1.5832346 
    2550    876.82233   -6634.6221   -6536.8113    568.09854    18857.683    1.6099094 
    2560    891.28152   -6635.1881   -6535.7643    1071.2768    18874.385    1.6364318 
    2570    891.73455    -6634.278   -6534.8037    1798.8685    18892.231    1.6616607 
    2580    874.82222   -6631.5378   -6533.9501    2043.4102    18911.909    1.6861932 
    2590    864.16135   -6629.5638   -6533.1653    1796.6168    18933.688     1.709836 
    2600    862.93182   -6628.6636   -6532.4023    1360.7672    18957.338    1.7361739 
    2610    860.78098   -6627.6741   -6531.6527    1164.0067    18982.439    1.7682043 
    2620    865.46037   -6627.4577   -6530.9143    1119.0398    19008.767    1.8041616 
    2630    855.44312   -6625.6163   -6530.1903    1121.4072    19036.271    1.8420061 
    2640    846.07751   -6623.8537   -6529.4725    557.03704    19064.864    1.8781913 
    2650    859.49183   -6624.6061   -6528.7284   -11.530143        19094    1.9094613 
    2660    859.70601   -6623.8694   -6527.9679   -85.784443    19123.105    1.9343977 
    2670    853.97373   -6622.4786   -6527.2165   -166.33898    19152.023    1.9551331 
    2680    878.56994   -6624.4662   -6526.4604   -769.23116    19180.604    1.9778859 
    2690    895.37861   -6625.5901   -6525.7093   -1296.5417    19208.238    2.0066586 
    2700    885.33081   -6623.7917   -6525.0317   -1050.6165    19234.421     2.036685 
    2710    875.23909    -6622.065   -6524.4308   -671.52835    19259.364    2.0630476 
    2720    878.17615   -6621.8386   -6523.8767   -851.22798    19283.373    2.0880808 
    2730    861.98577   -6619.5086   -6523.3528    -626.6192    19306.357    2.1119817 
    2740    860.77237   -6618.8686   -6522.8482   -676.17707    19328.489     2.132381 
    2750    876.76275   -6620.1325   -6522.3283   -1587.8326    19349.644     2.150163 
    2760    879.90065    -6619.981   -6521.8268   -1943.2958    19368.976    2.1652706 
    2770    873.64583   -6618.8304   -6521.3739   -1748.4088    19386.096    2.1753488 
    2780    892.04307   -6620.4607   -6520.9519   -1956.2338    19401.124    2.1796373 
    2790    913.44459   -6622.4849   -6520.5888   -2304.4703    19413.874    2.1813201 
    2800      903.716   -6621.1476   -6520.3367   -2349.2371     19424.03    2.1880081 
    2810    874.10957   -6617.6844   -6520.1761   -2218.1261    19431.566    2.2049882 
    2820    875.47731   -6617.7218    -6520.061   -2727.6834     19436.54    2.2310749 
    2830    871.80718   -6617.2182   -6519.9668    -3173.411    19438.492    2.2584064 
    2840    875.26617   -6617.5388   -6519.9016   -2931.3155    19437.037    2.2782657 
    2850    906.65592   -6621.0264   -6519.8875   -2520.1104    19432.388    2.2897012 
    2860    920.06433     -6622.61   -6519.9754   -1797.2337    19425.052    2.3000405 
    2870    913.44628   -6622.0829   -6520.1866   -838.07083    19415.873     2.311738 
    2880    918.05425    -6622.941   -6520.5307   -558.28926    19405.783    2.3256037 
    2890    911.64471   -6622.6972   -6521.0018   -333.23615    19395.166     2.344586 
    2900    878.44098   -6619.5506   -6521.5592    9.7942829    19384.315    2.3688848 
    2910    864.23792    -6618.549    -6522.142   -303.63724    19373.517    2.3935599 
    2920    877.60884   -6620.6387   -6522.7402   -1159.6845     19362.43    2.4152949 
    2930    869.25294   -6620.3274   -6523.3609   -1413.5633    19350.257    2.4363808 
    2940    854.54054   -6619.3102   -6523.9849   -859.06793    19336.747    2.4619829 
    2950    848.51872   -6619.2279   -6524.5744   -387.61087    19322.416     2.492651 
    2960    856.62476   -6620.6865   -6525.1287   -696.70755    19307.703    2.5209946 
    2970    867.74177   -6622.4792   -6525.6813   -1138.7284    19292.348    2.5480262 
    2980    860.87604   -6622.2694   -6526.2373   -689.73665     19275.99    2.5778659 
    2990    866.53303   -6623.4461   -6526.7831    27.096403    19259.066    2.6095041 
    3000    876.20016   -6625.0862   -6527.3448    104.97602    19242.248    2.6421141 
    3010    842.86078   -6621.9273   -6527.9049    269.72972      19225.7    2.6747352 
    3020    820.89709   -6619.9777   -6528.4054    705.55592    19209.608    2.7027842 
    3030    815.19913   -6619.7498   -6528.8131    1052.6029    19194.394    2.7252278 
    3040    802.69857   -6618.6521   -6529.1099    1294.5433    19180.432     2.744783 
    3050    803.65132   -6618.9309   -6529.2824    861.56911    19167.889    2.7635617 
    3060    815.59257   -6620.3092   -6529.3287    574.54033    19156.403    2.7823654 
    3070    845.68824   -6623.6231   -6529.2853    162.73014    19145.607    2.7992517 
    3080    855.73187   -6624.6509   -6529.1927    143.78762    19135.121    2.8185059 
    3090    847.71198   -6623.6553   -6529.0918    282.90482    19124.882    2.8425745 
    3100    819.97225    -6620.433   -6528.9638    454.02431    19115.033    2.8665041 
    3110    793.10513   -6617.2279   -6528.7559    874.45585    19105.791    2.8853473 
    3120    791.37422   -6616.6891   -6528.4101    1072.3015    19097.539    2.8973091 
    3130    816.41341   -6618.9806   -6527.9084    690.24802     19090.43    2.9023076 
    3140    848.41371    -6621.925   -6527.2831    464.37529    19084.134    2.9029902 
    3150    877.02708    -6624.449   -6526.6153    541.47167    19078.401    2.9011517 
    3160    867.27153   -6622.7134    -6525.968    950.95477    19073.329     2.900143 
    3170    866.13509   -6621.9827    -6525.364    514.87358    19069.217    2.9032936 
    3180    889.19641   -6623.9704   -6524.7792   -242.14663    19065.643    2.9104767 
    3190    901.02518   -6624.7496   -6524.2388   -532.50255    19061.892    2.9199005 
    3200    870.95858    -6620.927   -6523.7703    10.310723    19057.706    2.9290417 
    3210    849.35976   -6618.0805   -6523.3331    311.61915    19053.557    2.9332728 
    3220    867.09817    -6619.611   -6522.8849    40.495334    19049.708    2.9324441 
    3230    864.53434   -6618.8727   -6522.4326    973.08974    19046.079    2.9296865 
    3240    869.41988   -6618.9811    -6521.996    1353.3254    19043.438    2.9288839 
    3250    877.65699   -6619.4824   -6521.5785    1639.6431    19042.251    2.9311066 
    3260    874.19007   -6618.7061   -6521.1889    2301.5264    19042.842    2.9319623 
    3270    884.19018   -6619.4681   -6520.8354    2619.3167     19045.81    2.9321911 
    3280      898.432   -6620.7515     -6520.53    2561.5333    19051.476    2.9359947 
    3290    910.41811   -6621.8716   -6520.3131    2282.0242    19059.773    2.9439448 
    3300     900.2331   -6620.6216   -6520.1993    2249.5566    19070.456    2.9545162 
    3310     888.6923   -6619.3172   -6520.1823    2229.5514     19083.46    2.9639065 
    3320    879.46306    -6618.333   -6520.2276    1583.9869    19098.676    2.9696861 
    3330    876.89534   -6618.1303   -6520.3113     1166.742    19115.504    2.9709362 
    3340     873.9236   -6617.9149   -6520.4274    998.96117    19133.487    2.9695874 
    3350    859.32277   -6616.4269   -6520.5681    844.13393    19152.412    2.9680789 
    3360    848.05669   -6615.2987   -6520.6967    905.53626     19172.16    2.9674933 
    3370     867.9513   -6617.6306   -6520.8093    33.750978    19192.637    2.9681839 
    3380    860.03911   -6616.8528   -6520.9141   -598.20399    19213.047    2.9726615 
    3390    834.10721    -6614.048   -6521.0021   -315.62575    19232.786    2.9777945 
    3400    847.09277    -6615.546   -6521.0516   -195.89517    19252.037    2.9814129 
    3410    882.64235    -6619.536   -6521.0759   -789.17513    19270.868    2.9838853 
    3420    905.15909   -6622.1151   -6521.1432    -1262.633    19288.736    2.9856057 
    3430    903.32941   -6622.0657    -6521.298   -1570.3376    19305.126      2.99116 
    3440    893.81999   -6621.2455   -6521.5386   -2001.0571    19319.674    3.0054325 
    3450    887.28621   -6620.8274   -6521.8493   -2775.9096     19331.89    3.0260803 
    3460    868.33783   -6619.0694    -6522.205   -3166.7978    19341.039    3.0466607 
    3470    845.03615   -6616.8262   -6522.5612   -3038.8384    19346.734    3.0617759 
    3480    852.00785   -6617.9407   -6522.8979   -2930.3306    19349.066    3.0704963 
    3490    857.20925   -6618.8439    -6523.221   -2363.6335    19348.251    3.0764906 
    3500    850.45059   -6618.3966   -6523.5276     -1715.54    19344.892    3.0843193 
    3510    855.15545   -6619.2065   -6523.8126   -1502.7795    19339.664    3.0995569 
    3520    844.02141   -6618.2158   -6524.0639   -1195.8228    19332.907    3.1238683 
    3530    855.54894   -6619.7351   -6524.2973   -1400.6282    19324.883    3.1477327 
    3540    869.80339   -6621.5605   -6524.5326    -1306.598    19315.497    3.1646221 
    3550     867.6593   -6621.5713   -6524.7826   -496.31579    19304.914      3.17824 
    3560    857.15038   -6620.6436   -6525.0272    588.53278    19293.986    3.1921083 
    3570    855.73422   -6620.7108   -6525.2524    1480.1907    19283.852    3.2036921 
    3580    844.87621   -6619.7041   -6525.4569    2126.1607    19275.456     3.214961 
    3590    823.42922   -6617.4643   -6525.6095    2399.9818    19269.464    3.2306252 
    3600    832.23923   -6618.5362   -6525.6987    1949.0047    19266.072    3.2512888 
    3610    821.03275   -6617.3003   -6525.7129    1674.9792    19264.856    3.2747181 
    3620    830.57548   -6618.3049    -6525.653    1282.1808    19265.455    3.2943741 
    3630    846.39032   -6619.9336   -6525.5175    684.24363    19267.406    3.3098736 
    3640    858.32353   -6621.0876   -6525.3403    455.37088    19270.107    3.3249405 
    3650    848.96443   -6619.8393    -6525.136    666.13221    19273.307    3.3390681 
    3660    847.26961   -6619.4155   -6524.9013    429.28457    19277.121    3.3489303 
    3670    851.53304   -6619.6151   -6524.6253     90.96243    19281.329    3.3561555 
    3680     855.5064   -6619.7628   -6524.3298    189.07231    19285.621    3.3644464 
    3690    861.28475   -6620.0988   -6524.0211   -23.883982    19290.021    3.3745532 
    3700    874.91913   -6621.3102   -6523.7116   -603.07196    19294.289    3.3863881 
    3710    866.17093   -6620.0392   -6523.4165   -728.72689    19297.885    3.4001471 
    3720    846.17251   -6617.5186   -6523.1267   -607.64263     19300.65    3.4154831 
    3730    861.87853    -6618.967   -6522.8232   -840.38748    19302.663    3.4324346 
    3740    843.92294   -6616.6371   -6522.4962   -438.12313    19303.809    3.4528096 
    3750     831.9748   -6614.9494   -6522.1414     306.9366    19304.521    3.4746001 
    3760    863.09685   -6618.0074   -6521.7277    349.53719    19305.482    3.4934123 
    3770    881.37481   -6619.6147    -6521.296    368.63927    19306.807    3.5086288 
    3780    877.64379    -6618.804   -6520.9015    918.86911     19308.57    3.5231077 
    3790    865.47802   -6617.0951   -6520.5497    1536.6519    19311.307    3.5391925 
    3800    838.44882   -6613.7391   -6520.2089     1896.222    19315.648    3.5556527 
    3810    830.54074   -6612.4795   -6519.8314    1545.7605    19321.898    3.5692725 
    3820    868.19828   -6616.2443   -6519.3955    598.16112    19329.651    3.5791929 
    3830    871.27717   -6616.1339   -6518.9416    401.87822    19338.014     3.588861 
    3840    859.30168    -6614.373   -6518.5166    438.61665    19346.685    3.6008361 
    3850    856.61468   -6613.6532   -6518.0965    201.13442    19355.644    3.6119274 
    3860     867.4035    -6614.429   -6517.6688    87.265965    19364.688     3.617559 
    3870    870.76138   -6614.3703   -6517.2355    222.30649    19373.715    3.6171755 
    3880    872.36277   -6614.1349   -6516.8215    96.031203    19382.822    3.6105943 
    3890    880.97074   -6614.7034   -6516.4297   -687.09332    19391.822    3.5974207 
    3900    900.96307   -6616.5862   -6516.0824   -1590.9334    19399.915    3.5828566 
    3910    893.69001   -6615.4997   -6515.8073   -1674.6763    19406.235    3.5762001 
    3920    871.30263   -6612.8007   -6515.6056   -1516.5926    19410.647    3.5800552 
    3930    861.47326   -6611.5261   -6515.4274   -1582.1667     19413.31    3.5878806 
    3940    856.36019   -6610.7752   -6515.2469   -1177.8598    19414.261    3.5935994 
    3950    863.61695   -6611.3933   -6515.0555   -667.33415    19413.936    3.5953213 
    3960    866.92562   -6611.5687   -6514.8619   -350.26208    19412.884    3.5963061 
    3970    862.33364   -6610.8669   -6514.6723   -502.68133    19411.422    3.6000903 
    3980    895.62495   -6614.4091   -6514.5008   -1186.3529    19409.378    3.6070795 
    3990    894.45232   -6614.1597   -6514.3822   -1032.8745    19406.182    3.6207338 
    4000    872.94851   -6611.7128   -6514.3341   -338.53008    19401.983    3.6397253 
    4010     888.2972   -6613.4287   -6514.3378    56.412885     19397.46    3.6602112 
    4020    885.62486   -6613.1813   -6514.3885    490.92194    19393.092    3.6816265 
    4030    865.82924   -6611.0671   -6514.4826    740.14513    19389.328    3.7014575 
    4040    857.34021   -6610.2134   -6514.5758    686.86511    19386.423    3.7164358 
    4050    878.38656   -6612.6574    -6514.672    241.88733    19384.273    3.7260052 
    4060    879.74525   -6612.9242   -6514.7873    356.93921    19382.502    3.7358571 
    4070    900.19078   -6615.3852   -6514.9676    59.126052     19381.11     3.749107 
    4080    901.80682   -6615.8415   -6515.2436   -649.73301    19379.775    3.7658994 
    4090    883.64646   -6614.1779   -6515.6058   -1133.1931    19377.798    3.7832951 
    4100    867.77434   -6612.8171   -6516.0156   -1543.3028    19374.651    3.7978274 
    4110    856.84472   -6612.0187   -6516.4364   -1340.8415     19369.96    3.8089357 
    4120    850.89656   -6611.7608    -6516.842   -711.03994     19363.97    3.8148019 
    4130    854.54299   -6612.5513   -6517.2257   -637.51022    19357.298    3.8174581 
    4140    865.07777   -6614.1053   -6517.6046   -858.92346    19350.047    3.8219641 
    4150    863.51077   -6614.3059     -6517.98   -815.14077    19342.029    3.8323855 
    4160    856.81174   -6613.9222   -6518.3436   -294.12926     19333.35    3.8503659 
    4170    862.90575   -6614.9641   -6518.7057    40.875166    19324.513    3.8737684 
    4180    863.59614   -6615.4068   -6519.0713    146.42955    19315.881    3.8978834 
    4190    879.54671   -6617.5864   -6519.4717   -329.03838    19307.521    3.9168686 
    4200    863.76994   -6616.2568   -6519.9019   -607.43763    19299.014    3.9315706 
    4210    845.29072   -6614.6211   -6520.3277   -243.69122     19290.08    3.9481445 
    4220    843.61159   -6614.8029   -6520.6968     99.11178    19281.053    3.9715313 
    4230     867.7095   -6617.8201   -6521.0258   -86.816682    19272.256    3.9992554 
    4240    867.84693   -6618.1849   -6521.3752    112.61791    19263.594    4.0282614 
    4250    824.82479   -6613.7245   -6521.7141    720.86804    19255.282    4.0591944 
    4260    839.11898   -6615.6072   -6522.0023    319.19278    19247.799    4.0870156 
    4270     856.2309   -6617.7583   -6522.2445   -81.033788    19240.818    4.1087518 
    4280    839.34278   -6616.0847   -6522.4548    437.59718    19234.009    4.1280786 
    4290    839.13289   -6616.2309   -6522.6244    624.26489    19227.767    4.1469195 
    4300      832.046   -6615.5517   -6522.7357      384.127    19222.287    4.1644249 
    4310    834.52587    -6615.885   -6522.7924   -35.418658    19217.311    4.1809015 
    4320    836.55702   -6616.1072    -6522.788    274.22382    19212.472     4.198062 
    4330    828.85138   -6615.1606   -6522.7009     1096.186    19208.096    4.2149384 
    4340    869.94809   -6619.5922   -6522.5482    895.78021    19204.868    4.2285059 
    4350     892.0636    -6621.904   -6522.3929    778.50321    19202.682    4.2423649 
    4360     874.8326   -6619.8876   -6522.2987    1064.0765    19201.422    4.2571296 
    4370    860.76601   -6618.2598   -6522.2401     735.9897    19201.244    4.2649645 
    4380    857.43777   -6617.8351   -6522.1866    377.14316    19201.846    4.2650153 
    4390    841.26748   -6615.9555   -6522.1109     494.7648    19202.901     4.267658 
    4400    836.49881   -6615.3048   -6521.9921     196.9711    19204.406    4.2810118 
    4410    855.07386   -6617.1947   -6521.8099   -344.07891    19206.072    4.3032777 
    4420    869.14557   -6618.5259   -6521.5714   -591.65679    19207.387    4.3241159 
    4430    875.22179   -6618.9447   -6521.3124   -641.40104    19208.061    4.3382152 
    4440    880.80859   -6619.3149   -6521.0594   -653.78273    19208.056    4.3496408 
    4450    885.15027   -6619.5653   -6520.8255     -610.942    19207.375    4.3648602 
    4460    878.58039   -6618.6256   -6520.6186   -116.84471    19206.098    4.3835255 
    4470     847.2933   -6614.9347   -6520.4178    1090.0078    19204.799    4.4050924 
    4480    848.25951   -6614.7979   -6520.1732    1702.2815    19204.632    4.4298425 
    4490    863.77219    -6616.221   -6519.8659    1780.4662    19206.235    4.4559885 
    4500    859.04663   -6615.3481   -6519.5201    1926.9979    19209.709    4.4805347 
    4510    854.55186   -6614.4694   -6519.1429    1779.2174    19215.126    4.5002641 
    4520    866.02662   -6615.3172   -6518.7106    1274.4512    19222.299    4.5133923 
    4530    891.73381   -6617.7003   -6518.2261    753.69712    19230.696    4.5221674 
    4540    900.83088   -6618.2357   -6517.7467    434.57492    19239.743     4.534249 
    4550    894.81903   -6617.1489   -6517.3305    531.20713    19249.113    4.5551931 
    4560    882.09385   -6615.3695   -6516.9706    901.25024     19258.89    4.5820843 
    4570    897.95035   -6616.8115   -6516.6438    904.93318     19269.39    4.6119016 
    4580    899.15894   -6616.6647   -6516.3621    1128.6462     19280.67     4.644199 
    4590    870.41021   -6613.2272   -6516.1316    1794.3557    19293.004    4.6758932 
    4600    880.65819   -6614.1637    -6515.925    1305.9262     19306.91    4.7050999 
    4610    885.59652   -6614.5063   -6515.7167     412.1703    19321.927    4.7320236 
    4620    910.32259   -6617.0961   -6515.5482   -567.05974    19337.086    4.7555501 
    4630    904.21687   -6616.3181   -6515.4514   -706.76343    19351.441    4.7806132 
    4640    882.65589   -6613.9123   -6515.4507     -843.661    19364.762    4.8053244 
    4650    881.34513   -6613.8228   -6515.5074   -1599.2745    19376.869    4.8264823 
    4660    900.16405   -6616.0528   -6515.6382    -2039.349    19387.041    4.8517188 
    4670    886.34185   -6614.7372   -6515.8644    -1396.508    19394.941    4.8845258 
    4680    890.40223   -6615.5336   -6516.2079   -1157.2917    19401.149    4.9169226 
    4690    886.33453   -6615.5367   -6516.6647   -1172.0109    19405.981    4.9426268 
    4700    867.32123    -6613.982    -6517.231   -1390.2658    19409.439    4.9615863 
    4710     850.0798   -6612.6911   -6517.8634   -1873.8943    19411.313     4.977913 
    4720    843.16279   -6612.5755   -6518.5194   -1885.4729    19411.179    4.9945122 
    4730    850.90304   -6614.1026   -6519.1831   -1549.0216    19409.025    5.0118333 
    4740    844.22092   -6614.0167   -6519.8425   -1135.2699    19405.222    5.0338387 
    4750     837.9306   -6613.9392   -6520.4668    -979.0825    19400.226    5.0572136 
    4760     844.3765   -6615.2349   -6521.0434   -1371.4804    19394.196    5.0721272 
    4770    861.31395   -6617.6657   -6521.5849    -2299.898      19386.7    5.0750423 
    4780    866.83129   -6618.8254    -6522.129   -2667.0852    19376.855    5.0725687 
    4790    828.11148   -6615.0114   -6522.6343    -1342.547    19364.437    5.0706922 
    4800    813.49565   -6613.7755   -6523.0289    54.595186    19350.739    5.0692785 
    4810    832.50854   -6616.1832   -6523.3156    787.86321    19337.201    5.0684532 
    4820    823.35592   -6615.3485   -6523.5019    1587.8527    19324.701    5.0701873 
    4830     838.6318   -6617.1588   -6523.6082    1827.8626    19314.025      5.07299 
    4840    864.86588   -6620.1463   -6523.6692    1198.7932    19305.381    5.0737108 
    4850    860.34312   -6619.6984   -6523.7258    301.13402    19298.109    5.0709192 
    4860    844.05066   -6617.9319   -6523.7767   -23.493359    19291.295    5.0635331 
    4870    847.83029   -6618.3694   -6523.7927    374.80868    19284.601    5.0529873 
    4880    859.07644   -6619.6122   -6523.7809     572.1329    19278.334     5.046538 
    4890    845.61807   -6618.0718   -6523.7418    753.46335     19272.75    5.0526833 
    4900     858.3372   -6619.4256   -6523.6768    241.07334    19267.962    5.0735277 
    4910    885.44189   -6622.3791   -6523.6067    -135.1976    19263.485    5.1049589 
    4920    886.15807   -6622.4261   -6523.5739    423.36962    19259.004    5.1375534 
    4930    882.85531   -6622.0798    -6523.596    884.88293    19255.002    5.1644222 
    4940    883.60072   -6622.2365   -6523.6696     1182.848     19251.98     5.186885 
    4950     875.0829   -6621.4185   -6523.8017    1566.0466    19250.275     5.206916 
    4960    854.00179   -6619.2564   -6523.9912    2062.5403    19250.276    5.2256072 
    4970    834.35054   -6617.2624   -6524.1893    2317.3925    19252.482    5.2445068 
    4980    850.65481   -6619.2744   -6524.3825    1786.6759    19257.084    5.2670743 
    4990    860.30322   -6620.5496   -6524.5814    1210.6235    19263.581    5.2931863 
    5000    865.38143   -6621.3578   -6524.8232    1029.1235    19271.387    5.3179539 
Loop time of 2391.98 on 16 procs for 3000 steps with 864 atoms

Performance: 0.108 ns/day, 221.480 hours/ns, 1.254 timesteps/s
97.7% CPU use with 16 MPI tasks x 1 OpenMP threads

MPI task timing breakdown:
Section |  min time  |  avg time  |  max time  |%varavg| %total
---------------------------------------------------------------
Pair    | 1522.8     | 2039.4     | 2340.4     | 496.4 | 85.26
Bond    | 0.0002687  | 0.0010438  | 0.0027001  |   1.9 |  0.00
Neigh   | 0.033414   | 0.044194   | 0.059059   |   3.2 |  0.00
Comm    | 24.166     | 277.16     | 799.73     |1276.4 | 11.59
Output  | 0.28566    | 0.40682    | 0.47422    |   5.5 |  0.02
Modify  | 5.8448     | 74.979     | 136.96     | 617.7 |  3.13
Other   |            | 0.01491    |            |       |  0.00

Nlocal:        54.0000 ave          66 max          44 min
Histogram: 4 0 0 2 3 3 0 1 2 1
Nghost:        522.125 ave         640 max         446 min
Histogram: 2 1 4 4 1 1 1 0 0 2
Neighs:         0.00000 ave           0 max           0 min
Histogram: 16 0 0 0 0 0 0 0 0 0
FullNghs:      2452.38 ave        3645 max        1590 min
Histogram: 4 0 1 2 4 0 4 0 0 1

Total # of neighbors = 39238
Ave neighs/atom = 45.414352
Ave special neighs/atom = 0.0000000
Neighbor list builds = 300
Dangerous builds = 300
Setting up Verlet run ...
  Unit style    : metal
  Current step  : 5000
  Time step     : 0.001
Per MPI rank memory allocation (min/avg/max) = 8.901 | 8.909 | 8.917 Mbytes
Step Temp PotEng TotEng Press Volume c_msd[4] 
    5000    865.38143   -6621.3578   -6524.8232    1029.1235    19271.387    5.3179539 
    5010    854.69432   -6620.1663   -6524.8239    1257.3358    19271.985    5.3417031 
    5020     843.6135   -6618.9157   -6524.8094    937.74581    19273.882    5.3655581 
    5030      849.944   -6619.5716   -6524.7591    421.20086    19276.785    5.3890416 
    5040    848.00414    -6619.268   -6524.6718    209.58288    19280.169    5.4104902 
    5050     842.2051   -6618.4981   -6524.5488    333.58664    19283.825    5.4289636 
    5060    846.78436   -6618.8373   -6524.3772    480.63443    19287.879    5.4433522 
    5070    869.28304   -6621.1302   -6524.1604    174.30898    19292.429    5.4512283 
    5080    886.51525    -6622.829   -6523.9369    -154.8943    19297.164    5.4559823 
    5090    874.49881   -6621.2862   -6523.7345    406.81389    19301.847    5.4630191 
    5100    874.77514   -6621.1394   -6523.5569    829.87729    19306.962    5.4737467 
    5110    863.34408   -6619.6893    -6523.382     1152.627    19312.999    5.4889339 
    5120     860.6011   -6619.1945   -6523.1931    962.03976    19320.258    5.5023483 
    5130    865.31748    -6619.497   -6522.9695    625.94789    19328.585    5.5121561 
    5140    860.31197    -6618.681   -6522.7119     235.0081    19337.611    5.5260628 
    5150    841.45151    -6616.261   -6522.3958   -84.463968    19346.951     5.550989 
    5160    835.31276   -6615.1685   -6521.9881   -356.79705    19356.255     5.585985 
    5170    841.57164   -6615.3244   -6521.4458   -555.15524    19365.226    5.6250612 
    5180    856.94346   -6616.3568   -6520.7635   -473.46169    19373.669    5.6617752 
    5190    860.00251   -6615.9001   -6519.9656    -15.13872    19381.685    5.6929735 
    5200    861.58752   -6615.2004   -6519.0891    127.02009    19389.711    5.7172335 
    5210    875.52126   -6615.8439   -6518.1782    -217.4773    19397.873     5.735164 
    5220    870.47916   -6614.3915   -6517.2883   -226.34766    19405.899    5.7483486 
    5230    878.21672   -6614.4359   -6516.4695   -518.51947    19413.695     5.754107 
    5240    871.79535   -6612.9955   -6515.7454    -619.5248    19420.989     5.758149 
    5250     861.3102   -6611.2106   -6515.1301   -176.17412    19427.712    5.7674891 
    5260    855.36008   -6610.0107    -6514.594    300.64903    19434.292    5.7806689 
    5270    862.63736   -6610.3506   -6514.1221    468.65249    19441.218    5.7919315 
    5280    878.67368   -6611.7282   -6513.7108    257.06155    19448.669    5.8029391 
    5290    873.09116   -6610.7647   -6513.3701    85.256134    19456.467    5.8176499 
    5300      870.717   -6610.2163   -6513.0865   -502.55836    19464.376    5.8378468 
    5310    892.04166   -6612.3602   -6512.8516    -1468.446    19471.741    5.8673028 
    5320    907.50268   -6613.9316   -6512.6983   -1734.8934    19477.608      5.90941 
    5330    887.73041   -6611.6719   -6512.6442   -1375.8274    19481.663    5.9597892 
    5340    867.44471    -6609.417   -6512.6522   -1166.9271    19484.209    6.0041677 
    5350     866.5226   -6609.3382   -6512.6763    -1429.415    19485.418    6.0326788 
    5360    862.57247   -6608.9336   -6512.7123   -1149.0183     19485.11    6.0485074 
    5370    853.58438   -6607.9604   -6512.7418   -556.37426    19483.575    6.0541914 
    5380    857.99652   -6608.4703   -6512.7595   -270.94554    19481.391    6.0495842 
    5390    865.53707   -6609.3211   -6512.7692   -522.11959    19478.835    6.0390054 
    5400    875.40991   -6610.4393    -6512.786   -1092.0143    19475.656    6.0335838 
    5410    884.32242   -6611.4835    -6512.836   -1532.6565    19471.254    6.0406288 
    5420    879.80267   -6611.0761   -6512.9328    -1154.777    19465.209    6.0508355 
    5430     871.3593   -6610.2688   -6513.0674   -416.31221     19457.89    6.0509138 
    5440    872.43279   -6610.5485   -6513.2273   -436.87313    19449.981    6.0385179 
    5450    878.05426   -6611.3709   -6513.4226   -769.05124    19441.509    6.0221431 
    5460    874.81223    -6611.254   -6513.6673   -968.40859    19432.119    6.0111567 
    5470    863.04149   -6610.2252   -6513.9516   -770.81105    19421.611    6.0100221 
    5480       868.24   -6611.1132   -6514.2598   -317.75856    19410.186     6.015286 
    5490    874.93615   -6612.2174   -6514.6169    102.11806    19398.304     6.020294 
    5500    844.84007   -6609.2515   -6515.0083    752.65239    19386.473    6.0220231 
    5510    857.59034   -6611.0782   -6515.4127    715.49258    19375.286    6.0216855 
    5520    883.42842   -6614.4025   -6515.8547    122.37153    19364.701    6.0238247 
    5530    885.68737   -6615.2047    -6516.405    363.83979    19354.218    6.0311626 
    5540    859.81824   -6612.9532   -6517.0392    1423.3334    19344.118    6.0413512 
    5550    858.48691   -6613.4964   -6517.7309    1808.7151    19335.395    6.0513952 
    5560    849.87019   -6613.2528   -6518.4485    2171.2475    19328.582    6.0680138 
    5570    846.87104   -6613.6374   -6519.1676    2110.5486    19324.026     6.091057 
    5580    838.88188   -6613.4417   -6519.8631    1755.3944    19321.718    6.1179613 
    5590    828.00235    -6612.873   -6520.5081    1319.5797    19321.292    6.1458167 
    5600    820.28931   -6612.5626   -6521.0581    830.92903    19322.313    6.1706805 
    5610    828.75028   -6613.9645   -6521.5162    384.79183    19324.258    6.1889053 
    5620    816.82409   -6612.9929   -6521.8749     889.2441     19326.76    6.1964179 
    5630    821.24282   -6613.7337   -6522.1229    1029.8348    19330.229    6.1920696 
    5640    839.87155   -6615.9641   -6522.2751    439.83039      19334.8    6.1860689 
    5650    849.98932   -6617.1889   -6522.3713   -218.89985    19339.895    6.1942654 
    5660    857.00533   -6618.0389   -6522.4387   -403.74482    19344.854    6.2225434 
    5670    841.05483   -6616.3009     -6522.48    -315.4644    19349.455    6.2632901 
    5680    825.80729   -6614.5891    -6522.469   -620.23955    19353.715    6.3027225 
    5690    844.32752   -6616.5805   -6522.3945   -1243.9211    19357.295    6.3304624 
    5700    846.37595   -6616.6809   -6522.2664   -1166.2151    19359.628    6.3451879 
    5710    866.00803   -6618.7182   -6522.1137   -853.34626    19360.728    6.3532777 
    5720    895.53748   -6621.8678   -6521.9693    -635.5631    19360.898    6.3671929 
    5730     895.4606   -6621.7909    -6521.901    -383.0468    19360.384    6.3915604 
    5740    868.49673   -6618.7845   -6521.9024   -297.31354    19359.435    6.4151898 
    5750    855.99548   -6617.4177   -6521.9302   -604.90102    19358.122    6.4297671 
    5760     832.3621   -6614.7807   -6521.9295   -631.23267    19356.181    6.4388068 
    5770    820.25549   -6613.3658    -6521.865   -237.35932     19353.58    6.4466148 
    5780    828.72485   -6614.1679   -6521.7224    257.38358    19350.698    6.4571769 
    5790    840.83285    -6615.301   -6521.5048    655.74386    19348.056    6.4724259 
    5800     862.4069   -6617.4398    -6521.237    604.68543    19346.061    6.4894769 
    5810     869.4272   -6617.9348   -6520.9488    514.39442    19344.712    6.5058783 
    5820    871.80749   -6617.9139   -6520.6624    390.43305    19343.898    6.5202644 
    5830    874.98941   -6617.9834    -6520.377    350.90937    19343.523    6.5277523 
    5840    870.36766   -6617.1818    -6520.091     328.9456    19343.525    6.5231777 
    5850    854.53626   -6615.0988    -6519.774    930.03058    19343.959    6.5110283 
    5860    858.92358   -6615.1951   -6519.3809    1453.1791    19345.409    6.5035217 
    5870    873.93849    -6616.338   -6518.8488    1927.1016    19348.486    6.5081059 
    5880    902.89692   -6618.8643   -6518.1448    1878.8522    19353.676    6.5250839 
    5890    904.93906   -6618.1944   -6517.2471     1409.634    19360.952    6.5552887 
    5900    893.10497   -6615.7995   -6516.1723    1367.1178    19369.917    6.5975319 
    5910    872.26501   -6612.2422   -6514.9398    1891.8852    19380.571    6.6439579 
    5920    874.81184   -6611.2206   -6513.6341     2122.078    19393.435    6.6810836 
    5930    905.49309   -6613.3534   -6512.3443    1537.2452    19408.726     6.703334 
    5940    920.61717    -6613.928   -6511.2318      940.262    19425.932    6.7160114 
    5950    910.04511    -6611.918   -6510.4011    757.64821    19444.473     6.732313 
    5960      881.494   -6608.1512   -6509.8192    981.89455    19464.185    6.7598475 
    5970    892.64035   -6608.9695   -6509.3941    199.00163    19485.154    6.7980468 
    5980    902.40606   -6609.7403   -6509.0756   -676.08314    19506.648     6.846053 
    5990    894.84798   -6608.6928   -6508.8712   -763.39296    19527.768    6.8935286 
    6000    888.00845   -6607.8275   -6508.7688   -310.45649     19548.38    6.9279882 
    6010    887.38355   -6607.7298   -6508.7408   -243.63376    19568.878     6.950972 
    6020    880.05714   -6606.9332   -6508.7615   -355.62776     19589.37    6.9694087 
    6030    888.98433    -6607.978   -6508.8105   -1299.1651    19609.644    6.9911093 
    6040    907.64885   -6610.1566    -6508.907   -2645.8464    19628.661    7.0206456 
    6050    900.13901   -6609.4957   -6509.0839   -3074.5651    19645.022    7.0557695 
    6060    888.16343   -6608.4159   -6509.3399   -2883.1279     19658.16    7.0916709 
    6070    888.72994   -6608.8124   -6509.6733   -3048.1804    19668.134    7.1235357 
    6080    873.16746    -6607.463   -6510.0599   -3365.6919    19674.771    7.1487758 
    6090    859.41921   -6606.3386   -6510.4691   -3497.0798    19677.708    7.1625558 
    6100    867.37485   -6607.6457   -6510.8887   -4209.7541    19676.657    7.1647438 
    6110      882.651   -6609.8067   -6511.3457   -4921.2671    19670.827    7.1629767 
    6120    884.20006   -6610.4951   -6511.8613   -4710.4414    19659.451    7.1630596 
    6130     888.1065    -6611.506   -6512.4364   -3941.6521    19642.668    7.1664675 
    6140    885.51845   -6611.8411   -6513.0602   -2867.9761     19621.29    7.1722582 
    6150      866.479   -6610.3457   -6513.6886   -1734.4408    19596.468    7.1818527 
    6160    859.52706   -6610.1701   -6514.2886   -1068.0745    19569.388    7.1945492 
    6170     847.5393   -6609.3704   -6514.8261   -366.29586    19540.886    7.2028838 
    6180     844.3512   -6609.4718   -6515.2832   -29.861966    19511.682    7.1964427 
    6190    868.28725   -6612.5462   -6515.6875    -92.21684    19482.142    7.1802394 
    6200    873.84529   -6613.5487     -6516.07    271.14153    19452.318    7.1689337 
    6210    862.92912   -6612.6942   -6516.4332    738.04834    19422.575    7.1668282 
    6220    855.49313   -6612.1929   -6516.7614    1329.9249    19393.437    7.1747534 
    6230    853.12665   -6612.2063   -6517.0387    1995.5935    19365.567    7.1927098 
    6240    853.78622   -6612.5048   -6517.2637    2528.1423    19339.707    7.2134446 
    6250    859.11666   -6613.2885   -6517.4528    2811.8914    19316.422    7.2280937 
    6260     873.7864   -6615.0995   -6517.6274    3047.7983     19296.06    7.2333331 
    6270    880.28128   -6616.0244   -6517.8277    2850.9743    19278.825    7.2324488 
    6280    854.75258   -6613.3906   -6518.0417    3218.2673    19264.653    7.2332515 
    6290    857.97322   -6613.9458   -6518.2376    3400.6958    19253.862    7.2377831 
    6300    880.80909   -6616.6949   -6518.4393    2717.1053    19246.573     7.243616 
    6310    867.78487   -6615.4684   -6518.6657    2378.1102    19242.224    7.2478976 
    6320    863.54084   -6615.2375   -6518.9082    2147.7573    19240.429    7.2486736 
    6330    866.28692   -6615.7847   -6519.1491    2308.1737    19241.005     7.245986 
    6340    867.87079   -6616.1999   -6519.3876    2284.1481    19244.078    7.2436932 
    6350    891.98376   -6619.1511   -6519.6489    1783.8657    19249.615    7.2470684 
    6360    875.76966   -6617.6473   -6519.9538    1982.2382    19257.218    7.2654438 
    6370    850.45295   -6615.1441   -6520.2748     2339.785    19267.047    7.3065699 
    6380    847.17317   -6615.0731   -6520.5697    1979.5801    19279.436     7.364767 
    6390    834.72938   -6613.9278   -6520.8125    1689.4842    19294.143    7.4218274 
    6400    824.73272   -6612.9908   -6520.9906    1297.1221    19310.841    7.4645695 
    6410    825.05031   -6613.1234   -6521.0878    924.48193    19329.141     7.495755 
    6420    820.98284   -6612.6804   -6521.0985    890.31783    19348.694     7.523016 
    6430     831.5261   -6613.7871   -6521.0291    657.05679    19369.418    7.5493765 
    6440      857.283   -6616.5235   -6520.8923    186.21429    19391.073    7.5767792 
    6450    858.84833   -6616.5342   -6520.7284    297.99102    19413.258    7.6060652 
    6460    855.73059   -6616.0053   -6520.5473    57.169927    19435.987    7.6314693 
    6470    866.79698   -6617.0236   -6520.3311    -666.8116    19458.971    7.6507842 
    6480    883.94025   -6618.7034   -6520.0985   -1401.1328    19481.462    7.6690432 
    6490    875.14501   -6617.5018    -6519.878   -1717.9804    19502.672    7.6825098 
    6500     861.4329   -6615.7589   -6519.6647   -1442.7644    19522.268    7.6836709 
    6510    884.95004   -6618.1546   -6519.4371   -1907.3896    19540.355    7.6731959 
    6520    880.94835   -6617.4633   -6519.1922   -2255.8683     19556.52    7.6626803 
    6530    874.42778   -6616.4762   -6518.9325   -2616.2578    19570.318    7.6649284 
    6540    871.18047   -6615.7924   -6518.6109   -3094.5298     19581.31    7.6830182 
    6550    878.10111   -6616.1791   -6518.2256   -3318.5586    19588.967    7.7137249 
    6560    870.83396   -6614.8993   -6517.7564   -3156.4725    19593.008    7.7494376 
    6570    872.49548   -6614.5216   -6517.1934   -2638.5204    19593.583    7.7789292 
    6580    878.54738   -6614.5302   -6516.5269    -1890.098    19591.235    7.7952419 
    6590    883.35102   -6614.3334   -6515.7942   -1281.2311    19586.719    7.7977781 
    6600    880.88131   -6613.2982   -6515.0345   -617.45664    19580.737    7.7930247 
    6610      867.792   -6611.0789   -6514.2754   -40.541588    19574.013    7.7851667 
    6620    865.30818   -6610.0519   -6513.5255    155.80998    19567.149    7.7723673 
    6630    882.94965   -6611.2833    -6512.789    4.8286463    19560.351    7.7586109 
    6640    896.65079   -6612.1323   -6512.1096    194.58016    19553.527    7.7580856 
    6650    886.42242   -6610.4086   -6511.5269    812.62271    19546.887    7.7768043 
    6660    871.94317   -6608.2998   -6511.0332    1253.7275    19541.073     7.812499 
    6670    864.85683   -6607.0622   -6510.5862    1115.3665    19536.563    7.8541983 
    6680    882.11162   -6608.5745   -6510.1736    566.51852    19533.213    7.8899676 
    6690    892.33933   -6609.3548   -6509.8131    701.84871    19530.542    7.9216738 
    6700    879.43172   -6607.6309    -6509.529    1262.4672    19528.661    7.9547915 
    6710    877.75409    -6607.207   -6509.2922    1380.1179    19528.128     7.991799 
    6720    903.17531   -6609.8694   -6509.1189     1085.784    19529.089    8.0335591 
    6730    907.95952    -6610.314   -6509.0298    952.41777    19531.297    8.0830305 
    6740    887.03604   -6607.9873   -6509.0371    1317.8008    19534.649    8.1378853 
    6750    881.67594    -6607.457   -6509.1047    2005.1747    19539.574    8.1922915 
    6760    915.32624   -6611.3399   -6509.2339    1548.4144    19546.698    8.2480041 
    6770    923.85404     -6612.54   -6509.4827    911.31219    19555.652    8.3078194 
    6780    904.90188   -6610.8144   -6509.8712    516.69607    19565.797    8.3701712 
    6790    910.34265    -6611.926   -6510.3759    -614.8348    19576.583    8.4296845 
    6800    899.62832   -6611.3404   -6510.9855   -936.65022    19586.945      8.48471 
    6810    886.31143   -6610.5459   -6511.6766   -1143.8825    19596.418    8.5352641 
    6820    886.48284   -6611.3024   -6512.4139   -2144.1155    19604.643    8.5805311 
    6830    869.61896   -6610.1605   -6513.1532   -2584.6395    19610.628    8.6182243 
    6840     871.0185   -6611.0265   -6513.8631   -2511.6168     19613.82    8.6443379 
    6850    875.82038   -6612.2396   -6514.5405   -1827.8019    19614.294    8.6622923 
    6860    868.20538   -6612.0174   -6515.1678   -1242.2079    19612.715    8.6810557 
    6870    871.02076   -6612.9012   -6515.7375   -1555.7291    19609.632    8.7075156 
    6880    864.69872   -6612.7165   -6516.2581   -2131.7629    19604.736    8.7415693 
    6890    830.80887   -6609.3642   -6516.6862   -2108.7507    19597.444    8.7765194 
    6900    841.80027   -6610.9041        -6517   -2287.5536    19587.647    8.8022983 
    6910    866.62752    -6613.923   -6517.2494   -2221.9823    19575.161    8.8164821 
    6920    850.52723   -6612.3378   -6517.4602   -1459.4919    19560.087    8.8208934 
    6930    843.52136   -6611.7237   -6517.6276   -984.34242     19543.13    8.8154993 
    6940    841.49229   -6611.5956   -6517.7259   -311.91598    19524.883    8.8039416 
    6950    861.34922   -6613.8675   -6517.7827   -169.09722    19505.978    8.7942039 
    6960    873.39277   -6615.2654   -6517.8371   -295.09512    19486.602    8.7950476 
    6970    866.12985   -6614.5258   -6517.9077   -217.07304    19466.645    8.8069176 
    6980    850.79487   -6612.8746   -6517.9672    540.79847    19446.256    8.8205672 
    6990    852.53083   -6613.0981    -6517.997    1339.3418      19426.2    8.8290785 
    7000    865.36047   -6614.5401   -6518.0078    1674.8539    19407.305      8.82951 
    7010    862.43457   -6614.2191   -6518.0133    1995.2358    19390.017    8.8230956 
    7020     865.9737   -6614.6135   -6518.0128    1849.1118    19374.629    8.8170261 
    7030    877.19021   -6615.8851   -6518.0332    1755.0431    19361.058    8.8210814 
    7040    889.89699   -6617.3681   -6518.0988    1951.6849    19349.252    8.8371215 
    7050    883.88387    -6616.815   -6518.2164    2388.2314    19339.464    8.8566139 
    7060    878.53182   -6616.4016   -6518.4001    2929.0899    19332.155    8.8779543 
    7070     866.4046   -6615.2732   -6518.6245     3522.852    19327.949    8.9068173 
    7080    856.21746   -6614.3914    -6518.879    3530.2121    19327.476    8.9418635 
    7090    857.18424   -6614.7678   -6519.1476     3234.362    19330.853    8.9749982 
    7100    864.74588   -6615.9061   -6519.4424    3158.9794    19337.867    8.9979306 
    7110    835.00096   -6612.8976    -6519.752    3333.6423    19348.519    9.0132685 
    7120    834.08007   -6613.0858   -6520.0429    2389.1733    19362.938    9.0284221 
    7130    852.31371   -6615.3725   -6520.2957    1213.7876    19380.275    9.0474976 
    7140    850.60565   -6615.4342   -6520.5479    760.60521    19399.367    9.0777479 
    7150    848.04223   -6615.4027   -6520.8023    908.37546    19419.751    9.1192311 
    7160    863.17157   -6617.3666   -6521.0785    813.96202    19441.528    9.1625933 
    7170    851.43435   -6616.3671   -6521.3883    892.07984    19464.684    9.2044592 
    7180    830.18013   -6614.3239   -6521.7161    780.61577    19489.274    9.2383586 
    7190    838.01322   -6615.5116     -6522.03    197.77071    19515.206    9.2553183 
    7200    861.35285    -6618.423   -6522.3378   -1143.5647    19541.812    9.2658844 
    7210    855.93498     -6618.16   -6522.6792   -1846.4274     19567.73    9.2809852 
    7220    822.81654   -6614.8292   -6523.0427   -1458.9294    19592.212    9.2984846 
    7230    823.84318   -6615.2882   -6523.3873   -1478.6127    19615.488    9.3142367 
    7240    831.17468   -6616.4185   -6523.6997   -1453.1061    19637.581    9.3285586 
    7250     831.1037    -6616.703   -6523.9922   -1594.4154    19658.439    9.3457378 
    7260    811.37791   -6614.7444    -6524.234   -1433.8227    19677.947     9.363729 
    7270    812.51785   -6615.0404   -6524.4028   -1791.4331    19696.149    9.3774707 
    7280    827.78147    -6616.827   -6524.4867   -2675.9895    19712.605    9.3851289 
    7290    836.10957   -6617.7654   -6524.4961   -3204.4391    19726.369    9.3875014 
    7300    838.28125   -6617.9618   -6524.4503   -3285.3189    19736.767    9.3867335 
    7310    825.13808   -6616.3916   -6524.3462   -3110.7123    19743.625    9.3865958 
    7320    832.09146   -6616.9906   -6524.1696    -3269.364    19747.013    9.3913136 
    7330    852.88604   -6619.0538   -6523.9131   -3545.8511    19746.715    9.4039727 
    7340    848.74151   -6618.2838   -6523.6054   -3285.0509    19742.395    9.4238558 
    7350    823.18467   -6615.0624    -6523.235   -2147.2714     19734.32    9.4443977 
    7360    821.77749   -6614.4387   -6522.7682   -1254.0039    19723.605    9.4652057 
    7370    818.83905   -6613.5155   -6522.1727    -1063.488    19711.188    9.4907027 
    7380    830.64635   -6614.1266   -6521.4667   -1608.1876     19697.24    9.5158836 
    7390    838.61169   -6614.2206   -6520.6722   -1903.2076    19681.224     9.530003 
    7400    852.31507   -6614.9318   -6519.8547   -1954.5068    19662.756    9.5278222 
    7410    869.26761   -6616.0293   -6519.0611   -1580.3045    19641.747    9.5101022 
    7420    864.82706   -6614.8097   -6518.3369   -193.48318    19618.667    9.4846438 
    7430    864.76078   -6614.1586   -6517.6932     173.6102     19594.82    9.4640824 
    7440    870.18802   -6614.1958    -6517.125    -26.18756    19570.689    9.4540296 
    7450    881.15047   -6614.9375   -6516.6439   -293.55857    19546.089    9.4499686 
    7460    885.11202   -6614.9948   -6516.2593   -436.70859     19520.73    9.4437318 
    7470    874.63804   -6613.5305   -6515.9633    371.30722    19494.535    9.4291752 
    7480     865.7466   -6612.2766   -6515.7013    1425.0468    19468.332    9.4041501 
    7490     877.8586   -6613.3926   -6515.4662    2079.4334    19443.225    9.3682068 
    7500     889.7621    -6614.519   -6515.2647    2864.9927     19420.04    9.3290182 
    7510    896.93692   -6615.1866    -6515.132    3358.8338    19399.641    9.2940626 
    7520    903.39699   -6615.8602   -6515.0849    3428.7753    19382.596    9.2667862 
    7530    898.80641   -6615.4027   -6515.1395    3626.6839    19369.064    9.2498776 
    7540    872.87307    -6612.641   -6515.2707    4447.0867    19359.389    9.2461495 
    7550    874.90882   -6613.0461   -6515.4488    4368.2124    19354.364     9.254588 
    7560    868.05389   -6612.4881   -6515.6554    3657.6587    19354.011    9.2672639 
    7570    865.99953    -6612.485   -6515.8814     2930.082    19357.677     9.271622 
    7580    868.01815   -6612.9374   -6516.1087    2199.5359    19364.633    9.2693964 
    7590    884.53153   -6615.0303   -6516.3594     1378.112    19374.118    9.2732915 
    7600    886.18635    -6615.511   -6516.6556    833.50969    19385.321     9.283903 
    7610    892.37299   -6616.5769   -6517.0314     526.5873    19397.659    9.2914648 
    7620    885.31867   -6616.2463   -6517.4877    492.47597    19410.803    9.2900935 
    7630    859.25058   -6613.8427    -6517.992    975.84135    19424.767    9.2886508 
    7640    840.00364   -6612.1883   -6518.4846    945.68744    19439.971    9.3014006 
    7650    842.77404   -6612.9449   -6518.9322    85.291089    19456.392    9.3286111 
    7660    854.10209   -6614.6212   -6519.3449   -508.52473    19473.219    9.3631942 
    7670    845.51536   -6614.0549   -6519.7364   -511.06615    19489.799    9.3967596 
    7680    838.94675   -6613.6826   -6520.0968   -350.72376    19506.079    9.4192907 
    7690    847.82887   -6614.9936    -6520.417   -202.75458    19522.205    9.4269344 
    7700    854.46213   -6616.0208   -6520.7042    2.4963937    19538.355    9.4284668 
    7710    865.64211   -6617.5463   -6520.9826   -300.57868    19554.679    9.4353793 
    7720    860.00463   -6617.1905   -6521.2557   -1041.8535     19570.83    9.4519678 
    7730    839.37485   -6615.1335      -6521.5   -1670.4669    19586.033    9.4774463 
    7740    845.57309   -6616.0338   -6521.7089   -2344.0329    19599.522    9.5047875 
    7750    845.50206   -6616.2038   -6521.8867   -2669.1736    19610.559    9.5342167 
    7760    840.24711    -6615.785   -6522.0542     -2539.39    19618.746    9.5648689 
    7770    835.65401   -6615.4277   -6522.2092   -2145.3766    19624.175    9.5892197 
    7780     829.2452    -6614.839   -6522.3354    -1952.788    19627.203    9.6037717 
    7790    826.98171   -6614.6463   -6522.3952   -1456.0631    19628.105    9.6115971 
    7800    838.93691   -6615.9555   -6522.3709     -1244.07    19627.335    9.6187636 
    7810    838.13257   -6615.7646   -6522.2697   -1083.8849    19625.159    9.6306052 
    7820    837.90089   -6615.5649   -6522.0958   -993.00698    19621.747    9.6443293 
    7830    832.90368   -6614.7123   -6521.8006   -1080.2623    19617.193    9.6586899 
    7840    855.11833   -6616.7547    -6521.365   -1478.0672    19611.378    9.6760499 
    7850    848.90833   -6615.4727   -6520.7757   -1652.7797    19603.913    9.6985909 
    7860    851.94194   -6615.0819   -6520.0465    -1686.481    19594.582    9.7255091 
    7870    846.26054   -6613.5702   -6519.1686   -1085.2374    19583.416     9.761394 
    7880    857.11899   -6613.7963   -6518.1834   -106.20087    19571.051    9.8025011 
    7890    875.26965   -6614.7786   -6517.1409    520.19965    19558.491    9.8410582 
    7900    889.60368   -6615.3879   -6516.1513    754.07664    19546.437    9.8637892 
    7910    921.89366   -6618.1238   -6515.2851    629.34303    19535.175    9.8668476 
    7920    931.37521    -6618.506   -6514.6097       934.82    19524.637    9.8612278 
    7930    914.06101   -6616.1181   -6514.1532    1511.0877    19515.137    9.8566113 
    7940    908.35149   -6615.1948   -6513.8668    2062.1997    19507.299    9.8585136 
    7950    893.25258   -6613.3456   -6513.7019    2496.8985     19501.72    9.8799672 
    7960    882.13151   -6612.0258   -6513.6227    2718.5418    19498.885    9.9201225 
    7970    899.48801   -6613.9507   -6513.6114    2472.7443     19499.01    9.9625266 
    7980      902.513   -6614.3606   -6513.6839    2518.9237     19501.91    9.9947726 
    7990     886.0602   -6612.6812   -6513.8398    2706.7867    19507.641    10.012278 
    8000    871.92915   -6611.3171   -6514.0521    2194.6191    19516.319    10.026551 
    8010    863.76955   -6610.6394   -6514.2846    1900.0578    19527.499    10.043358 
    8020    883.49084   -6613.0976   -6514.5428    1361.9245    19540.813    10.060705 
    8030    882.25531   -6613.2582   -6514.8413    805.92829    19555.692    10.083339 
    8040    868.39086   -6612.0508   -6515.1805     457.2496    19571.568    10.107197 
    8050    863.19845   -6611.8255   -6515.5345   -344.53975    19587.994     10.12348 
    8060    856.73052   -6611.4598   -6515.8902   -738.77458    19604.168    10.134526 
    8070    839.09946   -6609.8247   -6516.2219   -789.57929    19619.609    10.143101 
    8080    850.06914   -6611.3463   -6516.5198   -1470.4655    19634.134    10.148362 
    8090    859.61044    -6612.688   -6516.7972   -2159.2615    19647.054    10.162534 
    8100    845.60762    -6611.395   -6517.0661   -2065.0895    19657.685    10.193617 
    8110    841.18855   -6611.1524   -6517.3166    -1690.724    19666.057     10.23119 
    8120    861.13166   -6613.6115    -6517.551   -1609.4442    19672.518     10.26316 
    8130    872.56085   -6615.1315    -6517.796   -1683.8981    19677.164    10.288013 
    8140    880.23387   -6616.2769   -6518.0855   -1834.3305    19679.914    10.310124 
    8150    878.69305   -6616.4515    -6518.432   -1484.1047    19680.669     10.33307 
    8160    855.74831   -6614.2702   -6518.8102   -565.93174    19679.796    10.358444 
    8170    841.17998   -6613.0206   -6519.1857    537.65942    19678.317    10.385452 
    8180    845.34866   -6613.8527   -6519.5528    643.18194    19677.356    10.412943 
    8190     829.4936   -6612.4368   -6519.9056    277.33019    19677.076    10.437558 
    8200    807.49221    -6610.294    -6520.217    496.46451    19677.185    10.462287 
    8210    803.36812   -6610.0506   -6520.4337    195.11213    19677.798    10.498544 
    8220     829.5403   -6613.0833   -6520.5468   -724.13138    19678.574    10.545005 
    8230    840.71812   -6614.3729   -6520.5895   -1162.3768    19678.582    10.589959 
    8240    827.16083   -6612.8557   -6520.5846     -1143.17    19677.329    10.629083 
    8250    852.30093   -6615.6072   -6520.5318   -1823.8163    19674.718    10.662216 
    8260     853.1944   -6615.6002   -6520.4251   -1674.0012    19670.166    10.687058 
    8270    846.96184   -6614.7521   -6520.2722   -1148.9254     19663.79    10.701356 
    8280    853.76995   -6615.2848   -6520.0455   -1573.4501    19656.046    10.710581 
    8290     852.1363   -6614.8004   -6519.7433   -1791.2641    19646.612    10.719681 
    8300    861.35403   -6615.4452   -6519.3599    -1589.748    19635.282    10.730212 
    8310    861.33064   -6614.9606   -6518.8779   -1078.9144    19622.297    10.748668 
    8320    867.03522   -6615.0254   -6518.3063   -599.80488    19608.215    10.780773 
    8330      866.696   -6614.3407   -6517.6594    118.76201     19593.65    10.823931 
    8340    865.70071   -6613.5341   -6516.9639    930.61616    19579.404    10.866979 
    8350    887.91929   -6615.2895   -6516.2407    980.38096    19566.286    10.895714 
    8360    892.95454   -6615.1429   -6515.5325    758.07547    19554.398    10.909455 
    8370    885.78366   -6613.7053   -6514.8948    1003.9549    19543.565    10.916896 
    8380    884.59891   -6613.0073    -6514.329    1612.9657    19534.052    10.921922 
    8390    884.54947     -6612.51   -6513.8372     2354.681    19526.478    10.934112 
    8400    864.72468   -6609.8701   -6513.4088    3119.1048     19521.63    10.962966 
    8410      858.985   -6608.8361    -6513.015    3647.8671    19520.287    11.004364 
    8420    881.84355   -6611.0074   -6512.6365    3496.0907    19522.914    11.049003 
    8430     902.6213   -6612.9899   -6512.3011    2784.9816    19529.289    11.094959 
    8440    888.45654   -6611.1568   -6512.0481    2520.4461    19538.675    11.140704 
    8450    881.21639   -6610.1675   -6511.8665    2300.2624    19550.678    11.178282 
    8460    891.45878   -6611.1759   -6511.7324    1637.3073    19564.945    11.209325 
    8470    892.36219   -6611.1969   -6511.6525    901.59936    19580.744    11.243529 
    8480    890.77743    -6610.992   -6511.6244    57.169544    19597.218    11.279205 
    8490    909.86715   -6613.1669   -6511.6698   -519.53522     19613.44    11.313712 
    8500    899.28182   -6612.1365   -6511.8203    -241.9151    19628.842    11.354775 
    8510    871.49789   -6609.2777   -6512.0608   -17.319888    19643.645    11.405931 
    8520    880.79245   -6610.5925   -6512.3388   -590.24781     19658.03    11.451798 
    8530    917.74902   -6615.0792   -6512.7029   -1434.2008    19671.386    11.481521 
    8540      891.746   -6612.6747   -6513.1991   -1213.1098    19682.958    11.503841 
    8550    862.14188    -6609.955   -6513.7818   -692.45138    19692.946    11.520293 
    8560    868.51155   -6611.2765   -6514.3927   -1041.2552    19701.831    11.525004 
    8570    877.36189   -6612.9235   -6515.0525   -1186.6097    19709.369     11.51761 
[...]
   22890    861.72144   -6615.0384   -6518.9121    1137.3813    19263.997    46.109841 
   22900     867.1474   -6615.6929   -6518.9613    944.52043    19264.153    46.105839 
   22910    852.04235   -6614.0545   -6519.0079    951.87849    19265.381    46.080329 
   22920    855.14157   -6614.4368   -6519.0444    776.21989    19267.654    46.042939 
   22930    871.32778   -6616.2611   -6519.0632    560.63155    19270.834    46.011936 
   22940    886.38329   -6617.9738   -6519.0964     791.6633    19274.747    46.000437 
   22950    893.28098   -6618.8385   -6519.1916    1021.2165    19279.599     46.00266 
   22960    878.04008   -6617.2983   -6519.3516    1233.3186    19285.704    45.997949 
   22970    876.68421   -6617.3625    -6519.567    1177.8053    19293.288    45.985985 
   22980    866.66422   -6616.4923   -6519.8146    791.46735    19302.303    45.981138 
   22990    855.81142    -6615.543   -6520.0759    195.73656    19312.367     45.99763 
   23000    865.02427   -6616.8428    -6520.348    16.747956    19322.931    46.042679 
   23010    839.32218   -6614.2451   -6520.6175    656.05991    19333.829    46.116583 
   23020    814.29456   -6611.6761   -6520.8403    1256.2588    19345.692    46.199418 
   23030    824.63684   -6612.9637   -6520.9743     709.0056    19359.079    46.272999 
   23040     843.4053   -6615.1155   -6521.0324   -210.14008    19373.509    46.334156 
   23050    854.72899   -6616.3867   -6521.0404   -1122.6571     19388.04    46.385531 
   23060    874.18336   -6618.5454    -6521.029   -2325.4534    19401.636    46.438464 
   23070    870.47927   -6618.1434   -6521.0402   -2682.6129    19413.065    46.489072 
   23080    847.24551   -6615.5868   -6521.0753   -2126.4624     19421.86    46.525283 
   23090    831.17091   -6613.7922   -6521.0738   -1711.9849    19428.469    46.552938 
   23100    824.44936   -6612.9666    -6520.998   -1441.4592    19433.309    46.588951 
   23110    832.68636   -6613.7158   -6520.8283   -1702.7558    19436.588      46.6374 
   23120    854.01125   -6615.8491   -6520.5829   -2116.3599     19438.04    46.685876 
   23130    856.42897   -6615.8298   -6520.2939   -1989.7958    19437.246    46.722052 
   23140    862.62238   -6616.2058    -6519.979   -1927.1964    19434.211    46.743943 
   23150    867.56091   -6616.4221   -6519.6444   -1737.0144    19428.963    46.758379 
   23160      856.396    -6614.823   -6519.2908   -910.50698    19421.727    46.781466 
   23170    843.90702   -6613.0333   -6518.8942    88.678385    19413.346     46.82225 
   23180    860.39938   -6614.4148    -6518.436      578.073    19404.817    46.883419 
   23190    871.71933   -6615.1718   -6517.9302    1090.6939    19396.733     46.95649 
   23200    868.26081   -6614.2673   -6517.4115    1903.6923    19389.711    47.031724 
   23210    882.42354    -6615.323   -6516.8873    2245.4761    19384.595    47.108045 
   23220    890.34721   -6615.7029   -6516.3834    2073.7148    19381.781    47.174766 
   23230    866.85358   -6612.6197   -6515.9209     2388.406    19381.277    47.207691 
   23240    867.54722   -6612.2612    -6515.485    1677.6843    19383.291    47.202948 
   23250    897.01168   -6615.1131   -6515.0501    149.94046    19387.131    47.174023 
   23260     891.3041   -6614.0834   -6514.6571   -170.52606    19391.363    47.142155 
   23270    879.56634   -6612.4458   -6514.3288    137.11182    19395.551    47.106136 
   23280     863.2304   -6610.3237   -6514.0291    432.40332    19399.995    47.070053 
   23290    854.13535   -6609.0134   -6513.7333    624.27074    19405.034    47.046255 
   23300    856.36558   -6608.9402   -6513.4113    784.94068    19410.909    47.038721 
   23310    883.68906    -6611.646   -6513.0691     445.7608    19417.762    47.043949 
   23320    893.25175   -6612.3889   -6512.7453   -512.15491    19425.231    47.046778 
   23330    871.49205   -6609.6752    -6512.459   -1077.8381    19432.397    47.036605 
   23340    893.05423   -6611.8221   -6512.2005   -1872.7227     19438.53    47.022804 
   23350    923.93398   -6615.0475   -6511.9813   -2242.7516    19442.792    47.016828 
   23360    941.80336   -6616.9477   -6511.8881   -2253.6281    19444.699     47.01998 
   23370    934.66397    -6616.243   -6511.9798   -2349.2641    19444.144    47.032623 
   23380    916.22608   -6614.4832   -6512.2768   -1964.3018    19441.015    47.046638 
   23390    885.76047   -6611.5544   -6512.7465   -1265.8334    19435.649    47.046763 
   23400    856.41474   -6608.8655   -6513.3311    -813.1043    19428.711    47.026252 
   23410    849.52929   -6608.7484   -6513.9821   -517.52263    19420.672    46.982828 
   23420    865.66813   -6611.2706    -6514.704   -252.78037    19411.848    46.921646 
   23430    879.80239   -6613.6786   -6515.5354   -104.56491    19402.506    46.864326 
   23440    875.08711   -6614.0935   -6516.4762   -87.302344    19392.783    46.826991 
   23450    858.09352   -6613.1773   -6517.4557   -94.113961    19382.723    46.799419 
   23460    860.86703   -6614.4397   -6518.4087   -706.65044    19372.228    46.759631 
   23470    862.77286   -6615.5282   -6519.2846   -1204.0486    19360.699     46.69964 
   23480    859.15189   -6615.9061   -6520.0664   -1317.5458    19347.581    46.634668 
   23490    838.85766   -6614.2801   -6520.7042   -1096.8961    19332.701    46.587734 
   23500    832.70673   -6614.0644   -6521.1747   -628.63427    19316.265    46.555811 
   23510    845.39399   -6615.8104   -6521.5055   -391.27332    19298.708    46.515817 
   23520    860.41451    -6617.734   -6521.7534   -741.30265    19280.213    46.463182 
   23530    844.56105   -6616.1572   -6521.9451   -92.186683    19260.578    46.406765 
   23540    843.99972   -6616.2204   -6522.0709    539.26688     19240.37    46.348935 
   23550     863.8705   -6618.5148   -6522.1487    522.32143    19220.229     46.29587 
   23560    863.87432   -6618.5724   -6522.2059    842.14086     19200.24    46.251224 
   23570    864.87437   -6618.7336   -6522.2556    1022.3777    19180.692    46.210811 
   23580    873.49522   -6619.7478   -6522.3081    1198.3758    19161.827    46.170516 
   23590    874.53544   -6619.9282   -6522.3725    1731.4211    19143.882    46.132266 
   23600    862.42628   -6618.6506   -6522.4456    2723.4675    19127.485    46.096807 
   23610    873.73195   -6619.9932   -6522.5271    3107.3099    19113.626    46.060525 
   23620    868.52375   -6619.5104   -6522.6252    3266.3189    19102.803     46.03161 
   23630    865.57408      -6619.3   -6522.7439    3426.6099    19095.262    46.020135 
   23640    873.36542   -6620.3089   -6522.8837    3243.5502    19091.193    46.021357 
   23650    876.97037   -6620.8819   -6523.0545    2938.8366    19090.494     46.03144 
   23660    883.26753   -6621.8041   -6523.2743    2601.0686    19092.932    46.043301 
   23670    872.81338   -6620.9096   -6523.5459    2647.1332    19098.265    46.049154 
   23680    842.23345   -6617.7853   -6523.8329    2837.6015    19106.575    46.042669 
   23690     842.9896   -6618.1375   -6524.1007      2352.49     19118.04    46.023481 
   23700    847.01807   -6618.8163   -6524.3302    1648.0136    19132.268    46.020567 
   23710    848.66462   -6619.2025   -6524.5327    1193.4112    19148.609    46.047912 
   23720    854.03447   -6619.9845   -6524.7157    1103.7544    19166.615    46.093646 
   23730     860.6198   -6620.8932   -6524.8897    1359.3745    19186.217    46.139972 
   23740    868.49207   -6621.9619   -6525.0803    1542.6837    19207.674    46.175828 
   23750    851.27182   -6620.2536   -6525.2929    1654.3612     19231.24      46.2008 
   23760    832.28004   -6618.3321     -6525.49    1509.3858    19257.057    46.223096 
   23770    841.82699   -6619.5431    -6525.636    918.09806    19284.964    46.258238 
   23780    845.30526   -6620.0298   -6525.7348    243.91016    19314.389    46.318292 
   23790    838.27689   -6619.2991   -6525.7881   -297.16629    19344.604    46.398717 
   23800    843.67586   -6619.9108   -6525.7975    -470.7195    19375.022    46.473177 
   23810    833.36538   -6618.7205   -6525.7574   -264.46228    19405.424    46.522048 
   23820    819.91024   -6617.1168   -6525.6546    172.65876    19436.012    46.548381 
   23830    825.62203   -6617.5442   -6525.4448   -137.40842    19467.141    46.571516 
   23840    853.13073   -6620.2715   -6525.1035   -951.87463    19498.487    46.606995 
   23850    864.92669   -6621.1241   -6524.6403   -1538.4324    19529.189    46.650677 
   23860    862.50695   -6620.3138   -6524.0999   -1746.5832    19558.572    46.695258 
   23870    849.63832   -6618.2629   -6523.4844   -1723.6103    19586.344    46.740182 
   23880    820.63065   -6614.3359   -6522.7933    -1298.432    19612.503    46.791509 
   23890    819.55931   -6613.4171    -6521.994   -1097.8342    19637.432    46.853007 
   23900    845.98518    -6615.432    -6521.061   -1677.1739    19661.282    46.920598 
   23910    854.02954   -6615.3388   -6520.0705   -2668.9532      19683.4     46.97684 
   23920    858.15803   -6614.8491   -6519.1203   -3662.4142    19702.682    47.019373 
   23930    859.33105   -6614.1108   -6518.2511   -4091.0407     19718.02    47.069752 
   23940    877.07868   -6615.3394      -6517.5   -4262.7248    19728.846    47.136093 
   23950    890.01575   -6616.1637   -6516.8811   -4632.8198    19734.878    47.200074 
   23960     876.4018   -6614.1787   -6516.4147   -4094.6349    19735.797    47.239294 
   23970    872.47987   -6613.3888   -6516.0623   -3759.0109    19732.041    47.249852 
   23980    874.11935   -6613.2948   -6515.7855   -4000.5909    19723.927    47.245641 
   23990    875.18008   -6613.2047    -6515.577   -4220.9277    19711.215    47.233092 
   24000    870.89953   -6612.5733   -6515.4232   -4492.2453    19693.625    47.217171 
   24010      876.819   -6613.1386   -6515.3281   -4625.1497    19670.832    47.205766 
   24020    859.28566   -6611.1199   -6515.2653   -3645.1736    19642.798    47.211116 
   24030    865.31432    -6611.737   -6515.2099   -2843.8192     19610.49    47.230236 
   24040    860.72476   -6611.1614   -6515.1462   -1997.8406    19574.878    47.238057 
   24050    842.67082   -6609.0583   -6515.0571   -924.91127    19536.946    47.209639 
   24060    849.78952   -6609.7033    -6514.908    68.378459    19497.917    47.139655 
   24070    869.70221   -6611.7363   -6514.7197    565.59087    19458.867    47.046639 
   24080      861.436   -6610.6041   -6514.5096    1218.5785    19420.466    46.944142 
   24090    870.97218   -6611.4583   -6514.3001    2103.4139    19383.444    46.858883 
   24100    857.44955   -6609.7142   -6514.0644     3606.297    19348.867    46.817762 
   24110    878.22786   -6611.7883   -6513.8207    3960.0474    19318.168    46.805365 
   24120    897.08557   -6613.6763   -6513.6051    3691.6287    19291.795    46.777936 
   24130    882.67748   -6611.9252   -6513.4612    3440.4328    19269.484    46.709109 
   24140    898.56858   -6613.6256   -6513.3889       2672.3    19250.885    46.631044 
   24150    912.72219    -6615.228   -6513.4125    2256.4451    19235.256    46.589235 
   24160    889.97571   -6612.8282   -6513.5501    2806.0369    19222.188    46.596015 
   24170    880.21071   -6611.9638    -6513.775    3513.9993    19212.178    46.630338 
   24180    878.07708   -6612.0205   -6514.0697    4129.5658    19205.958    46.663593 
   24190    868.59486   -6611.3312   -6514.4381    4411.1506    19204.151    46.687712 
   24200    866.47571   -6611.5265   -6514.8699    4398.8175    19207.072    46.711209 
   24210    864.04661   -6611.7492   -6515.3635    4147.0546    19214.704    46.738173 
   24220    866.37381   -6612.5536   -6515.9083    3681.0161    19226.798    46.766623 
   24230    898.35186   -6616.7493   -6516.5368    2662.0413    19242.814    46.805054 
   24240    904.77071   -6618.2211   -6517.2925    2126.6003    19261.792    46.866304 
   24250    885.06532   -6616.9024    -6518.172    1880.9362    19283.107    46.945889 
   24260    855.69076   -6614.5321   -6519.0786    2007.5323    19306.545    47.031277 
   24270    856.66517   -6615.5069   -6519.9446    1855.7714    19332.192    47.107618 
   24280    863.04012   -6617.0114    -6520.738    1192.9295    19359.838    47.177043 
   24290    849.91307   -6616.2446   -6521.4355    650.00492    19388.847    47.239447 
   24300      834.677   -6615.1033   -6521.9938   -195.92677    19418.584     47.29192 
   24310    840.73233   -6616.1874   -6522.4024   -1324.6199    19448.093    47.340379 
   24320     830.8706   -6615.3654   -6522.6806   -1820.2901    19476.218     47.38756 
   24330    829.21113   -6615.3424   -6522.8426   -2423.6339    19502.305    47.430376 
   24340    840.70532   -6616.6961   -6522.9142   -2687.7321    19525.736    47.475068 
   24350      830.087   -6615.5178   -6522.9204   -2708.0939     19546.19    47.529679 
   24360    831.40225   -6615.6097   -6522.8655    -2809.887    19563.621    47.586663 
   24370    845.10609   -6617.0311   -6522.7582   -2923.3456    19577.918    47.641882 
   24380    844.05841   -6616.7817   -6522.6258   -2690.0482    19588.971    47.693312 
   24390    825.36236   -6614.5334   -6522.4629   -1943.0371    19597.075    47.741192 
   24400    831.56083   -6615.0166   -6522.2547   -1834.8302    19602.927    47.799318 
   24410    849.63175   -6616.7721   -6521.9944   -2355.2227    19606.651    47.877458 
   24420    848.59514   -6616.3732   -6521.7111   -2377.0474     19607.78    47.958454 
   24430    840.93518   -6615.2245   -6521.4169    -1655.805    19606.317    48.025784 
   24440    848.87617   -6615.7896   -6521.0962   -993.57836     19602.99    48.080925 
   24450    865.66752   -6617.3272   -6520.7607   -874.53411    19598.504    48.121631 
   24460    879.25581   -6618.5297   -6520.4473   -1420.5507    19592.983    48.141985 
   24470    872.11585   -6617.4593   -6520.1735   -1592.6971    19585.945    48.142673 
   24480    874.66153   -6617.5113   -6519.9415   -1462.5928    19577.154    48.137105 
   24490    887.06407   -6618.6978   -6519.7444   -895.07002    19566.788    48.146151 
   24500    889.49541   -6618.8237   -6519.5991   -175.49959    19555.446    48.168933 
   24510    877.06945   -6617.3458   -6519.5074    340.51149    19543.887    48.187923 
   24520    844.68015   -6613.6662   -6519.4408    726.89739    19532.714    48.184568 
   24530    827.28763   -6611.6275   -6519.3423    972.00506    19522.347    48.148303 
   24540    840.31333   -6612.9187   -6519.1805     1441.793    19513.083    48.086959 
   24550    862.86965   -6615.2188   -6518.9644    1853.4957    19505.392    48.020372 
   24560    880.44339   -6616.9549   -6518.7401    2184.9136    19499.747     47.95716 
   24570    864.24761   -6614.9364   -6518.5282    2310.6368    19496.509    47.901162 
   24580    877.90597   -6616.2656   -6518.3339    1662.3306    19495.747    47.871956 
   24590    891.61872   -6617.6139   -6518.1525    917.69217    19496.827    47.881998 
   24600    873.88807   -6615.4951   -6518.0115    514.96669    19498.965    47.916902 
   24610     852.6863   -6613.0002   -6517.8818    448.68655    19501.722    47.961338 
   24620    863.41641     -6614.04   -6517.7246    367.70402    19504.983     48.02223 
   24630    863.08519   -6613.8152   -6517.5367    431.00016    19508.689    48.100564 
   24640    856.75164   -6612.8957   -6517.3237     367.5822    19512.879     48.18281 
   24650    848.37972   -6611.6995   -6517.0614    566.52566    19517.536    48.266426 
   24660    838.44346   -6610.2396     -6516.71    860.55387     19522.86    48.343964 
   24670    853.60489   -6611.4454   -6516.2245    711.27034    19529.107    48.414938 
   24680    854.04583   -6610.8596   -6515.5895    553.21002     19536.16    48.484933 
   24690    858.64582   -6610.5992    -6514.816    300.14035    19543.843    48.547419 
   24700    879.31397   -6612.0076   -6513.9188    31.034105    19551.875    48.597166 
   24710    882.90927   -6611.4447   -6512.9549     420.6078    19560.045    48.631694 
   24720     887.1624   -6610.9742   -6512.0099      371.304    19568.672    48.645995 
   24730    911.24768   -6612.7811     -6511.13   -560.93497     19577.65    48.636526 
   24740    913.89072   -6612.3293   -6510.3834    -1115.927    19586.069     48.62444 
   24750    908.37201    -6611.145   -6509.8147   -1189.4718    19593.324    48.640289 
   24760    902.40253   -6610.0615   -6509.3971   -1148.8782    19599.306    48.686564 
   24770    913.79663   -6611.0522   -6509.1168   -1391.6018    19603.978    48.744596 
   24780    908.37021   -6610.2927   -6508.9626   -1045.5576    19607.187    48.793073 
   24790    925.77235   -6612.2179   -6508.9466   -1157.5701    19609.185    48.814895 
   24800    924.65247   -6612.2152   -6509.0688   -791.78341    19609.955     48.81321 
   24810    901.69591    -6609.895   -6509.3094     24.89964    19609.891    48.798022 
   24820     915.2739   -6611.7451    -6509.645   -656.63583    19609.678     48.77926 
   24830    917.77994   -6612.4739   -6510.0941    -1226.592    19608.763    48.760603 
   24840    900.06648    -6611.054   -6510.6503   -1301.1702    19606.537    48.744808 
   24850    884.12708   -6609.8841   -6511.2584   -1485.9911    19602.846    48.731874 
   24860    879.52013   -6609.9817   -6511.8699   -1783.5574    19597.479    48.712482 
   24870    875.42585   -6610.1181   -6512.4631   -1895.7723    19590.135    48.680976 
   24880    875.92215   -6610.7543   -6513.0438   -1932.9438    19580.655    48.634453 
   24890    860.88735   -6609.6162   -6513.5829   -1426.6252    19569.058    48.577033 
   24900    843.66256    -6608.149   -6514.0372    -399.5285     19555.93    48.520988 
   24910     867.5677   -6611.1818   -6514.4033   -24.765494    19542.274    48.487553 
   24920    887.98039   -6613.7921   -6514.7366    479.25074    19528.604    48.490485 
   24930    885.59992   -6613.8645   -6515.0745     1367.744    19515.489     48.51053 
   24940     874.9658   -6613.0098    -6515.406    2341.6616    19503.888    48.517913 
   24950    871.17993   -6612.8935   -6515.7121    2804.6521    19494.818    48.495734 
   24960    885.52123   -6614.7936   -6516.0124    2520.5009    19488.783    48.445493 
   24970    881.46599   -6614.6622   -6516.3334    2263.9561    19485.561    48.390266 
   24980    878.54868   -6614.6691   -6516.6657    1770.3278    19484.812    48.349358 
   24990    883.34983   -6615.5473   -6517.0083    1094.3979    19486.005    48.327555 
   25000    884.29371    -6616.004   -6517.3597    440.55174    19488.399    48.313494 
Loop time of 14789 on 16 procs for 20000 steps with 864 atoms

Performance: 0.117 ns/day, 205.403 hours/ns, 1.352 timesteps/s
97.7% CPU use with 16 MPI tasks x 1 OpenMP threads

MPI task timing breakdown:
Section |  min time  |  avg time  |  max time  |%varavg| %total
---------------------------------------------------------------
Pair    | 10680      | 12879      | 14494      |1030.1 | 87.08
Bond    | 0.0024514  | 0.005372   | 0.011528   |   3.3 |  0.00
Neigh   | 0.23896    | 0.28742    | 0.36404    |   7.1 |  0.00
Comm    | 241.37     | 1519.2     | 3984.2     |2868.0 | 10.27
Output  | 1.4013     | 1.4191     | 1.6789     |   5.6 |  0.01
Modify  | 21.671     | 389.51     | 812.43     |1582.9 |  2.63
Other   |            | 0.09334    |            |       |  0.00

Nlocal:        54.0000 ave          68 max          43 min
Histogram: 2 1 2 2 3 0 4 1 0 1
Nghost:        512.938 ave         642 max         460 min
Histogram: 4 3 4 1 1 1 0 1 0 1
Neighs:         0.00000 ave           0 max           0 min
Histogram: 16 0 0 0 0 0 0 0 0 0
FullNghs:      2415.12 ave        3354 max        1680 min
Histogram: 3 1 2 1 2 4 0 1 0 2

Total # of neighbors = 38642
Ave neighs/atom = 44.724537
Ave special neighs/atom = 0.0000000
Neighbor list builds = 2000
Dangerous builds = 2000
Total wall time: 5:12:14
