LAMMPS (29 Sep 2021 - Update 3)
OMP_NUM_THREADS environment is not set. Defaulting to 1 thread. (src/comm.cpp:98)
  using 1 OpenMP thread(s) per MPI task
units	metal
atom_style	full

read_data	mixed.data
Reading data file ...
  orthogonal box = (0.0000000 0.0000000 0.0000000) to (15.866041 15.852264 77.123517)
  2 by 1 by 8 MPI processor grid
  reading atoms ...
  864 atoms
Finding 1-2 1-3 1-4 neighbors ...
  special bond factors lj:    0        0        0       
  special bond factors coul:  0        0        0       
     0 = max # of 1-2 neighbors
     0 = max # of 1-3 neighbors
     0 = max # of 1-4 neighbors
     1 = max # of special neighbors
  special bonds CPU = 0.001 seconds
  read_data CPU = 0.026 seconds

pair_style	quip
pair_coeff	* * /ocean/projects/cts180021p/wuziqi/clease/mint-PD/PhaseDiagram-Clease/Liquid/GAP_potential/gap_LiKCl.xml "Potential xml_label=GAP_2021_9_27_0_1_17_37_618" 17 19 3

neighbor	0.3 bin
neigh_modify	delay 10

timestep	0.001
compute	msd all msd
thermo_style	custom step temp pe etotal press vol c_msd[4]
thermo	10
dump	1 all custom 10 xyz-mix.dump type id x y z
dump	2 all custom 10 force-mix.dump type id fx fy fz

fix     1 all nve
run     2000
Neighbor list info ...
  update every 1 steps, delay 10 steps, check yes
  max neighbors/atom: 2000, page size: 100000
  master list distance cutoff = 6.22
  ghost atom cutoff = 6.22
  binsize = 3.11, bins = 6 6 25
  1 neighbor lists, perpetual/occasional/extra = 1 0 0
  (1) pair quip, perpetual
      attributes: full, newton on
      pair build: full/bin
      stencil: full/bin/3d
      bin: standard
Per MPI rank memory allocation (min/avg/max) = 8.889 | 8.906 | 8.916 Mbytes
Step Temp PotEng TotEng Press Volume c_msd[4] 
       0            0   -8878.9247   -8878.9247   -11708.833    19397.542            0 
      10    108.80145    -8891.078    -8878.941   -13519.947    19397.542 0.00037756483 
      20    255.99871   -8907.5101   -8878.9531   -15433.074    19397.542  0.004636157 
      30    288.56988   -8911.1358   -8878.9454   -14361.122    19397.542  0.015943357 
      40    289.10053   -8911.1934   -8878.9438   -12512.136    19397.542  0.032214776 
      50    304.26419   -8912.8839   -8878.9428   -12190.839    19397.542  0.050010352 
      60    330.67215   -8915.8353   -8878.9484    -12512.07    19397.542  0.067008738 
      70    319.75479    -8914.613   -8878.9439   -12021.554    19397.542  0.084636553 
      80     311.7171   -8913.7131   -8878.9406   -11242.174    19397.542   0.10335882 
      90    344.97025   -8917.4272   -8878.9452   -11377.847    19397.542   0.12285636 
     100    369.47631   -8920.1625   -8878.9469   -11460.202    19397.542   0.14373353 
     110    369.44402   -8920.1551   -8878.9431   -10737.559    19397.542   0.16547428 
     120    381.04496   -8921.4513   -8878.9452   -10101.733    19397.542   0.18697263 
     130    387.01967   -8922.1174   -8878.9447    -9853.945    19397.542   0.20927079 
     140    390.46305   -8922.5002   -8878.9434   -10154.629    19397.542   0.23274757 
     150    401.17379   -8923.6966   -8878.9451   -10935.233    19397.542   0.25686229 
     160    405.60936   -8924.1923    -8878.946   -11533.497    19397.542   0.28181117 
     170    403.00983   -8923.9035   -8878.9472   -11313.905    19397.542   0.30705714 
     180    385.93942   -8921.9971   -8878.9449   -10395.352    19397.542   0.33328028 
     190    384.55592   -8921.8429   -8878.9451   -9702.4152    19397.542    0.3615061 
     200    397.89654   -8923.3338   -8878.9478   -9508.3306    19397.542   0.39138176 
     210    403.74057   -8923.9838    -8878.946   -9854.3562    19397.542   0.41959204 
     220    419.25516   -8925.7147   -8878.9462   -11120.155    19397.542   0.44190424 
     230    437.64496   -8927.7678   -8878.9478   -12741.979    19397.542   0.46059951 
     240    436.22365   -8927.6096   -8878.9482   -13773.271    19397.542   0.48016288 
     250     417.4692   -8925.5154   -8878.9461   -14188.084    19397.542   0.50051511 
     260    403.07006   -8923.9093   -8878.9463   -14452.366    19397.542   0.51954432 
     270    390.78955   -8922.5388   -8878.9456   -14869.677    19397.542   0.53842732 
     280    390.91941   -8922.5534   -8878.9458   -15753.944    19397.542   0.55789535 
     290    394.53071   -8922.9579   -8878.9474   -16866.473    19397.542   0.57907365 
     300    385.46639   -8921.9447   -8878.9454   -17556.881    19397.542   0.60332818 
     310    388.07639   -8922.2367   -8878.9462   -18102.563    19397.542   0.62988844 
     320    395.22438   -8923.0346   -8878.9467   -18476.923    19397.542   0.65693198 
     330     392.7193   -8922.7554    -8878.947   -18634.964    19397.542   0.68294096 
     340    387.36548    -8922.158   -8878.9468   -18928.114    19397.542    0.7064488 
     350    383.70376     -8921.75   -8878.9472   -19255.038    19397.542   0.72809194 
     360    380.16279   -8921.3526   -8878.9449   -19764.905    19397.542   0.74756432 
     370    391.53302   -8922.6238   -8878.9477   -20433.416    19397.542   0.76345228 
     380    397.18733   -8923.2529   -8878.9461   -20848.612    19397.542   0.77799013 
     390    399.66038   -8923.5327     -8878.95   -20962.623    19397.542    0.7926845 
     400    376.74168   -8920.9703   -8878.9442   -20594.318    19397.542   0.80792627 
     410    384.01385   -8921.7861   -8878.9488   -20827.442    19397.542   0.82090067 
     420    385.42711   -8921.9432   -8878.9482    -21282.02    19397.542   0.83289421 
     430    375.82197   -8920.8694   -8878.9459   -21749.833    19397.542   0.84474346 
     440    377.40301   -8921.0478   -8878.9479   -22280.425    19397.542   0.85654263 
     450    373.39276   -8920.5987   -8878.9462   -22358.315    19397.542   0.87121917 
     460    380.55104   -8921.3982   -8878.9472   -22127.174    19397.542   0.88923864 
     470    389.08947   -8922.3531   -8878.9496   -21563.629    19397.542   0.90990069 
     480    377.88025   -8921.0989   -8878.9458   -20903.426    19397.542   0.93174236 
     490    381.74982   -8921.5319   -8878.9472   -20620.986    19397.542   0.94962563 
     500    394.14575   -8922.9156   -8878.9481   -20486.731    19397.542   0.96309083 
     510    397.04898   -8923.2389   -8878.9475   -19997.235    19397.542   0.97658553 
     520    399.82595   -8923.5491    -8878.948   -19535.484    19397.542   0.99241283 
     530    404.27704   -8924.0446   -8878.9469    -19115.46    19397.542    1.0084992 
     540     411.3451   -8924.8362     -8878.95   -18661.849    19397.542    1.0226069 
     550    394.09812   -8922.9082    -8878.946   -17821.103    19397.542    1.0374953 
     560    386.81962   -8922.0987   -8878.9484   -17144.624    19397.542    1.0531551 
     570    383.04436   -8921.6747   -8878.9456   -16711.306    19397.542    1.0690946 
     580    397.22268   -8923.2587   -8878.9479   -16702.646    19397.542    1.0866029 
     590    408.28446   -8924.4929   -8878.9481   -16623.668    19397.542    1.1074158 
     600    405.74477   -8924.2095   -8878.9481   -16314.107    19397.542    1.1302748 
     610    396.02325   -8923.1251   -8878.9481    -15628.66    19397.542    1.1519665 
     620     395.3341   -8923.0495   -8878.9494   -15051.831    19397.542    1.1694303 
     630    394.27036   -8922.9318   -8878.9503   -14512.907    19397.542    1.1828305 
     640    383.62649   -8921.7417   -8878.9476   -14067.198    19397.542    1.1945401 
     650    385.14193   -8921.9112    -8878.948   -13839.463    19397.542    1.2068311 
     660     395.4713   -8923.0651   -8878.9497   -13755.797    19397.542    1.2218962 
     670     396.9724   -8923.2312   -8878.9483   -13681.042    19397.542    1.2411479 
     680    400.76426   -8923.6562   -8878.9504   -13529.754    19397.542    1.2649597 
     690    395.59922   -8923.0782   -8878.9485   -13202.541    19397.542    1.2892968 
     700    393.08673   -8922.7984    -8878.949    -12863.36    19397.542    1.3108518 
     710    392.46287   -8922.7295   -8878.9497   -12776.215    19397.542    1.3306314 
     720    392.69983   -8922.7538   -8878.9476   -12960.731    19397.542    1.3493343 
     730    407.70626    -8924.431   -8878.9507   -13617.908    19397.542    1.3652761 
     740    418.60831   -8925.6458   -8878.9494   -14182.857    19397.542    1.3758719 
     750    427.35697   -8926.6222   -8878.9499   -14411.802    19397.542    1.3817369 
     760    426.23067   -8926.4956    -8878.949   -14240.457    19397.542    1.3874968 
     770    425.68986   -8926.4355   -8878.9492   -14121.142    19397.542    1.3956033 
     780    424.34662   -8926.2861   -8878.9496   -14199.692    19397.542    1.4059418 
     790    416.51178   -8925.4118   -8878.9493   -14348.579    19397.542    1.4172819 
     800    406.85203   -8924.3329   -8878.9479   -14603.708    19397.542    1.4293586 
     810     409.3926   -8924.6176   -8878.9492   -14954.594    19397.542    1.4437899 
     820    411.52943   -8924.8561   -8878.9494   -15227.004    19397.542     1.461671 
     830    414.76526   -8925.2161   -8878.9484   -15348.177    19397.542    1.4822988 
     840    425.47297   -8926.4126   -8878.9505   -15497.059    19397.542    1.5061095 
     850    424.10961   -8926.2589   -8878.9489    -15461.05    19397.542    1.5339208 
     860    425.84903   -8926.4531    -8878.949   -15668.017    19397.542    1.5638872 
     870    428.28778   -8926.7265   -8878.9503   -15975.954    19397.542    1.5941429 
     880    422.32484   -8926.0597   -8878.9487   -16050.391    19397.542    1.6254163 
     890    420.59441   -8925.8681   -8878.9502   -16210.368    19397.542    1.6579317 
     900    412.78354   -8924.9958   -8878.9492   -16186.118    19397.542    1.6917804 
     910    408.88335   -8924.5603   -8878.9488   -16398.021    19397.542    1.7253326 
     920    415.25495   -8925.2723     -8878.95   -16866.947    19397.542    1.7566903 
     930    417.79568   -8925.5555   -8878.9498    -17314.63    19397.542    1.7866576 
     940    414.15774   -8925.1502   -8878.9503   -17816.895    19397.542    1.8175362 
     950    410.14766   -8924.7024   -8878.9498   -18397.528    19397.542     1.850555 
     960    412.13206   -8924.9218   -8878.9478   -18864.984    19397.542    1.8837942 
     970    427.90234   -8926.6835   -8878.9503   -19165.223    19397.542    1.9147148 
     980    431.11936    -8927.043    -8878.951    -19021.79    19397.542    1.9457246 
     990    415.64991   -8925.3145   -8878.9482   -18606.767    19397.542    1.9812421 
    1000    413.92707   -8925.1233   -8878.9491   -18513.829    19397.542    2.0201072 
    1010    417.45395   -8925.5177     -8878.95   -18558.895    19397.542    2.0574524 
    1020    414.66605   -8925.2045   -8878.9479    -18540.13    19397.542    2.0909232 
    1030    425.32279   -8926.3944    -8878.949   -18804.281    19397.542    2.1200334 
    1040    437.39791    -8927.743   -8878.9506    -19174.44    19397.542    2.1461906 
    1050    432.04437    -8927.144   -8878.9488   -19430.964    19397.542    2.1724444 
    1060    423.10855   -8926.1471   -8878.9487    -19670.97    19397.542     2.200914 
    1070    416.30819    -8925.389   -8878.9492   -19752.208    19397.542     2.232564 
    1080    410.19009   -8924.7058   -8878.9485   -19471.789    19397.542    2.2656179 
    1090    411.43188   -8924.8454   -8878.9496   -18927.842    19397.542    2.2963807 
    1100    413.58688   -8925.0849   -8878.9486   -18540.027    19397.542    2.3238349 
    1110    425.71996   -8926.4384   -8878.9486   -18620.545    19397.542    2.3474636 
    1120    443.01807   -8928.3709   -8878.9516   -18883.908    19397.542    2.3679172 
    1130    437.42575   -8927.7454   -8878.9499   -18767.479    19397.542    2.3882255 
    1140    422.48256   -8926.0773   -8878.9487   -18476.767    19397.542    2.4089666 
    1150    414.07643   -8925.1393   -8878.9485   -18282.798    19397.542    2.4284943 
    1160    416.01416   -8925.3558   -8878.9488   -18291.885    19397.542     2.446853 
    1170    419.66714   -8925.7642   -8878.9497   -18446.717    19397.542    2.4644412 
    1180    424.21945   -8926.2706   -8878.9483    -18449.36    19397.542    2.4806419 
    1190    440.19598   -8928.0557   -8878.9512   -18343.062    19397.542    2.4945267 
    1200    440.38662   -8928.0752   -8878.9494   -17908.359    19397.542     2.507228 
    1210    440.40752   -8928.0774   -8878.9493   -17509.071    19397.542    2.5196997 
    1220    445.29341   -8928.6232   -8878.9501   -17433.008    19397.542    2.5321836 
    1230    444.31811   -8928.5138   -8878.9494   -17404.254    19397.542    2.5456285 
    1240    444.21916   -8928.5028   -8878.9495   -17567.287    19397.542    2.5617678 
    1250    447.95301   -8928.9197   -8878.9499   -17998.888    19397.542    2.5810013 
    1260    447.05056     -8928.82   -8878.9509   -18113.089    19397.542    2.6027835 
    1270    433.76409   -8927.3363   -8878.9493   -17647.746    19397.542    2.6267411 
    1280    426.49744   -8926.5249   -8878.9485   -17215.404    19397.542    2.6522665 
    1290    438.76938   -8927.8949   -8878.9495   -17215.004    19397.542     2.679609 
    1300     454.8554   -8929.6913   -8878.9515   -17412.029    19397.542    2.7096074 
    1310    451.74789   -8929.3435   -8878.9504   -17515.094    19397.542    2.7419599 
    1320    440.03726   -8928.0361   -8878.9493    -17582.78    19397.542    2.7732724 
    1330    433.51813    -8927.309   -8878.9494   -17627.787    19397.542    2.7991894 
    1340    430.66307   -8926.9918   -8878.9507   -17406.648    19397.542    2.8192899 
    1350    422.06307   -8926.0311   -8878.9493    -17030.68    19397.542    2.8369839 
    1360    423.68793   -8926.2128   -8878.9498   -16872.793    19397.542    2.8564726 
    1370    432.23825   -8927.1671   -8878.9502   -16941.721    19397.542    2.8798412 
    1380    440.61409   -8928.1014   -8878.9502   -17160.411    19397.542     2.904214 
    1390    442.38617   -8928.3005   -8878.9516   -17288.698    19397.542    2.9262872 
    1400    432.82497   -8927.2303    -8878.948   -17111.965    19397.542    2.9462931 
    1410    443.20721   -8928.3906   -8878.9502   -17379.272    19397.542    2.9656964 
    1420     452.8574   -8929.4692   -8878.9523   -17581.285    19397.542    2.9866189 
    1430    440.33742   -8928.0699   -8878.9496    -17078.18    19397.542    3.0107644 
    1440    434.09539   -8927.3728   -8878.9488   -16559.852    19397.542    3.0372306 
    1450    446.59797     -8928.77   -8878.9513   -16458.202    19397.542    3.0634597 
    1460    455.16552   -8929.7248   -8878.9504   -16509.198    19397.542    3.0883146 
    1470     460.5176    -8930.323   -8878.9516   -16639.411    19397.542    3.1117695 
    1480    455.78137    -8929.792   -8878.9489   -16643.605    19397.542    3.1332037 
    1490    461.66937   -8930.4506   -8878.9507   -16632.215    19397.542     3.152331 
    1500    464.06114   -8930.7172   -8878.9504   -16316.323    19397.542    3.1724877 
    1510    464.69685   -8930.7871   -8878.9495    -16148.36    19397.542    3.1960897 
    1520    471.22077   -8931.5167   -8878.9514   -16208.841    19397.542    3.2225013 
    1530    471.47122   -8931.5429   -8878.9496   -16597.639    19397.542    3.2496574 
    1540    479.04999   -8932.3903   -8878.9516   -17340.131    19397.542    3.2743864 
    1550    475.60674   -8932.0055   -8878.9508   -17872.304    19397.542    3.2971604 
    1560    465.76065   -8930.9064   -8878.9501   -17822.552    19397.542    3.3221892 
    1570    460.06152    -8930.271   -8878.9505    -17442.47    19397.542    3.3512444 
    1580    459.40082   -8930.1971   -8878.9502   -16941.542    19397.542    3.3813068 
    1590    460.93829   -8930.3707   -8878.9523   -16350.345    19397.542    3.4083736 
    1600     448.2201   -8928.9504   -8878.9508   -15603.607    19397.542    3.4316634 
    1610     443.9941   -8928.4772    -8878.949    -15275.86    19397.542    3.4534934 
    1620    463.51034   -8930.6582    -8878.953   -15593.563    19397.542    3.4766509 
    1630    474.66564   -8931.9011   -8878.9514   -16126.405    19397.542    3.5034224 
    1640    481.75389   -8932.6918   -8878.9514   -16542.721    19397.542    3.5333548 
    1650    479.37897   -8932.4264    -8878.951   -16541.998    19397.542    3.5648125 
    1660    474.97776   -8931.9337   -8878.9492   -16284.173    19397.542    3.5952514 
    1670    481.99089    -8932.719   -8878.9522   -15990.017    19397.542    3.6221631 
    1680      474.213   -8931.8498   -8878.9506   -15457.654    19397.542    3.6454728 
    1690    462.13083    -8930.502   -8878.9506   -14731.806    19397.542     3.665115 
    1700    458.63731   -8930.1109   -8878.9492   -14389.905    19397.542    3.6801149 
    1710    473.55465   -8931.7771   -8878.9513   -14547.389    19397.542    3.6915037 
    1720    483.59001    -8932.897   -8878.9518   -15013.331    19397.542    3.7021408 
    1730    481.36556   -8932.6472   -8878.9501   -15645.926    19397.542    3.7142289 
    1740    484.05437   -8932.9483   -8878.9513   -16474.749    19397.542    3.7288904 
    1750    482.16869   -8932.7383   -8878.9516   -16722.219    19397.542     3.747119 
    1760    470.26243   -8931.4082   -8878.9497   -16475.495    19397.542    3.7689551 
    1770    472.75321   -8931.6852   -8878.9489   -16480.419    19397.542    3.7930019 
    1780    495.80424   -8934.2609   -8878.9532   -16801.632    19397.542     3.817904 
    1790    498.29189   -8934.5359   -8878.9506   -17030.699    19397.542    3.8432118 
    1800    497.22115   -8934.4163   -8878.9505   -17233.599    19397.542    3.8677962 
    1810    498.13201   -8934.5195   -8878.9521   -17294.852    19397.542    3.8916583 
    1820    485.17576   -8933.0725   -8878.9504   -16971.976    19397.542    3.9157232 
    1830    479.44537   -8932.4337   -8878.9509   -16627.564    19397.542    3.9391486 
    1840    478.88134   -8932.3712   -8878.9513   -16398.764    19397.542    3.9621449 
    1850     478.6415   -8932.3435   -8878.9503   -16406.049    19397.542    3.9857213 
    1860     486.1211   -8933.1789   -8878.9514   -16705.544    19397.542    4.0086822 
    1870    492.79459   -8933.9238   -8878.9519   -17221.514    19397.542    4.0297149 
    1880    491.36379   -8933.7648   -8878.9525   -18037.772    19397.542    4.0499732 
    1890    475.70955   -8932.0166   -8878.9505   -18910.363    19397.542    4.0709101 
    1900    464.92588   -8930.8141   -8878.9509   -19819.272    19397.542    4.0929306 
    1910    455.59431   -8929.7727   -8878.9505   -20229.987    19397.542    4.1160109 
    1920    452.87672   -8929.4684   -8878.9493   -20242.611    19397.542    4.1384657 
    1930    467.97161   -8931.1539   -8878.9509   -20369.825    19397.542    4.1581839 
    1940    485.34862   -8933.0926   -8878.9512   -20514.477    19397.542    4.1756159 
    1950    495.78252   -8934.2578   -8878.9525   -20428.878    19397.542    4.1936772 
    1960    500.11778   -8934.7389     -8878.95   -20591.437    19397.542    4.2145461 
    1970    511.99695   -8936.0681    -8878.954   -21344.221    19397.542    4.2363696 
    1980    499.23942   -8934.6421   -8878.9512   -21654.428    19397.542    4.2540635 
    1990    487.56603   -8933.3391   -8878.9504    -21588.86    19397.542    4.2657075 
    2000    485.14508   -8933.0707    -8878.952   -21134.343    19397.542    4.2770463 
Loop time of 1412.79 on 16 procs for 2000 steps with 864 atoms

Performance: 0.122 ns/day, 196.221 hours/ns, 1.416 timesteps/s
97.1% CPU use with 16 MPI tasks x 1 OpenMP threads

MPI task timing breakdown:
Section |  min time  |  avg time  |  max time  |%varavg| %total
---------------------------------------------------------------
Pair    | 274.83     | 688.52     | 1410       |1197.2 | 48.73
Bond    | 0.00013041 | 0.00028363 | 0.00062895 |   0.0 |  0.00
Neigh   | 0.014393   | 0.030008   | 0.062944   |   7.8 |  0.00
Comm    | 2.4192     | 628.67     | 1005.8     |1195.8 | 44.50
Output  | 0.28308    | 31.732     | 62.826     | 443.0 |  2.25
Modify  | 0.0082903  | 0.0098222  | 0.011815   |   1.1 |  0.00
Other   |            | 63.83      |            |       |  4.52

Nlocal:        54.0000 ave          90 max          29 min
Histogram: 3 3 0 2 3 1 0 2 0 2
Nghost:        493.750 ave         643 max         369 min
Histogram: 3 1 0 3 2 2 1 2 0 2
Neighs:         0.00000 ave           0 max           0 min
Histogram: 16 0 0 0 0 0 0 0 0 0
FullNghs:      2706.00 ave        5944 max         890 min
Histogram: 6 0 2 1 3 0 2 0 0 2

Total # of neighbors = 43296
Ave neighs/atom = 50.111111
Ave special neighs/atom = 0.0000000
Neighbor list builds = 200
Dangerous builds = 200
unfix   1

velocity    all create 712.5 1312343 dist gaussian
fix     2 all npt temp 712.5 712.5 $(100.0*dt) aniso 0.0 1.01325 $(1000.0*dt)
fix     2 all npt temp 712.5 712.5 0.10000000000000000555 aniso 0.0 1.01325 $(1000.0*dt)
fix     2 all npt temp 712.5 712.5 0.10000000000000000555 aniso 0.0 1.01325 1
run     3000
Per MPI rank memory allocation (min/avg/max) = 8.894 | 8.909 | 8.920 Mbytes
Step Temp PotEng TotEng Press Volume c_msd[4] 
    2000        712.5   -8933.0707   -8853.5902   -19737.807    19397.542    4.2770463 
    2010    643.21335   -8925.5286   -8853.7772   -17504.025    19384.658    4.3007994 
    2020    545.76839   -8914.9996   -8854.1184    -13403.16    19348.834    4.3249275 
    2030    570.44491   -8917.9832   -8854.3492   -11501.424    19295.204       4.3393 
    2040    607.78292    -8922.184   -8854.3849    -9967.156    19226.923    4.3426309 
    2050    625.08975   -8923.9715   -8854.2418   -7354.5386    19146.779    4.3385492 
    2060    637.59236   -8925.0113   -8853.8869   -4099.2935    19058.994    4.3296035 
    2070    645.76176   -8925.3735   -8853.3378   -778.64866    18968.707    4.3198898 
    2080    645.03207   -8924.6115   -8852.6572    2457.9374    18881.043    4.3114421 
    2090    633.36182   -8922.5224     -8851.87    5682.1418    18800.701    4.3014854 
    2100     631.4598   -8921.3988   -8850.9585    8568.8333    18731.753    4.2864472 
    2110     648.2991   -8922.2631   -8849.9444    10771.038    18677.306    4.2653536 
    2120    681.20322   -8924.9038   -8848.9146    12033.798    18639.159    4.2409164 
    2130    681.48522   -8923.9912   -8847.9705    12819.798    18617.799    4.2177478 
    2140    672.38231   -8922.1939   -8847.1886    12388.577    18612.894    4.1976054 
    2150    691.57343   -8923.6982   -8846.5522    10406.449    18622.763     4.179767 
    2160    697.39813   -8923.8084   -8846.0126    8404.8658    18644.337    4.1646455 
    2170     685.6098   -8922.0331   -8845.5523    6460.9808    18674.573    4.1537633 
    2180    657.16687   -8918.4158   -8845.1078    4468.8301    18710.732    4.1486533 
    2190    649.49816   -8917.0555    -8844.603    1852.3883    18750.106     4.150125 
    2200    681.98904   -8920.0519    -8843.975   -1103.4854    18789.464    4.1579955 
    2210    690.34144   -8920.2761   -8843.2674   -2735.2189    18825.492    4.1714602 
    2220    685.45205    -8919.032   -8842.5688   -3362.3972    18856.379    4.1894132 
    2230     685.1872   -8918.3126    -8841.879   -3446.1043    18881.612    4.2111057 
    2240    685.12486   -8917.6088   -8841.1821   -3226.4236    18901.388     4.236055 
    2250    698.18287   -8918.3538   -8840.4705   -3140.1327    18916.216    4.2650898 
    2260    689.66552   -8916.6958   -8839.7625   -2861.4062    18926.502    4.2982709 
    2270    693.23824   -8916.4125   -8839.0807   -2470.5149    18932.809    4.3329765 
    2280    708.07418   -8917.4024   -8838.4157   -1946.7792     18935.81     4.367273 
    2290    713.44191   -8917.3686   -8837.7831   -1177.1168     18936.32    4.3983507 
    2300    714.94968   -8916.9564   -8837.2027   -873.39281    18935.283    4.4219511 
    2310    716.86066    -8916.657   -8836.6902   -685.51362      18933.2    4.4371322 
    2320    721.02066   -8916.6826   -8836.2516   -455.08134    18930.349    4.4453547 
    2330    717.39996    -8915.896   -8835.8689    93.368348    18927.056    4.4471684 
    2340     717.7186   -8915.5755   -8835.5129    398.47691    18923.959    4.4433348 
    2350    730.60085   -8916.6686    -8835.169    143.33174    18921.403    4.4364234 
    2360    726.03565   -8915.8458   -8834.8555  -0.93638604    18919.135     4.426365 
    2370    715.68319   -8914.4207   -8834.5851   -257.44656    18916.939    4.4108361 
    2380     714.9731    -8914.099   -8834.3427   -571.73568    18914.483    4.3889063 
    2390    729.87794   -8915.5272   -8834.1083   -888.54123    18911.366    4.3623476 
    2400     753.9006   -8917.9921   -8833.8934    -551.1899    18907.313    4.3361864 
    2410     733.3924   -8915.5387   -8833.7277     723.1343    18902.791    4.3128172 
    2420    718.38441   -8913.7394   -8833.6025    1386.8112    18899.217    4.2904295 
    2430    734.42618   -8915.4153    -8833.489    656.08702    18897.307    4.2701596 
    2440    743.71227   -8916.3744   -8833.4122    186.17448    18896.302    4.2538781 
    2450    752.57311   -8917.3655   -8833.4148    99.691997    18895.586     4.241457 
    2460     754.7656   -8917.7237   -8833.5285    464.10716    18895.074    4.2336608 
    2470    744.66567    -8916.819   -8833.7504    769.12822    18895.156      4.22898 
    2480    730.36853   -8915.5266   -8834.0528    998.66569    18896.201    4.2247037 
    2490    715.74576   -8914.2316    -8834.389    542.33581    18898.397    4.2221291 
    2500    716.72114   -8914.6881   -8834.7368    -371.7066    18901.199    4.2213518 
    2510    730.95022   -8916.6452   -8835.1066   -1070.6841     18903.53    4.2221459 
    2520    750.40959   -8919.2472   -8835.5379   -1423.6264     18904.52    4.2263104 
    2530    744.81295   -8919.1404   -8836.0554   -1074.1227    18903.783    4.2346347 
    2540    727.77236   -8917.8118   -8836.6277   -486.83286    18901.737    4.2430524 
    2550    720.64876   -8917.6049   -8837.2154   -183.61084    18899.096    4.2482736 
    2560    714.18702   -8917.4613   -8837.7927   -378.28651    18896.216    4.2521835 
    2570    721.20577   -8918.8104   -8838.3588   -769.61301    18892.899    4.2559773 
    2580    722.30125   -8919.4949   -8838.9211   -868.63632    18888.698    4.2593574 
    2590    709.45175   -8918.5983   -8839.4579   -281.64566    18883.548    4.2615681 
    2600    720.55793   -8920.3308   -8839.9515    549.12287    18878.166    4.2596955 
    2610    738.40113    -8922.792   -8840.4223    819.17139    18873.478    4.2514685 
    2620     742.3595   -8923.7142   -8840.9029    827.31666    18869.873    4.2368258 
    2630    747.22156   -8924.7609   -8841.4072    488.55381    18867.319    4.2185516 
    2640    756.29303   -8926.3204   -8841.9548    26.143608    18865.414    4.2003414 
    2650    737.74892   -8924.8368   -8842.5398    139.75659    18863.663    4.1856039 
    2660    714.95131   -8922.8577   -8843.1038    81.720172    18862.083    4.1752888 
    2670    736.94491   -8925.8533    -8843.646   -517.10344    18860.558      4.16653 
    2680    750.87447    -8927.971   -8844.2099   -450.47886    18858.507    4.1570236 
    2690    736.88177    -8926.995   -8844.7948   -10.466671    18855.958    4.1451683 
    2700    716.31214   -8925.2599   -8845.3542    571.97123    18853.449     4.130962 
    2710    691.53044   -8922.9671   -8845.8259    1140.9659    18851.697    4.1166576 
    2720    689.44828   -8923.0989   -8846.1899    1128.7975    18851.323    4.1047169 
    2730    701.50201   -8924.7262   -8846.4726     729.8165    18852.309    4.0979382 
    2740    705.10416   -8925.3612   -8846.7058    282.74754    18854.179    4.0959898 
    2750    722.25939   -8927.4858   -8846.9167   -13.626485    18856.403    4.0968661 
    2760    743.01573   -8930.0333   -8847.1488    202.49542    18858.622     4.101103 
    2770    747.45033   -8930.8207   -8847.4415    744.62766    18861.107    4.1086529 
    2780    755.46006   -8932.0932   -8847.8205    778.55216    18864.444    4.1182133 
    2790      743.166   -8931.1824   -8848.2811    1049.2539    18868.753    4.1289399 
    2800    723.37245   -8929.4681   -8848.7748    1018.8393    18874.289    4.1392475 
    2810    722.48993   -8929.8668    -8849.272    146.03878    18880.927    4.1496225 
    2820    714.97637   -8929.5055   -8849.7488   -622.18816    18887.699    4.1616108 
    2830    725.70522   -8931.1621   -8850.2086   -1286.8891    18893.614    4.1767661 
    2840    734.96967    -8932.656    -8850.669   -1041.7076    18897.965    4.1958372 
    2850    736.38961   -8933.2895   -8851.1441   -496.86494    18900.973    4.2160968 
    2860    731.62509    -8933.248   -8851.6341   -33.320513    18903.327    4.2350427 
    2870     717.1241   -8932.1106   -8852.1144    367.89561    18905.638     4.254036 
    2880    708.80018   -8931.6237    -8852.556    398.39907    18908.367    4.2765262 
    2890    703.70849   -8931.4453   -8852.9456   -214.79209    18911.512    4.3016238 
    2900    699.29297   -8931.2811   -8853.2739   -1394.5543    18914.298    4.3235044 
    2910    714.94192    -8933.314   -8853.5611   -2794.7781    18915.305    4.3389399 
    2920    718.54576   -8933.9945   -8853.8397   -3939.6642    18912.832    4.3523339 
    2930    705.72258   -8932.8382   -8854.1138   -4190.0236    18905.564    4.3653628 
    2940    711.42886    -8933.745    -8854.384   -4056.6761    18893.126     4.378874 
    2950    692.33826    -8931.861   -8854.6297   -2735.3275    18875.887    4.3953897 
    2960    688.13817   -8931.5814   -8854.8186   -1793.4814     18855.33    4.4143631 
    2970    717.33973   -8934.9771   -8854.9568   -1105.7745    18832.715    4.4355584 
    2980    718.46954    -8935.219   -8855.0727   -144.19004    18809.003    4.4602228 
    2990    709.39071   -8934.3091   -8855.1755    744.78288    18785.367    4.4866924 
    3000    725.07484   -8936.1615   -8855.2784    1229.6226    18762.878    4.5112016 
    3010    731.02865   -8936.9546   -8855.4072    1599.4562     18742.14     4.532057 
    3020    723.58346   -8936.2889   -8855.5721    2197.2612    18723.649    4.5497621 
    3030    728.14702   -8936.9905   -8855.7646    2469.7153     18708.02    4.5658784 
    3040    735.03502   -8937.9948   -8856.0005    2776.4662    18695.608    4.5823766 
    3050    714.32798   -8935.9549   -8856.2705    3102.1246    18686.773    4.5982583 
    3060    712.50042   -8936.0416   -8856.5611    2304.2553    18681.693    4.6121324 
    3070    712.88368   -8936.3879   -8856.8647    1253.9314    18679.466     4.627764 
    3080     718.0237   -8937.2783   -8857.1817    552.01075     18678.84       4.6466 
    3090    744.09596   -8940.5522   -8857.5472   -84.563906    18678.883    4.6663976 
    3100    740.01082   -8940.5345   -8857.9852   -294.15757    18678.911    4.6861867 
    3110     748.9317   -8942.0529   -8858.5084   -1325.0638    18678.496    4.7036124 
    3120    752.62114   -8943.0811   -8859.1251   -1793.5225    18676.545    4.7202665 
    3130    737.38088   -8942.0666   -8859.8107   -1244.5663    18672.527     4.743487 
    3140     726.2569   -8941.5156   -8860.5006   -755.63311     18666.99    4.7773812 
    3150    721.23503   -8941.6081   -8861.1532   -424.15528    18660.553    4.8191197 
    3160    710.16935   -8940.9428   -8861.7224   -297.92717     18653.63    4.8644952 
    3170      727.628   -8943.3742   -8862.2062   -541.10699    18646.363    4.9117261 
    3180    736.59173   -8944.8052   -8862.6373   -602.02135    18638.514    4.9630482 
    3190     725.2875   -8943.9163   -8863.0094   -604.51858    18630.009    5.0204388 
    3200    750.60135   -8947.0834   -8863.3526   -1321.0523    18620.736    5.0805126 
    3210    747.65017   -8947.1033   -8863.7018    -1094.065    18610.064    5.1376308 
    3220    740.22468   -8946.6296   -8864.0564   -1139.8785    18598.121    5.1879266 
    3230    766.74392   -8949.9775    -8864.446    -1903.587    18584.793    5.2307592 
    3240    769.41062   -8950.7307   -8864.9018   -1904.7573    18569.322    5.2726684 
    3250    762.34586   -8950.4498    -8865.409   -995.65984    18551.765    5.3220326 
    3260    764.00534   -8951.1802   -8865.9542   -335.77387    18533.111    5.3799965 
    3270    757.26298   -8951.0136   -8866.5398    4.6824649    18514.171    5.4418661 
    3280    735.45028   -8949.1718   -8867.1312    474.29095    18495.417    5.5033959 
    3290    729.09776   -8949.0283   -8867.6963    572.21346    18477.351    5.5620521 
    3300    734.98132   -8950.2339   -8868.2456    137.43548    18460.071    5.6172942 
    3310    740.04135    -8951.345   -8868.7923   -118.48256    18443.129    5.6693433 
    3320    744.12548   -8952.3588   -8869.3504   -264.05889    18426.201    5.7180839 
    3330    738.86781   -8952.3417   -8869.9199    -644.3816    18409.084    5.7633667 
    3340    740.87794   -8953.1467   -8870.5006   -1405.5799      18391.3    5.8037684 
    3350    744.52748   -8954.1637   -8871.1105   -1549.7253    18372.054    5.8427346 
    3360    728.41869   -8952.9706   -8871.7144   -734.25217    18351.257    5.8898407 
    3370     744.1286   -8955.3233   -8872.3147   -623.38486    18329.704    5.9482927 
    3380    742.58545   -8955.7666     -8872.93   -474.76465    18307.644    6.0154289 
    3390    722.27341   -8954.0998   -8873.5291    17.755244    18285.276    6.0855252 
    3400    733.89572   -8955.9625   -8874.0953    378.61421    18263.124    6.1553596 
    3410    743.82726   -8957.6356   -8874.6606    1026.0439     18241.68    6.2260082 
    3420    733.93827   -8957.0834   -8875.2115    1400.3577    18221.665    6.2996438 
    3430    754.86761   -8959.9791   -8875.7725   -139.19041    18203.272    6.3744627 
    3440    758.72417   -8961.0258    -8876.389   -1044.1426    18185.018    6.4462643 
    3450    722.01992   -8957.5407   -8876.9982   -297.82828    18165.966    6.5148215 
    3460    722.89421   -8958.1991   -8877.5592    247.27559    18146.809    6.5833715 
    3470    754.76058   -8962.3234   -8878.1287   -491.97918    18128.049    6.6522713 
    3480    741.14094   -8961.4049   -8878.7295   -334.85955    18109.077    6.7197341 
    3490     723.0503   -8959.9582   -8879.3009    358.18924    18090.031    6.7830722 
    3500    739.32742   -8962.3304   -8879.8573    798.20669    18071.617    6.8424859 
    3510    725.80476   -8961.3725   -8880.4079    1627.5984    18054.433    6.9021438 
    3520    738.12462   -8963.2972   -8880.9583    1442.3126    18039.228    6.9620643 
    3530    751.53652   -8965.3598   -8881.5248    1028.0117    18025.852    7.0221615 
    3540    738.21674   -8964.4471   -8882.0979    800.70137     18013.84    7.0808715 
    3550    736.97043   -8964.8832    -8882.673   -156.50244    18002.833    7.1342606 
    3560     746.2973   -8966.5171   -8883.2666   -1651.1862     17991.75    7.1800219 
    3570    753.90643   -8967.9955   -8883.8961   -2893.3365    17978.972     7.221695 
    3580    759.50312   -8969.3082   -8884.5845   -3469.6263    17963.157    7.2673655 
    3590     736.2583   -8967.4227    -8885.292   -3094.5609    17943.764    7.3178263 
    3600    759.14893   -8970.6883    -8886.004   -3764.2608    17921.035    7.3688655 
    3610    791.90192   -8975.1562   -8886.8183   -4711.3854    17894.376    7.4226781 
    3620    763.28031   -8972.8631   -8887.7181   -4322.9972     17862.99    7.4814631 
    3630     752.6056   -8972.5658   -8888.6115   -3633.2911    17827.311    7.5418051 
    3640     785.1594   -8977.0888    -8889.503   -2960.4284    17788.235    7.6006774 
    3650    812.95263   -8981.1623   -8890.4763   -2483.3567    17746.586    7.6580058 
    3660    785.95294   -8979.1695   -8891.4952    -1019.474    17703.168    7.7138091 
    3670    782.61108    -8979.767   -8892.4656    186.83341    17659.591    7.7652717 
    3680    799.10657   -8982.5829   -8893.4413    660.39454    17617.201    7.8109452 
    3690    795.70432   -8983.1863   -8894.4242    721.18672    17576.579     7.852621 
    3700    831.69397   -8988.2602   -8895.4835   -408.62366    17537.717    7.8914518 
    3710     841.7886   -8990.5936   -8896.6908   -687.51951    17499.612    7.9283391 
    3720    826.14607   -8990.1378     -8897.98    189.27186     17461.99    7.9626859 
    3730    810.90917   -8989.7085   -8899.2504    1335.2245    17425.778    7.9919318 
    3740    818.06411   -8991.7175   -8900.4612    2173.9797    17392.126    8.0150477 
    3750    850.04067   -8996.5081   -8901.6848    2422.2097    17361.831    8.0336494 
    3760    862.55229   -8999.2305   -8903.0115    2202.6257    17335.088    8.0496677 
    3770    844.74181    -8998.643   -8904.4108    1959.1278    17311.613     8.066494 
    3780    838.68714   -8999.3801   -8905.8233      555.108    17290.913    8.0856088 
    3790    858.32358   -9003.0593    -8907.312   -1650.7339    17271.433    8.1109057 
    3800    860.67571   -9004.9068   -8908.8971    -2447.971    17251.114    8.1499853 
    3810    863.27252   -9006.8672   -8910.5679   -3053.7274    17228.987    8.2042721 
    3820     854.7923   -9007.6487   -8912.2953   -2917.9961    17204.562    8.2705528 
    3830    826.29714   -9006.1603   -8913.9856    -1548.012    17178.122    8.3431308 
    3840    808.77336   -9005.7524   -8915.5325     517.2113    17151.161    8.4160251 
    3850    837.23914   -9010.4128   -8917.0175    1002.6845    17125.575    8.4866304 
    3860     863.3021   -9014.9055   -8918.6028    542.85951    17101.847    8.5519285 
    3870     842.4581   -9014.2514    -8920.274    838.33411    17079.638    8.6136586 
    3880    830.34059   -9014.5659   -8921.9401    461.61415    17058.998    8.6772481 
    3890    835.78925   -9016.8514   -8923.6178    293.18298    17039.599    8.7448213 
    3900    826.70063   -9017.5106   -8925.2909    1046.6089    17021.287    8.8153402 
    3910    841.80389   -9020.8675   -8926.9631    1412.3844    17004.643    8.8869759 
    3920    869.76812   -9025.7569   -8928.7329    1683.3735    16989.991    8.9600366 
    3930    871.50337    -9027.801   -8930.5834    2634.1514    16977.611    9.0345271 
    3940    888.63904   -9031.6644   -8932.5354    3433.4904    16968.279    9.1090982 
    3950    866.41648   -9031.2177   -8934.5676    3897.8718    16962.666    9.1811341 
    3960    842.88249   -9030.5568    -8936.532    3311.3386     16961.04    9.2469486 
    3970     858.7824   -9034.2706   -8938.4722    1912.1816    16962.671    9.3034705 
    3980    851.48522   -9035.3879   -8940.4035    1022.0633    16966.198    9.3514267 
    3990      846.964   -9036.7888   -8942.3087    524.97057    16970.653    9.3934901 
    4000    839.62806   -9037.8478   -8944.1861    86.053519    16975.512     9.433112 
    4010    852.54523   -9041.1655   -8946.0628   -1219.0226    16980.205    9.4718823 
    4020    855.88232   -9043.4645   -8947.9895   -1746.9961    16983.603    9.5094224 
    4030    837.86136   -9043.3544   -8949.8897   -1465.0437    16985.233    9.5449451 
    4040    860.57213   -9047.7927   -8951.7946   -1739.8634    16985.314     9.578284 
    4050    880.87931   -9052.0771   -8953.8137   -2191.4042    16983.647    9.6101613 
    4060     859.2396   -9051.7483   -8955.8989   -1737.3987    16979.935    9.6451523 
    4070    844.17504   -9052.0921   -8957.9231   -817.16224    16974.659    9.6872737 
    4080    852.18233   -9054.9811   -8959.9189    143.80423     16968.72    9.7350554 
    4090    832.71507   -9054.7667   -8961.8761    1893.1864    16963.204    9.7805552 
    4100    854.81724   -9059.1662   -8963.8101    2444.3842    16959.656    9.8146004 
    4110    878.66935   -9063.9074   -8965.8905    1742.6934    16958.527    9.8351203 
    4120    819.45232   -9059.3699   -8967.9588    2573.8114     16959.36    9.8449817 
    4130    818.84397   -9061.2378   -8969.8945    2408.0943    16962.645    9.8467483 
    4140     846.2912   -9066.2407   -8971.8356    485.37418     16968.08    9.8449706 
    4150    835.01522    -9066.959   -8973.8118   -551.28998    16973.961    9.8451292 
    4160    823.77962   -9067.6441   -8975.7502   -1541.0254    16979.144    9.8517195 
    4170    846.26016   -9072.1093   -8977.7077   -2346.7287    16982.673    9.8660778 
    4180    854.22088   -9075.0316    -8979.742   -1563.8349    16983.908    9.8856972 
    4190    849.97116   -9076.6367   -8981.8212   -797.09477    16983.548    9.9081681 
    4200     838.8792   -9077.4916   -8983.9134   -1112.0486    16982.291     9.935427 
    4210     807.9377    -9076.051   -8985.9243   -685.77068    16980.041    9.9683143 
    4220    788.33316   -9075.7036   -8987.7639    576.39211    16977.255    10.002861 
    4230    802.85888   -9079.0622    -8989.502    1990.8644    16975.128    10.035749 
    4240     801.4655   -9080.6387    -8991.234    3553.9235    16975.083    10.063864 
    4250    801.35081   -9082.3744   -8992.9825    4579.9257    16978.573    10.083195 
    4260    800.90024   -9084.1028   -8994.7612    4194.5531    16986.465    10.091495 
    4270     784.5225   -9084.0322   -8996.5175    2614.0154    16998.333    10.093103 
    4280    806.96039   -9088.2737   -8998.2561   -517.61537    17012.427    10.092466 
    4290     813.4684    -9090.761   -9000.0174   -3163.3243    17025.759    10.090992 
    4300    794.92415   -9090.4678   -9001.7928   -4710.6771    17035.686    10.088216 
    4310    766.60156   -9089.0155   -9003.4999   -4520.5569    17040.778    10.087415 
    4320      746.055   -9088.3231   -9005.0995   -2993.0315    17041.291    10.087434 
    4330    759.34702   -9091.3405   -9006.6342   -1195.4751    17038.792    10.080199 
    4340    775.19442   -9094.6557   -9008.1816    595.33344    17035.142    10.061481 
    4350    754.63301    -9093.868   -9009.6876     2682.496     17032.25    10.032248 
    4360    766.36299   -9096.6268   -9011.1378    3113.2058    17031.998    9.9937397 
    4370     763.0844   -9097.6847   -9012.5615     3184.929     17034.91    9.9517744 
    4380    741.03218   -9096.5763    -9013.913    2882.9736    17040.943    9.9087101 
    4390    744.75157   -9098.2811   -9015.2029    2035.5024    17049.708     9.860855 
    4400    753.90361   -9100.6043   -9016.5052    958.16642    17060.304    9.8072566 
    4410    733.12821   -9099.5678   -9017.7862    455.68551    17071.699    9.7559551 
    4420    744.97512   -9102.1436   -9019.0405    9.0791871    17083.328    9.7121893 
    4430    781.99494   -9107.6008    -9020.368   -1304.9927    17094.606     9.672567 
    4440    740.90812   -9104.3887   -9021.7393   -883.58625    17104.492    9.6358803 
    4450    697.43143   -9100.7847   -9022.9851   -715.29499    17113.192    9.6017083 
    4460    719.57896   -9104.3872    -9024.117   -1994.3084    17120.838    9.5693995 
    4470     722.6226   -9105.7929   -9025.1832   -3657.6727    17126.224    9.5406496 
    4480    719.23699   -9106.4449   -9026.2129   -4191.4618    17127.848    9.5178818 
    4490    697.22727   -9104.9808    -9027.204   -3520.8568    17125.277    9.5001752 
    4500    678.40448   -9103.7653   -9028.0883    -2277.161    17119.255    9.4882158 
    4510    706.99638   -9107.7727   -9028.9062   -1461.8902    17111.029    9.4806945 
    4520    720.14666   -9110.0281   -9029.6946    382.86012    17101.671    9.4737196 
    4530    726.34291   -9111.4821   -9030.4574    2593.9412    17093.021    9.4703317 
    4540    727.02987   -9112.3113     -9031.21    3352.1197    17087.114    9.4689865 
    4550    736.34721   -9114.1343   -9031.9936    3017.8116    17084.682    9.4641052 
    4560    725.38763   -9113.7251    -9032.807    2062.1442    17085.317    9.4597685 
    4570    704.24559   -9112.1766   -9033.6169    1202.8265    17088.038    9.4560056 
    4580    689.38103   -9111.2784   -9034.3769    526.53193    17091.908    9.4449893 
    4590    692.23815   -9112.2726   -9035.0524   -181.24427    17096.204      9.42759 
    4600    717.46849   -9115.7232   -9035.6885   -1032.4784    17100.153    9.4053438 
    4610    711.10365   -9115.6138   -9036.2891   -1058.9565    17102.998    9.3770292 
    4620    708.72196   -9115.9123   -9036.8533   -1188.2081    17104.677    9.3499197 
    4630    713.52016   -9116.9859   -9037.3917   -2645.0586    17104.965    9.3283649 
    4640    742.66678   -9120.8249   -9037.9793   -3968.7937    17102.571    9.3137797 
    4650    727.65131   -9119.8128   -9038.6422   -4113.3029     17096.33    9.3109974 
    4660    705.10835   -9117.9654   -9039.3095   -3326.3684    17086.212    9.3155051 
    4670    715.99451   -9119.8313    -9039.961   -1536.3342    17073.148    9.3247317 
    4680    710.08133   -9119.7973   -9040.5867    761.35873    17058.987    9.3436628 
    4690    701.71754   -9119.4613   -9041.1836    1921.7867    17045.906    9.3733254 
    4700    710.73346   -9121.0444    -9041.761     2583.664    17035.139    9.4126933 
    4710    739.38389   -9124.8483   -9042.3689     1919.343    17027.149    9.4607623 
    4720    727.81721    -9124.212   -9043.0229    1700.7332    17021.373    9.5122982 
    4730    706.14931   -9122.4387   -9043.6667    1746.0442    17017.496    9.5619806 
    4740    723.32365   -9124.9637   -9044.2758    1207.3674    17015.422    9.6060123 
    4750    742.00774    -9127.686   -9044.9139    937.33761    17014.614    9.6380273 
    4760    734.15223   -9127.4992   -9045.6034     1803.208    17014.913    9.6607629 
    4770    734.03516   -9128.2279   -9046.3452    1365.9711    17016.888    9.6825263 
    4780    709.40457   -9126.2174   -9047.0823    597.94569    17020.189    9.7064114 
    4790     714.1075   -9127.4411   -9047.7813   -1037.6959    17023.934    9.7303311 
    4800    738.47046   -9130.8719   -9048.4944   -2659.4003    17026.534    9.7506642 
    4810    728.63711    -9130.526   -9049.2455   -2943.8962    17026.504     9.765315 
    4820    718.08466   -9130.1176   -9050.0142   -3080.4612    17023.525    9.7773291 
    4830    723.40792   -9131.4916   -9050.7944   -3419.7559    17017.501    9.7954803 
    4840    731.47497   -9133.1957   -9051.5986   -2906.8468    17008.269    9.8268221 
    4850    727.56776   -9133.5802   -9052.4189   -1950.9634    16996.388    9.8733781 
    4860    713.83038   -9132.8478   -9053.2189   -1436.8069    16982.796    9.9310086 
    4870    719.74763   -9134.2714   -9053.9825   -1209.4707    16968.069    9.9890934 
    4880    730.82048   -9136.2864   -9054.7623    -594.8958    16952.499    10.035276 
    4890     697.3503   -9133.3128   -9055.5224    1103.1783    16936.816    10.063543 
    4900    721.64734   -9136.7477   -9056.2468    2022.9558    16922.529    10.070783 
    4910    752.01396   -9140.9083     -9057.02    3034.6144    16910.591    10.061078 
    4920    713.73393   -9137.4201    -9057.802    5298.7978    16902.095     10.04134 
    4930    713.58469   -9138.1594    -9058.558    6070.3677    16898.926    10.010722 
    4940    731.41997   -9140.9102   -9059.3192    5679.8675    16901.761    9.9649104 
    4950    731.73137   -9141.7396   -9060.1138    5621.6142    16910.213    9.9045017 
    4960    705.15059   -9139.5632   -9060.9026    4746.1901    16923.983    9.8364031 
    4970    693.12271   -9138.9425   -9061.6236    2375.1929    16942.069     9.768415 
    4980    699.43589   -9140.2847   -9062.2616    -135.2845    16962.103    9.7071999 
    4990    688.52258   -9139.6181   -9062.8124   -1103.5771    16981.661    9.6573501 
    5000     700.4756   -9141.4328   -9063.2937   -2070.3218     16999.63    9.6193839 
Loop time of 2109.16 on 16 procs for 3000 steps with 864 atoms

Performance: 0.123 ns/day, 195.293 hours/ns, 1.422 timesteps/s
96.9% CPU use with 16 MPI tasks x 1 OpenMP threads

MPI task timing breakdown:
Section |  min time  |  avg time  |  max time  |%varavg| %total
---------------------------------------------------------------
Pair    | 449.95     | 1154.2     | 2105.5     |1525.6 | 54.72
Bond    | 0.00023341 | 0.00053418 | 0.0011168  |   0.0 |  0.00
Neigh   | 0.022741   | 0.054988   | 0.098279   |  10.8 |  0.00
Comm    | 2.1747     | 618.34     | 1503.1     |1826.5 | 29.32
Output  | 0.21556    | 0.21901    | 0.26904    |   2.8 |  0.01
Modify  | 1.1485     | 336.38     | 762.76     |1537.0 | 15.95
Other   |            | 0.01608    |            |       |  0.00

Nlocal:        54.0000 ave          82 max          25 min
Histogram: 3 2 1 1 1 1 1 1 1 4
Nghost:        554.938 ave         773 max         359 min
Histogram: 4 0 1 3 0 2 1 2 1 2
Neighs:         0.00000 ave           0 max           0 min
Histogram: 16 0 0 0 0 0 0 0 0 0
FullNghs:      3026.00 ave        5876 max         683 min
Histogram: 5 1 1 1 0 2 1 1 0 4

Total # of neighbors = 48416
Ave neighs/atom = 56.037037
Ave special neighs/atom = 0.0000000
Neighbor list builds = 300
Dangerous builds = 300
unfix   2

fix     3 all npt temp 712.5 712.5 $(100.0*dt) aniso 1.01325 1.01325 $(1000.0*dt)
fix     3 all npt temp 712.5 712.5 0.10000000000000000555 aniso 1.01325 1.01325 $(1000.0*dt)
fix     3 all npt temp 712.5 712.5 0.10000000000000000555 aniso 1.01325 1.01325 1
run     20000
Per MPI rank memory allocation (min/avg/max) = 8.895 | 8.912 | 8.921 Mbytes
Step Temp PotEng TotEng Press Volume c_msd[4] 
    5000     700.4756   -9141.4328   -9063.2937   -2070.3218     16999.63    9.6193839 
    5010    717.87455   -9143.3818   -9063.3018   -1674.8702    16998.619    9.6342628 
    5020    691.22176   -9140.4238    -9063.317   -534.57994    16995.975    9.6605953 
    5030    685.36872   -9139.7523   -9063.2984    771.79932    16992.827    9.6953439 
    5040     710.4254   -9142.4731   -9063.2241    1390.6295    16990.402    9.7344107 
    5050    697.74815   -9140.9414   -9063.1065    1760.5303    16989.385    9.7765313 
    5060    694.94559    -9140.472   -9062.9497    1377.8931    16990.083     9.817843 
    5070    691.76949    -9139.901   -9062.7331    774.53428    16992.189    9.8516702 
    5080     696.5228   -9140.1531   -9062.4549   -829.59917    16994.989    9.8758164 
    5090    719.54226   -9142.3943   -9062.1283   -2153.3838     16996.98    9.8948371 
    5100    703.80842   -9140.2864   -9061.7755   -1956.8522    16996.913    9.9140192 
    5110    707.19683   -9140.2795   -9061.3906   -1593.8593    16994.858    9.9359867 
    5120    735.31864   -9142.9856   -9060.9597   -1528.7396    16991.147     9.962572 
    5130    725.25561   -9141.4167   -9060.5134   -320.90027    16986.027    9.9899741 
    5140    729.36628   -9141.4305   -9060.0686    775.38849    16980.528    10.014477 
    5150    744.06779   -9142.6291   -9059.6273    2260.3096    16975.852    10.033967 
    5160    715.89268   -9139.0754   -9059.2165    4158.3487    16973.541    10.044504 
    5170    708.29337   -9137.8339   -9058.8227    4806.2698    16975.365    10.042018 
    5180    737.96192   -9140.7294   -9058.4086    4370.4014    16981.975    10.027998 
    5190    744.77632   -9141.0774   -9057.9965    4032.8263    16993.066    10.004312 
    5200    764.29958   -9142.8873   -9057.6286     2612.747    17008.198    9.9731237 
    5210    752.98171   -9141.3174   -9057.3211    1112.7664    17026.066    9.9396607 
    5220    744.60451   -9140.1468    -9057.085   -518.25541    17045.134    9.9088946 
    5230      757.372    -9141.376     -9056.89   -2349.8804    17063.742    9.8849179 
    5240    746.69162   -9140.0564   -9056.7619   -3781.2382    17080.051     9.869728 
    5250    722.79187   -9137.3226   -9056.6941   -4970.9767    17092.534    9.8613455 
    5260    754.42822   -9140.8376     -9056.68   -6257.3859    17099.906    9.8591322 
    5270    756.29936   -9141.1427   -9056.7764    -5741.792    17101.021    9.8610306 
    5280    735.82918   -9139.1004   -9057.0176   -4481.5164    17096.285    9.8627169 
    5290    765.11807   -9142.7764   -9057.4263   -4481.2523    17086.765    9.8627013 
    5300    760.02364    -9142.831   -9058.0492   -3043.9022    17072.751    9.8633203 
    5310    750.01601   -9142.5403   -9058.8749   -655.68289     17055.67    9.8634226 
    5320    747.52937   -9143.2589   -9059.8709    958.77148    17037.809    9.8654685 
    5330    707.25526   -9139.7992   -9060.9038    2394.2978    17020.914    9.8726407 
    5340     706.0616   -9140.5866   -9061.8244    2742.1788    17006.338    9.8852311 
    5350     736.7355   -9144.8403   -9062.6564    2787.1262    16994.506    9.9046579 
    5360     726.0087   -9144.3825   -9063.3952    3392.7039    16985.515    9.9309518 
    5370    735.40918   -9146.0754   -9064.0394    4133.3236     16979.97    9.9585273 
    5380       728.49   -9145.8694   -9064.6052    4394.5741    16978.584    9.9821052 
    5390    732.02066   -9146.7623   -9065.1043    3882.9291    16981.623    10.000902 
    5400    760.39541   -9150.4368   -9065.6135    2922.1903    16988.586    10.012399 
    5410    724.08736   -9146.9003   -9066.1273    2412.1351    16998.618    10.019728 
    5420    731.07042   -9148.1669   -9066.6149    814.68943    17011.038    10.028599 
    5430    733.69321   -9148.9238   -9067.0793   -522.57343    17024.363     10.04228 
    5440    692.60244   -9144.7494   -9067.4886   -1345.2157    17037.265    10.062527 
    5450    720.05644   -9148.1482   -9067.8248   -2958.6979    17048.738    10.092495 
    5460    746.66977   -9151.4478   -9068.1556   -4019.0604    17057.262     10.12991 
    5470    725.23728   -9149.4345   -9068.5332   -3662.3891    17061.836     10.16557 
    5480    733.41959    -9150.771   -9068.9569   -3638.0228    17062.612    10.192982 
    5490    729.90237   -9150.8448   -9069.4231   -3761.2002     17059.64    10.215227 
    5500    713.68588   -9149.5052   -9069.8925   -3051.6528    17052.913    10.237889 
    5510     746.2805   -9153.6448    -9070.396   -2766.4644    17042.974       10.265 
    5520    723.46198   -9151.6347   -9070.9314   -1411.2498    17030.311    10.297277 
    5530    724.70521   -9152.3149    -9071.473   -810.94922    17016.103    10.327168 
    5540    725.69156   -9152.9747   -9072.0228   -231.23517    17001.036    10.348189 
    5550    680.96217   -9148.4636   -9072.5012    1877.5939    16985.853     10.36217 
    5560    686.07598   -9149.3948    -9072.862    2814.0042    16972.434    10.369811 
    5570    712.13256   -9152.5838   -9073.1444    2782.7829    16961.777    10.369909 
    5580     728.2234   -9154.6581   -9073.4237    2934.2301    16953.948    10.362854 
    5590     724.4032   -9154.5423    -9073.734    2985.0776    16949.074    10.349665 
    5600     707.8399   -9153.0242   -9074.0636    2899.0042    16947.201    10.325031 
    5610    706.62487   -9153.1981   -9074.3731    2750.2985    16948.271    10.289705 
    5620    724.73432    -9155.517   -9074.6718    1575.8903     16952.03    10.254523 
    5630    720.82492   -9155.3769   -9074.9678    1089.6006    16957.482    10.226071 
    5640    724.22611   -9156.0554   -9075.2669    703.04924    16964.048    10.207207 
    5650    726.90567   -9156.6869   -9075.5995    797.80177     16971.41    10.196751 
    5660    706.67294   -9154.7784   -9075.9479     1292.352    16979.648    10.187509 
    5670    718.93092   -9156.4891   -9076.2913    516.94717      16989.1    10.178385 
    5680    731.48408   -9158.2607   -9076.6626   -500.59153     16999.08     10.17616 
    5690    693.76116    -9154.434   -9077.0439    264.88764    17008.818    10.184748 
    5700    691.22265   -9154.4982   -9077.3913   -258.44783    17018.723    10.207568 
    5710    718.60156   -9157.8514   -9077.6903   -1767.2519    17028.315    10.247388 
    5720    709.12363   -9157.0667   -9077.9629   -2464.0878    17036.217    10.297622 
    5730    690.33981   -9155.2137   -9078.2053   -2069.1806    17041.748    10.345378 
    5740    715.77738   -9158.2605   -9078.4144    -2588.332    17045.082    10.386999 
    5750    703.83959   -9157.1291   -9078.6147   -2128.7706    17045.872    10.421234 
    5760    698.12613    -9156.688   -9078.8109   -983.68118    17044.548    10.446321 
    5770    698.68372   -9156.9158   -9078.9766   -183.16849    17042.167    10.471499 
    5780    678.28646   -9154.7515   -9079.0876    1084.1304    17039.636    10.499842 
    5790    683.89403    -9155.425   -9079.1356    2264.8793    17038.208    10.522505 
    5800    702.97382   -9157.5513   -9079.1335    2861.9024    17039.058     10.53866 
    5810    713.61899   -9158.7379   -9079.1326    3018.6909    17042.801    10.547402 
    5820    688.81502   -9155.9652   -9079.1269    2997.8555    17049.688    10.541073 
    5830    715.47548   -9158.9102   -9079.0979    1126.6357    17059.524    10.524237 
    5840     705.3833   -9157.7185   -9079.0319   -565.69713    17070.638    10.508457 
    5850    688.04794   -9155.6828     -9078.93   -2426.5825    17081.248    10.494884 
    5860    717.07476   -9158.7601   -9078.7693   -4206.8013    17089.439    10.482106 
    5870    703.19646   -9157.0233   -9078.5807   -4293.6393    17093.485    10.470138 
    5880    665.71758   -9152.6017   -9078.3399   -3169.1389    17093.231    10.457925 
    5890    696.91617   -9155.7234   -9077.9814   -2882.6553    17089.594    10.445018 
    5900     725.4258   -9158.4155   -9077.4932   -1889.0808     17083.03    10.435946 
    5910    719.22035   -9157.1678   -9076.9376    373.91246    17074.607    10.434897 
    5920    727.78385   -9157.5146   -9076.3292    1420.9129    17066.381    10.444633 
    5930    747.61675   -9159.0812   -9075.6834    552.04264    17059.377    10.469104 
    5940    740.16333   -9157.6272   -9075.0609   -623.00561    17052.887    10.503413 
    5950    736.67318   -9156.6824   -9074.5054    -49.53863    17045.901    10.537561 
    5960    735.80905   -9156.0666    -9073.986      1277.83    17038.876    10.570912 
    5970    773.11754   -9159.7626   -9073.5202    1838.5356    17033.035    10.607095 
    5980    788.78826   -9161.1535    -9073.163    2738.7843     17029.08    10.652577 
    5990    767.40408   -9158.5749   -9072.9699    4100.0286    17027.941    10.707915 
    6000    759.01224   -9157.5785   -9072.9095    3858.9059    17030.834    10.764958 
    6010    765.29714   -9158.3243   -9072.9543    2874.1346    17037.674    10.816437 
    6020    764.99451    -9158.457   -9073.1207    1828.0104    17047.539    10.860021 
    6030      748.947   -9156.9543   -9073.4081    748.16468    17059.365    10.898233 
    6040    737.85652   -9156.0841   -9073.7751   -527.45218    17072.065    10.933317 
    6050    751.77852   -9158.0855   -9074.2235   -1557.5091    17084.393    10.968158 
    6060    734.71314   -9156.7283     -9074.77   -2127.6071    17095.253     11.00155 
    6070    722.78152   -9156.0264   -9075.3991   -2596.3199     17104.04      11.0248 
    6080    718.44493   -9156.2026    -9076.059   -3975.2051    17110.135    11.037749 
    6090    723.65678   -9157.4393   -9076.7143    -5424.262    17112.199    11.040021 
    6100     732.7549   -9159.1109    -9077.371   -6382.5461    17108.684    11.033551 
    6110    716.23825    -9157.893   -9077.9955   -4432.3132     17098.83    11.027987 
    6120    708.42308   -9157.5364   -9078.5107    -1781.973    17084.363    11.029962 
    6130    716.66512   -9158.8575   -9078.9124   -22.808368    17067.832    11.038946 
    6140    734.25616   -9161.1414    -9079.234     1116.462    17051.076    11.049186 
    6150    747.48505   -9162.9091    -9079.526    2492.3633    17035.363    11.058833 
    6160    739.88848   -9162.3457     -9079.81    4882.0905    17022.164    11.069662 
    6170    712.61261   -9159.5615   -9080.0685    7447.6558    17013.868    11.074396 
    6180    710.49354    -9159.556   -9080.2994    8788.9965    17013.042    11.061404 
    6190    748.75708   -9164.0653   -9080.5403    7265.4139    17020.951     11.03379 
    6200    760.66488    -9165.698   -9080.8447    5128.0646    17036.365    11.007321 
    6210     725.3022   -9162.0999   -9081.1913    3835.4938    17057.308    10.984919 
    6220     725.3638    -9162.463   -9081.5475    2060.3338    17082.388    10.969015 
    6230     711.7301   -9161.2632   -9081.8687   -501.89498    17109.796    10.963214 
    6240    702.17342   -9160.4456   -9082.1171   -3524.4608     17136.95    10.968144 
    6250    717.62943   -9162.3538   -9082.3012   -6892.0671    17160.674    10.978813 
    6260    716.26233   -9162.3723   -9082.4722   -8673.0581    17177.602    10.994638 
    6270    713.49071   -9162.2701   -9082.6791    -8683.197    17185.758    11.020363 
    6280    706.97649    -9161.791   -9082.9267   -6926.7286      17185.1     11.05163 
    6290     701.0011   -9161.3743   -9083.1765   -4702.2153    17177.268    11.080087 
    6300    721.22624   -9163.8881   -9083.4342    -3444.215     17164.33    11.099742 
    6310    702.83755    -9162.099   -9083.6964   -1731.3228    17147.739    11.110755 
    6320    692.53937   -9161.1773   -9083.9235    -119.0078    17129.207    11.119051 
    6330    734.38063   -9166.0527   -9084.1314    699.73107    17110.289    11.127808 
    6340    737.80393    -9166.663   -9084.3599    2346.9675    17092.036    11.138995 
    6350    699.51869   -9162.6297   -9084.5973    4039.9378    17076.042    11.156538 
    6360    682.23863   -9160.8792   -9084.7744    5063.7201    17064.013    11.175801 
    6370    701.60412   -9163.1663   -9084.9013    4692.9738    17056.974    11.186079 
    6380    704.14512   -9163.5564    -9085.008    3834.0829    17054.674     11.18835 
    6390    718.79745   -9165.3075   -9085.1246    2968.1621    17056.285    11.185651 
    6400      734.186   -9167.1808   -9085.2812    2660.9646    17061.021    11.178678 
    6410    729.50344   -9166.8799   -9085.5027    2035.0284     17068.51    11.164823 
    6420    713.56819   -9165.3692   -9085.7696     1483.326    17078.207    11.144801 
    6430    695.42898    -9163.616   -9086.0398    547.72808    17089.501    11.126099 
    6440    699.97007   -9164.3746   -9086.2918    -1493.416    17101.356    11.109804 
    6450    693.99303   -9163.9473   -9086.5313   -2611.3666     17111.91    11.094717 
    6460    698.79656   -9164.7183   -9086.7665   -3213.2619    17119.912    11.086825 
    6470    702.76945   -9165.3995   -9087.0045   -2735.2589    17124.789    11.086249 
    6480     677.7121   -9162.8211   -9087.2213   -2022.0448    17126.907    11.086548 
    6490    673.56162   -9162.5229   -9087.3861   -1937.7104    17126.878    11.089588 
    6500    684.57902   -9163.8611   -9087.4953   -1674.7634    17124.846    11.098038 
    6510    694.69995   -9165.0387   -9087.5438   -227.89882    17121.163    11.109534 
    6520    700.98827   -9165.7041   -9087.5078    2063.3196    17117.267    11.121751 
    6530    694.37711   -9164.8579   -9087.3991    3829.3093    17115.399    11.134156 
    6540    690.29507   -9164.2407   -9087.2372    4079.1452    17117.343    11.146704 
    6550    689.55699   -9163.9277   -9087.0065    3406.3981     17123.48    11.159213 
    6560    693.93797   -9164.1029    -9086.693    1903.9999    17133.132    11.175105 
    6570    709.88383   -9165.4776    -9086.289   -279.13646    17144.793    11.194255 
    6580    697.21992   -9163.5748   -9085.7989   -1618.1566    17156.394    11.212671 
    6590    701.39937   -9163.4847   -9085.2426   -2795.4531    17166.444    11.228245 
    6600    717.02391    -9164.602   -9084.6169   -3396.0693    17173.739    11.241874 
    6610    706.84373   -9162.7993   -9083.9498   -3454.9708    17177.608    11.254718 
    6620    723.25426   -9163.9463   -9083.2662   -3850.5646    17177.869     11.27031 
    6630    721.47331   -9163.0819   -9082.6004   -2928.2967    17174.246    11.294098 
    6640    696.73317   -9159.7166    -9081.995   -769.98291    17167.659    11.324371 
    6650     703.6816   -9159.9145   -9081.4178   -97.371185    17160.061    11.358992 
    6660    741.45936   -9163.5806   -9080.8697   -618.44297    17152.192    11.397948 
    6670    755.66439   -9164.7158   -9080.4203   -1565.2973    17143.531    11.437755 
    6680    720.56746   -9160.4767   -9080.0963   -1230.1077    17133.308    11.473495 
    6690    724.30734   -9160.6514   -9079.8538   -656.05359    17121.718    11.500654 
    6700    738.25784   -9162.0101   -9079.6564    148.19977    17109.343    11.520191 
    6710    742.24285   -9162.3246   -9079.5263    1076.9578    17097.005    11.537505 
    6720    746.08626   -9162.6928   -9079.4657    1905.0497    17085.689     11.55514 
    6730    737.16015   -9161.6922   -9079.4609    2589.6011    17076.267    11.573261 
    6740    739.64313   -9162.0162   -9079.5079    2678.4353    17069.384    11.586763 
    6750     739.3519   -9162.0869   -9079.6111    2580.0268    17065.202     11.58894 
    6760    740.31507   -9162.3594   -9079.7761    2684.5213    17063.668    11.584361 
    6770    724.38117   -9160.8035   -9079.9977    2759.6046    17064.872      11.5762 
    6780    727.15148   -9161.3662   -9080.2514    2361.7813    17068.931    11.567154 
    6790    767.65496   -9166.2135   -9080.5805    835.25876    17075.325    11.556989 
    6800    729.47377   -9162.3601   -9080.9862      1081.93    17082.832     11.54496 
    6810    726.42969   -9162.4624   -9081.4281    566.79935     17091.44    11.528565 
    6820    749.72236   -9165.5431   -9081.9105   -466.39402    17100.665    11.508438 
    6830    705.59854   -9161.1062   -9082.3956   -88.427149    17109.685    11.493082 
    6840    701.51075   -9161.0885   -9082.8339   -799.90031    17118.623    11.488404 
    6850    725.97832   -9164.2073   -9083.2233   -2363.8892    17126.771    11.490233 
    6860    721.18082     -9164.05   -9083.6012   -2958.5541    17132.698    11.494491 
    6870     704.6055   -9162.5509   -9083.9511   -3451.4082    17135.639    11.501722 
    6880    704.84304   -9162.8843    -9084.258   -3655.0748    17135.058    11.514039 
    6890    702.85512   -9162.9102   -9084.5057   -3051.7669     17130.73    11.535084 
    6900    697.39768   -9162.4977    -9084.702   -1437.3836    17123.253    11.565886 
    6910    690.38085   -9161.8419   -9084.8288    474.99781    17114.196    11.601237 
    6920    719.21634   -9165.1503   -9084.9206    1005.9801    17105.379    11.633823 
    6930     695.4981    -9162.569   -9084.9851    1376.5693    17097.522    11.662585 
    6940    707.51743   -9163.9507    -9085.026    1712.1813     17091.02    11.686341 
    6950    746.25544   -9168.3242   -9085.0783    952.72416    17086.065    11.706504 
    6960    719.73663   -9165.4599   -9085.1722    842.92721    17082.074    11.728754 
    6970     726.4275   -9166.3362   -9085.3021    1457.8625    17078.967    11.754102 
    6980    730.71449   -9166.9698   -9085.4575    1790.2479    17077.297    11.783179 
    6990    710.17309   -9164.8453   -9085.6244    2153.4013    17077.504     11.81426 
    7000    725.20504   -9166.6801   -9085.7824    1721.6274    17079.882     11.83966 
    7010    722.85265   -9166.5706   -9085.9353     1475.253    17084.108    11.856994 
    7020    706.29795   -9164.8851   -9086.0965    2162.6194    17090.026    11.864474 
    7030    683.11638    -9162.428   -9086.2253    2594.2377    17098.279    11.858227 
    7040    685.78921   -9162.7897   -9086.2888    1095.5869    17109.182    11.841421 
    7050     732.8229    -9168.056   -9086.3085   -1669.6743    17121.272    11.824216 
    7060    737.68587   -9168.6327   -9086.3427   -2941.9698     17131.99    11.814157 
    7070    730.50246   -9167.9304   -9086.4417   -3359.1012    17139.901    11.810977 
    7080    726.55764   -9167.6364   -9086.5878   -3927.1335    17144.394    11.809582 
    7090    701.68992   -9165.0322   -9086.7576   -3532.3868    17144.973    11.810362 
    7100    685.10888   -9163.3386   -9086.9137   -3495.9587    17141.812    11.813979 
    7110    688.85899   -9163.8727   -9087.0294   -3016.3659    17135.018    11.820948 
    7120    705.23535   -9165.7674   -9087.0974   -2381.3471    17124.939    11.831925 
    7130    731.04975   -9168.7078   -9087.1581   -1192.4619    17112.214    11.843526 
    7140    714.10933   -9166.8816   -9087.2216    881.97924    17098.127    11.855041 
    7150    701.79496   -9165.5638   -9087.2775    2594.9966    17084.668    11.865719 
    7160    691.12475   -9164.3838   -9087.2878    4085.8344    17073.696    11.871211 
    7170    706.34079   -9166.0495   -9087.2561     4143.015    17066.639    11.867985 
    7180     719.2605   -9167.4412   -9087.2066    4385.2357    17063.804    11.857892 
    7190    719.48023   -9167.4397   -9087.1806    4921.6278    17065.513    11.846868 
    7200    726.49853    -9168.245   -9087.2029      4018.33    17072.209    11.838536 
    7210    733.32601    -9169.085   -9087.2814    2475.0222    17083.154    11.834087 
    7220    736.30264   -9169.5591   -9087.4234    719.10597    17096.862    11.834795 
    7230    737.98924   -9169.9844   -9087.6606   -1297.6229    17111.556    11.841449 
    7240    712.05667    -9167.439    -9088.008   -2604.4433    17125.297    11.852338 
    7250    698.01449   -9166.3142   -9088.4496   -3752.3437    17136.631    11.867869 
    7260    713.63071   -9168.6032   -9088.9966   -5146.9324    17144.249    11.888512 
    7270    706.86647   -9168.5108   -9089.6588   -6192.7242    17146.681    11.912849 
    7280    695.92443   -9168.0462   -9090.4148   -6333.8655    17142.752    11.940903 
    7290    674.69565   -9166.4445   -9091.1812   -5118.2061    17132.216     11.97262 
    7300    672.95883   -9166.9336    -9091.864   -2959.7773    17116.192    12.007867 
    7310    691.24961   -9169.5521   -9092.4422   -274.89409    17096.777    12.046632 
    7320    679.08401   -9168.6461   -9092.8932    3404.2959    17076.803    12.085419 
    7330    652.03769   -9165.9331   -9093.1973    6055.1599    17059.885    12.118281 
    7340    651.87682   -9166.0876   -9093.3698    7068.9625     17048.74    12.143833 
    7350    670.81921   -9168.2836   -9093.4527    7395.8807    17044.612    12.161554 
    7360    691.24575   -9170.6009   -9093.4913    6730.7339    17047.957    12.169881 
    7370    701.71271   -9171.7881    -9093.511    5598.2331    17058.337     12.16812 
    7380    705.31457    -9172.196   -9093.5171    3606.1339    17074.662    12.154825 
    7390    703.95005   -9172.0266   -9093.4999    1563.8148    17095.124     12.12578 
    7400    677.50673   -9168.9979    -9093.421    -254.7579    17117.721    12.080131 
    7410    671.51519   -9168.1477   -9093.2391   -2304.3636    17140.533    12.025935 
    7420    684.70238   -9169.3151   -9092.9355   -4281.0145    17161.452    11.976363 
    7430    691.51469   -9169.6691   -9092.5296    -5343.066    17178.443    11.938524 
    7440    693.83265   -9169.4717   -9092.0736   -6130.5303    17190.208    11.910536 
    7450    684.62006   -9167.9658   -9091.5954   -6264.9495    17195.842    11.888569 
    7460    683.45618   -9167.3432   -9091.1027   -6092.8508    17195.028     11.87144 
    7470    676.28235   -9166.0305   -9090.5901   -5840.2457    17187.805    11.859722 
    7480    681.46124   -9166.0723   -9090.0543   -5188.5291     17174.34    11.857519 
    7490    724.51329   -9170.3191   -9089.4986   -4108.7731    17155.205    11.872905 
    7500    736.31713   -9171.1025   -9088.9653   -1623.1198     17131.55    11.909925 
    7510     727.4845   -9169.6559   -9088.5039    1341.5004    17105.803    11.963186 
    7520    723.99618   -9168.8615   -9088.0986    3920.4207    17080.937    12.025742 
    7530    713.92015   -9167.3713   -9087.7324    7346.0323    17059.808    12.089694 
    7540    689.44082   -9164.3001    -9087.392    10218.045    17045.849     12.14396 
    7550    700.40076   -9165.2262   -9087.0954    10339.418    17041.927     12.18116 
    7560    735.37937   -9168.8925   -9086.8599    8076.8499    17048.408    12.203575 
    7570    747.43069   -9170.0933   -9086.7163    5104.5111    17063.316    12.216993 
    7580    709.75434   -9165.8141     -9086.64    2480.3669    17083.852    12.222363 
    7590    678.17279   -9162.2029   -9086.5517    182.84774    17107.426    12.218437 
    7600    700.12186   -9164.4873   -9086.3877   -2674.7744    17131.567    12.206178 
    7610    721.07322   -9166.6088    -9086.172   -4051.9074    17153.542    12.193245 
    7620     730.6221   -9167.4793   -9085.9773    -4717.655    17171.713    12.187161 
    7630    727.57789   -9167.0017   -9085.8393   -4393.6176     17185.36    12.190709 
    7640    712.76391   -9165.2703   -9085.7604   -4409.9579    17194.619    12.200921 
    7650    708.12705   -9164.6989   -9085.7062   -5686.0997    17199.294    12.210621 
    7660    721.88895   -9166.2039   -9085.6761    -6481.407    17198.129    12.212026 
    7670    710.51211   -9164.9351   -9085.6764   -5951.0195    17190.267    12.205443 
    7680    709.60375   -9164.8451   -9085.6878   -4369.4845     17176.14    12.195945 
    7690    712.47719   -9165.1489    -9085.671   -2304.3492    17157.248    12.185598 
    7700    717.91456   -9165.7125    -9085.628   -278.85948    17135.647    12.172066 
    7710    733.46202   -9167.3903   -9085.5715    965.12938    17113.364    12.159287 
    7720    748.09149   -9168.9981   -9085.5474    2148.4322     17091.77    12.154094 
    7730    706.14887   -9164.3269   -9085.5549    4500.3149    17072.249    12.156758 
    7740    698.64102   -9163.5013   -9085.5668    5795.3336    17057.042    12.165306 
    7750    738.80938   -9168.0222   -9085.6069    5814.0804    17047.499    12.176371 
    7760    729.25317    -9167.058   -9085.7087    6526.2058    17043.909    12.183937 
    7770    726.96353   -9166.9883   -9085.8944    6243.3989     17046.92    12.184457 
    7780    725.52361   -9167.0989   -9086.1657     5256.681    17056.344    12.179004 
    7790    696.76516   -9164.2128   -9086.4876    4835.4369    17071.424    12.166325 
    7800     728.3332   -9168.0959   -9086.8493    2600.8603     17091.55    12.146666 
    7810    729.04685   -9168.5924   -9087.2661    284.50009    17114.686    12.124751 
    7820    707.60525   -9166.6814   -9087.7469   -1985.5565    17138.476    12.102415 
    7830    710.74357   -9167.5591   -9088.2746   -4968.6739    17160.459    12.087007 
    7840    701.47444   -9167.1238   -9088.8732   -6884.7423     17177.65    12.083086 
    7850    671.85965   -9164.4652   -9089.5183   -6239.8847    17188.121    12.088643 
    7860     673.2733   -9165.2451   -9090.1404   -5432.0676    17192.192    12.104554 
    7870    696.99782   -9168.4792   -9090.7281   -5589.1678    17190.541    12.133667 
    7880    705.95272   -9170.0542   -9091.3041    -5222.249    17183.044    12.171704 
    7890     711.2565   -9171.2047   -9091.8629   -3326.7215    17170.122    12.215232 
    7900    711.44766   -9171.7379   -9092.3748   -1112.5328    17153.591    12.261743 
    7910    715.02446   -9172.6027   -9092.8406    1198.3913    17135.717    12.308515 
    7920     725.1537   -9174.1643   -9093.2723    2858.9676    17118.868    12.352485 
    7930    714.98519   -9173.4306    -9093.673    3787.5144    17104.766    12.393694 
    7940    686.18157   -9170.5323   -9093.9877    4528.5086    17094.451    12.431484 
    7950    694.33227   -9171.6803   -9094.2265    4459.8529     17088.64    12.462797 
    7960    685.73276   -9170.8928   -9094.3982    4652.3141    17087.418    12.486524 
    7970    679.19543   -9170.2745   -9094.5093    4505.2219    17090.957    12.498497 
    7980     697.0722   -9172.3311   -9094.5716    3129.8217    17099.073    12.495049 
    7990    695.72084   -9172.1992   -9094.5904    858.73984    17110.423    12.483327 
    8000    690.98705   -9171.6458   -9094.5651   -1890.2827    17122.736    12.474399 
    8010    692.05255   -9171.6865    -9094.487   -4111.0392    17133.273    12.476618 
    8020    688.54037   -9171.1793   -9094.3716    -5014.431    17139.758    12.489732 
    8030    708.81848   -9173.3109   -9094.2411   -5317.7069    17141.136    12.508371 
    8040    716.02088   -9173.9971   -9094.1239   -4283.3754    17137.139    12.528436 
    8050    689.66362    -9170.954    -9094.021   -2210.2506    17128.756    12.549476 
    8060    697.52442   -9171.7002   -9093.8903   -806.18162    17117.936    12.568836 
    8070    714.51243   -9173.4457   -9093.7407     481.6684    17106.168    12.586422 
    8080    693.98207    -9171.003   -9093.5883    1943.6424    17094.819    12.610471 
    8090    684.72239   -9169.7936   -9093.4117    2984.6395    17085.323    12.638668 
    8100    694.84829   -9170.7113      -9093.2     3949.659    17078.811    12.655367 
    8110    702.93276   -9171.3896   -9092.9764    4016.9505    17076.227    12.658356 
    8120    696.68015   -9170.4679   -9092.7522    3656.0986    17077.719    12.655753 
    8130     696.8993   -9170.2522    -9092.512    3240.4952    17083.021    12.649808 
    8140    720.37404   -9172.6144   -9092.2556    942.14728    17091.547    12.643724 
    8150    736.01208   -9174.1134   -9092.0102   -2069.3808     17101.05    12.640734 
    8160    718.40566   -9171.9325   -9091.7933   -3670.3677    17108.629    12.636575 
    8170    685.27042   -9168.0249    -9091.582   -3875.2993    17112.565    12.623847 
    8180    679.58089   -9167.1478   -9091.3396   -3382.7882    17112.581    12.603168 
    8190    710.80611   -9170.3658   -9091.0743   -2859.0485    17109.105    12.581423 
    8200    712.52269   -9170.3097   -9090.8268   -2175.8015    17102.668     12.56467 
    8210    688.38048   -9167.4132   -9090.6233    -1509.878    17093.963     12.55353 
    8220    694.62574   -9167.9137   -9090.4271   -1831.2225    17083.549    12.551947 
    8230    719.56526   -9170.4959   -9090.2273   -2163.7781    17071.196    12.559949 
    8240    737.53834   -9172.3483   -9090.0748   -1568.4031    17056.632    12.570515 
    8250    733.73086   -9171.8384   -9089.9896    162.03018    17040.523    12.578227 
    8260    723.65967   -9170.6771   -9089.9518    1553.8071    17024.467     12.58193 
    8270    721.44977   -9170.4239   -9089.9451    3032.1827    17009.941    12.584055 
    8280    711.89215   -9169.3644   -9089.9518    4591.8954    16998.488    12.589719 
    8290    722.76289   -9170.5756   -9089.9503    5428.4636    16991.615    12.601162 
    8300    729.82427   -9171.3754   -9089.9624     6206.077    16990.263    12.617724 
    8310    713.32161   -9169.5873   -9090.0152     5868.565    16995.157    12.640105 
    8320    714.69594   -9169.8028   -9090.0774    2564.9849    17005.781    12.671712 
    8330    720.99828   -9170.5511   -9090.1227   -903.77118    17019.082    12.713259 
    8340    707.47946    -9169.072   -9090.1516   -2856.2808    17031.625    12.760653 
    8350    707.41476   -9169.0731   -9090.1599   -3730.9871    17041.351    12.812532 
    8360    738.28635   -9172.5291   -9090.1722   -4019.8257    17047.302    12.868758 
    8370    731.58711   -9171.8261   -9090.2165   -2921.8267    17049.297    12.924807 
    8380    704.17965   -9168.8332   -9090.2809   -1693.1366    17048.297    12.980044 
    8390    710.07049   -9169.5566   -9090.3471   -1690.9438    17045.419    13.032518 
    8400    715.73436   -9170.2557   -9090.4145   -2262.4233    17040.752    13.078493 
    8410    727.42729   -9171.6469   -9090.5013   -1928.6072    17033.876    13.117046 
    8420    731.50885   -9172.2223   -9090.6214   -955.32168    17025.053    13.149215 
    8430    715.10329   -9170.5281   -9090.7573     834.7919    17015.333    13.175545 
    8440    716.37458   -9170.8153   -9090.9026     2534.387    17006.437    13.190396 
    8450    720.68164   -9171.4543   -9091.0611    3941.8971    17000.107    13.193688 
    8460    730.61858   -9172.7595   -9091.2579    3746.9859    16997.648    13.186334 
    8470    738.90241   -9173.9384   -9091.5127    2891.4685    16998.978    13.173077 
[...]
   22890    748.20358   -9206.4556   -9122.9923   -5747.7661     17466.46    14.890138 
   22900     723.4764   -9204.1132   -9123.4083   -4209.8813    17465.968    14.898957 
   22910    690.95916   -9200.9429   -9123.8654   -2000.4305    17461.064    14.902861 
   22920    706.86926   -9203.1737   -9124.3214   -1588.1348    17453.962    14.900282 
   22930    716.02384   -9204.6648   -9124.7913   -1838.2548    17445.284    14.897619 
   22940    717.32061   -9205.3041   -9125.2859   -1403.4574    17434.939    14.899771 
   22950    714.01045   -9205.4365   -9125.7876    175.22004    17423.451    14.903862 
   22960     711.7329   -9205.6744   -9126.2796    2445.8582    17412.478     14.90987 
   22970    710.28186   -9205.9899   -9126.7569    4164.8114    17404.321    14.924168 
   22980    706.52102   -9206.0407   -9127.2272    3579.3135    17400.532    14.940647 
   22990    696.51465   -9205.3662    -9127.669    1742.9198    17400.496    14.944904 
   23000    704.04964   -9206.5989   -9128.0611    432.90699    17402.355    14.932892 
   23010    704.37914   -9206.9815    -9128.407     837.3347    17404.808    14.913677 
   23020    685.88233    -9205.207   -9128.6958    2153.0161    17408.192    14.896803 
   23030    677.06803   -9204.4373   -9128.9093    2813.9511    17413.721    14.887255 
   23040    672.66909   -9204.0728   -9129.0356    2931.7226    17422.094    14.885424 
   23050    683.24561    -9205.293   -9129.0759    1850.3644    17433.331    14.886666 
   23060    709.85838   -9208.2415   -9129.0557   -94.053942    17446.277    14.889614 
   23070    705.90836   -9207.7576   -9129.0125   -1436.9303     17458.96    14.894403 
   23080    691.05242   -9206.0427   -9128.9548    -2081.818    17470.002    14.899266 
   23090    695.86217   -9206.4889   -9128.8644   -3005.4604    17478.646     14.90225 
   23100    694.40879   -9206.2114   -9128.7491   -3534.7631    17483.975    14.899761 
   23110    687.42158    -9205.301   -9128.6181    -3669.987    17485.487    14.897357 
   23120     685.4167   -9204.9263   -9128.4671   -3881.0545    17483.034    14.904217 
   23130    694.49776   -9205.7734   -9128.3012   -3408.5611    17476.523    14.920076 
   23140    710.75126   -9207.4073   -9128.1219   -2202.8923    17466.558    14.942241 
   23150    710.13831    -9207.167     -9127.95   -76.650626    17454.484    14.968349 
   23160     686.8925   -9204.3893   -9127.7654    2216.3542    17442.529    14.998497 
   23170    692.24346   -9204.7839   -9127.5631     3328.192    17432.992    15.028636 
   23180    700.73527   -9205.5172   -9127.3491      4072.05    17427.075    15.048537 
   23190    694.48855   -9204.6168   -9127.1456    5015.1589    17425.599    15.057183 
   23200    696.13646   -9204.6194   -9126.9643    5134.9895    17429.435    15.064072 
   23210    715.90454   -9206.6547   -9126.7945    3652.7815    17438.545    15.076964 
   23220    713.31103    -9206.211   -9126.6401    2173.5754    17451.479    15.095724 
   23230    692.52938   -9203.7414   -9126.4887    1047.1635    17466.659    15.112351 
   23240    717.46521   -9206.3503    -9126.316   -744.60347    17482.764    15.117125 
   23250    726.02721   -9207.1177   -9126.1283   -2404.8674    17497.937    15.107817 
   23260    698.46775   -9203.8835   -9125.9684   -2496.1101    17510.562    15.089043 
   23270     697.2191   -9203.5886   -9125.8128    -2626.874    17520.372    15.062325 
   23280    682.55805   -9201.7684   -9125.6281   -1646.0834    17527.399    15.034829 
   23290     665.2741   -9199.6065   -9125.3942    332.57122    17532.686    15.017165 
   23300    677.91241   -9200.6775   -9125.0553    797.48912    17538.125    15.003582 
   23310    711.59208   -9204.0112    -9124.632    306.57243    17544.295    14.988544 
   23320    722.83869   -9204.8422   -9124.2085     117.4887    17550.764    14.977036 
   23330    701.93145   -9202.1325    -9123.831    102.70218    17557.298    14.978486 
   23340    700.18141   -9201.5854   -9123.4792   -256.48084    17563.857    14.993327 
   23350    712.08827   -9202.5599   -9123.1254   -761.77235    17570.102    15.011661 
   23360    707.82291   -9201.7403   -9122.7816   -1277.8273    17575.454    15.025472 
   23370    726.48166   -9203.5116   -9122.4715   -1313.3384    17579.422    15.033942 
   23380    716.04215   -9202.0636    -9122.188    9.0710233    17582.087    15.038019 
   23390    718.46539   -9202.0877   -9121.9418    1417.4941    17584.724    15.043862 
   23400    732.61843   -9203.4513   -9121.7267    1458.1101    17588.749    15.053534 
   23410    739.36484   -9204.0433   -9121.5661    932.45243    17594.305    15.063139 
   23420    728.38382    -9202.723   -9121.4707    536.93454    17600.879    15.077354 
   23430    712.46488   -9200.8936   -9121.4171   -589.40772    17607.932    15.095278 
   23440    724.06748   -9202.1613   -9121.3904    -1241.444    17614.374    15.109858 
   23450    706.15823   -9200.1584   -9121.3853   -1114.2692    17619.482    15.122354 
   23460    709.36331   -9200.5202   -9121.3897   -496.26659    17623.407    15.130782 
   23470    743.22672   -9204.3219   -9121.4138   -646.93119    17626.714    15.130935 
   23480    738.49661   -9203.8646   -9121.4841    -802.6767    17629.334    15.124808 
   23490    740.84981   -9204.2505   -9121.6076   -415.77593    17631.116    15.118166 
   23500    714.06183   -9201.3957    -9121.741    1241.5923     17632.61    15.114417 
   23510    702.34114   -9200.2206   -9121.8734     1955.192    17635.366    15.115757 
   23520    732.03099   -9203.6666   -9122.0075    311.26518     17640.01    15.122688 
   23530    731.80126   -9203.8069   -9122.1734   -1011.4054    17645.002    15.129329 
   23540    708.49902   -9201.4078   -9122.3737    -655.4703    17649.024    15.124056 
   23550      713.185   -9202.1319    -9122.575    -219.4665    17652.291    15.105168 
   23560    716.00359   -9202.6314   -9122.7601    1087.0719    17655.385    15.083193 
   23570    716.60138   -9202.8757   -9122.9377    3074.5815    17659.712     15.06668 
   23580     709.1127   -9202.2232   -9123.1206     4300.445    17667.332    15.061412 
   23590    701.52963   -9201.5719   -9123.3152    3767.2346    17679.463     15.07094 
   23600     703.4436   -9201.9728   -9123.5026    2111.3548    17695.575    15.092111 
   23610     704.7432   -9202.2891   -9123.6739    879.71336    17714.009    15.118259 
   23620     706.5191   -9202.6538   -9123.8405    122.97232    17733.391    15.142795 
   23630    701.82842   -9202.2945   -9124.0045   -550.46467    17752.854    15.159173 
   23640    704.72008   -9202.7658   -9124.1532   -1848.4902    17771.578    15.167291 
   23650    699.55312   -9202.3192    -9124.283   -2918.2873    17788.225    15.170204 
   23660    679.41068   -9200.1726   -9124.3833   -3418.1649    17801.606    15.171784 
   23670    720.81638   -9204.8889   -9124.4808   -3702.8818    17811.139    15.174272 
   23680    742.03113   -9207.4259   -9124.6512   -3965.6358    17816.468    15.181824 
   23690    703.03178   -9203.3855   -9124.9612   -3396.8046    17817.432    15.198939 
   23700    686.32707   -9201.9392   -9125.3784   -3075.1624     17814.57    15.223312 
   23710    704.99086   -9204.5321   -9125.8893    -3062.146    17808.228    15.251147 
   23720    697.50319   -9204.2984   -9126.4908   -1227.4629    17798.693    15.283585 
   23730    679.52258   -9202.9119   -9127.1101    1682.4148    17787.942    15.322529 
   23740    694.97089   -9205.2336   -9127.7085    3449.8425    17778.976    15.362197 
   23750    700.43396   -9206.4248   -9128.2903    4481.7931    17773.862    15.396604 
   23760    708.78456   -9207.9432   -9128.8773    3883.3935    17773.614    15.422531 
   23770    691.21397   -9206.5626   -9129.4567    2812.8837    17777.672    15.440114 
   23780    676.29434   -9205.4101   -9129.9685    1691.1009    17784.856     15.45615 
   23790    687.24588   -9207.0637   -9130.4003    271.81292    17793.871    15.478426 
   23800    670.20785   -9205.5043   -9130.7416   -94.718268    17803.306    15.514553 
   23810    656.23795   -9204.1714   -9130.9671   -764.55114    17812.603    15.561802 
   23820    684.87402   -9207.4831   -9131.0843   -1979.2648    17820.961    15.604791 
   23830    684.82939   -9207.5186   -9131.1249   -2036.6258    17827.201    15.634245 
   23840     671.0118   -9205.9529   -9131.1005    -1711.067    17831.222    15.650212 
   23850    693.84491   -9208.4093   -9131.0098   -2231.7184    17833.249    15.656924 
   23860    691.65543   -9208.0245   -9130.8693   -2340.5962    17832.814    15.665284 
   23870    661.86555   -9204.5095   -9130.6774    -1348.343    17829.885    15.678176 
   23880    683.01725   -9206.5899   -9130.3983   -798.69033     17825.41    15.688448 
   23890    713.67854   -9209.6508   -9130.0389   -2.1315729    17820.079    15.692419 
   23900     698.8157   -9207.6017   -9129.6478    2045.5524    17814.902    15.690892 
   23910    699.92626   -9207.3174   -9129.2395    3715.4644    17811.972    15.689462 
   23920    702.17627    -9207.137   -9128.8082    4597.4649      17813.1    15.696659 
   23930    715.48939   -9208.1914   -9128.3775    4835.8023    17819.307    15.715133 
   23940    712.28372   -9207.4181   -9127.9617     4301.287     17830.87    15.740781 
   23950    693.06894   -9204.8741   -9127.5612    3036.1192    17847.236    15.763194 
   23960    698.68109   -9205.0769    -9127.138    533.07513     17866.89    15.778074 
   23970    690.19013   -9203.6688    -9126.677   -1663.5655    17887.199    15.786335 
   23980    662.97151   -9200.1466   -9126.1911   -3095.5522    17905.734    15.787338 
   23990    691.06071   -9202.7558   -9125.6669   -4356.7894    17920.799    15.788746 
   24000    730.82002   -9206.6554   -9125.1313   -5452.6079    17930.986    15.805884 
   24010    722.71657   -9205.2876   -9124.6675   -5400.3798    17935.123    15.843049 
   24020    705.73856   -9203.0192    -9124.293   -4685.7051    17933.188    15.887334 
   24030    725.13179   -9204.8505    -9123.961   -3662.4034    17925.977    15.921567 
   24040    723.21308   -9204.3486   -9123.6731   -1987.1971     17914.68    15.935321 
   24050    716.12229    -9203.314   -9123.4295   -405.77388    17901.154    15.929921 
   24060    739.54878   -9205.7161   -9123.2184     88.48824    17887.075    15.912719 
   24070    746.87346   -9206.3919   -9123.0771     552.7311    17873.076    15.894961 
   24080    723.98838   -9203.7669   -9123.0049    2068.2438    17859.819    15.888504 
   24090    713.18153   -9202.5169   -9122.9605    2725.8508    17848.796    15.896391 
   24100    722.08792   -9203.4782   -9122.9282     2381.331    17840.742    15.912667 
   24110    738.95683   -9205.3684   -9122.9367    2311.8153    17835.398    15.931085 
   24120    725.43172    -9203.926    -9123.003    3361.5078    17832.769    15.949231 
   24130    713.35991   -9202.6861   -9123.1097    4534.2034    17833.938     15.96662 
   24140    720.14538   -9203.5809   -9123.2476     4559.876     17840.08    15.984629 
   24150    725.40418   -9204.3435   -9123.4236    3939.7355    17851.288    16.006301 
   24160    722.62844   -9204.2339   -9123.6236    2657.0403    17866.888    16.030221 
   24170    722.45522   -9204.4325   -9123.8415    759.63498    17885.463    16.049697 
   24180    717.68796   -9204.1231    -9124.064   -1115.2102    17904.921    16.062202 
   24190    705.57361   -9202.9773   -9124.2695   -3130.3504    17923.112    16.070456 
   24200    674.49419   -9199.6443   -9124.4034   -4384.3644    17937.856    16.075399 
   24210    695.80204   -9202.0729   -9124.4551   -5411.2876    17947.653    16.076024 
   24220    719.91075   -9204.7746   -9124.4674   -6240.2393    17951.323    16.072083 
   24230    706.80741   -9203.3685    -9124.523   -5383.3821    17948.076    16.067652 
   24240    694.42876   -9202.0746     -9124.61   -4118.5309    17938.731    16.071425 
   24250    718.77397   -9204.8871   -9124.7068   -2835.1675    17924.714     16.07988 
   24260    721.74595   -9205.3363   -9124.8244   -1456.0009     17907.52    16.083538 
   24270     695.1718   -9202.4896   -9124.9421   -464.39803    17888.727    16.081998 
   24280    720.16426   -9205.3927   -9125.0573   -1161.6478    17869.297    16.079248 
   24290    730.13292   -9206.6525   -9125.2051   -1379.0446    17848.667    16.077858 
   24300    701.79846   -9203.6802   -9125.3935    72.488145    17826.734    16.079925 
   24310    708.86908   -9204.6673   -9125.5919    1554.4038    17804.991    16.088453 
   24320    719.87525    -9206.129   -9125.8258    2319.9698     17784.95    16.102973 
   24330    704.40936   -9204.6878   -9126.1099    4258.7037    17767.712    16.117724 
   24340    710.48476   -9205.7101   -9126.4545    5678.8015    17755.189    16.129217 
   24350    713.62796   -9206.4871   -9126.8808    6300.2858    17748.927    16.138819 
   24360     708.9576   -9206.4905   -9127.4053    6099.5306    17749.622    16.144069 
   24370    701.12877   -9206.2087   -9127.9967    4857.8319    17757.017    16.145446 
   24380    701.78098   -9206.8921   -9128.6074    2202.9358    17769.678    16.148106 
   24390    693.17514   -9206.5153   -9129.1906   -520.87282    17784.784    16.155619 
   24400    683.59701   -9205.9702   -9129.7139   -2385.4425    17799.392    16.168991 
   24410    688.94699   -9207.0272   -9130.1741    -4547.604    17811.303     16.18986 
   24420    682.48301   -9206.7029   -9130.5709   -6404.3651    17818.182    16.212732 
   24430    683.65534   -9207.1881   -9130.9253   -7055.7409    17818.004    16.227313 
   24440    686.29407   -9207.7968   -9131.2396   -6183.0986    17810.069    16.233111 
   24450    689.08412   -9208.3804    -9131.512   -4320.3713    17795.328    16.232555 
   24460    688.22354   -9208.4986   -9131.7262   -2171.3485    17775.804    16.227938 
   24470     683.2606   -9208.0781   -9131.8593    237.66499    17753.946    16.223905 
   24480    673.42472   -9206.9975    -9131.876    2233.3993    17732.397    16.228223 
   24490     686.2451   -9208.3269   -9131.7752    3104.1267    17713.286    16.243936 
   24500    689.34882    -9208.502   -9131.6041    3368.2109    17697.634    16.265945 
   24510    662.71646   -9205.3012   -9131.3742    3429.5165    17685.769    16.286167 
   24520     698.1468   -9208.9708   -9131.0914    2472.5073    17677.601    16.299153 
   24530    704.20428   -9209.3064   -9130.7514    2677.4715    17672.283    16.303764 
   24540    681.30249   -9206.3863    -9130.386    4143.1242    17670.053    16.302685 
   24550    695.07881   -9207.5147   -9129.9776    4423.6381     17672.28    16.302257 
   24560      698.462    -9207.434   -9129.5195    3302.2595     17679.28    16.309988 
   24570    697.18718   -9206.7963    -9129.024    742.58063    17689.786    16.330261 
   24580     694.3628   -9205.9414   -9128.4842   -2519.1374    17701.019    16.361175 
   24590    686.76043   -9204.5182    -9127.909   -4987.7575     17709.53     16.39656 
   24600    707.95365   -9206.3036   -9127.3304   -6267.8828    17712.609    16.430313 
   24610    664.15252     -9200.87   -9126.7828   -5004.8641    17709.062    16.458243 
   24620     682.9013   -9202.4416   -9126.2629   -4507.4228    17699.882    16.481849 
   24630    727.99172   -9206.9588   -9125.7502   -3818.5537    17685.744    16.507194 
   24640    703.32588   -9203.7752   -9125.3182   -1259.2877    17667.626    16.535873 
   24650    712.90413   -9204.4688   -9124.9433    1538.8225    17648.186    16.567476 
   24660    718.81375   -9204.7889   -9124.6041    3626.0129    17630.391    16.597002 
   24670    709.92594    -9203.516   -9124.3227     5284.315    17616.592    16.615431 
   24680    738.59239   -9206.4988   -9124.1077    5793.5619    17608.496     16.62303 
   24690    747.96689    -9207.424   -9123.9872    5263.1981    17606.629    16.625659 
   24700    730.62051   -9205.4851   -9123.9833    4671.3676    17610.527    16.625336 
   24710    696.48792   -9201.7212   -9124.0269    3749.9602    17619.503    16.622587 
   24720    712.52413   -9203.5369   -9124.0538    1782.7734    17632.459    16.617372 
   24730    716.86649   -9204.0169   -9124.0493    429.59439    17647.422    16.612395 
   24740    705.61038   -9202.7474   -9124.0355    -534.9842    17662.867    16.610691 
   24750     723.6849   -9204.7415   -9124.0134   -2251.6416     17677.62    16.615278 
   24760    714.78905   -9203.7257     -9123.99   -3888.1834    17689.887    16.626561 
   24770    713.59972   -9203.5749   -9123.9718   -5589.2842    17697.843    16.635487 
   24780    722.86927   -9204.6115   -9123.9743   -6862.9617    17699.646    16.634759 
   24790    721.04778   -9204.4603   -9124.0263   -6769.5639    17694.007    16.626625 
   24800    724.51586   -9204.9413   -9124.1205   -5313.7107    17681.087    16.615751 
   24810    734.73067   -9206.2089   -9124.2486   -2836.1026    17662.472    16.609099 
   24820    719.38328    -9204.642   -9124.3937    104.59247    17640.836    16.608724 
   24830    707.33846   -9203.4358   -9124.5312    2275.6612    17619.321    16.611453 
   24840    713.68107   -9204.2705   -9124.6583     3433.835    17600.283    16.616474 
   24850    713.35302   -9204.3628   -9124.7872    4273.6545    17585.014    16.622777 
   24860    710.18026   -9204.1564   -9124.9348    4776.6271    17574.412    16.627236 
   24870    712.05401   -9204.5431   -9125.1124    4493.1763    17568.964    16.628057 
   24880    717.17765   -9205.3309   -9125.3287    3873.1098    17568.406    16.621319 
   24890    710.57814   -9204.8401   -9125.5741    3341.1862    17572.102    16.609157 
   24900    713.53456   -9205.4337   -9125.8379    2241.5142    17579.365    16.599572 
   24910    713.82056   -9205.7496   -9126.1218    1170.0705    17589.062    16.595155 
   24920    696.67714   -9204.1221   -9126.4067   -148.25653    17599.995    16.595626 
   24930    696.04815   -9204.3173    -9126.672     -1367.53    17610.773    16.597747 
   24940    687.62648   -9203.6103   -9126.9045   -1933.1517    17620.118    16.597781 
   24950    689.19793   -9203.9812   -9127.1001   -2651.7755    17627.327    16.598766 
   24960    708.94713   -9206.3768   -9127.2927   -3496.0896     17631.59    16.601511 
   24970    690.05383   -9204.4772   -9127.5006   -3510.0175    17632.096    16.601465 
   24980    700.38303   -9205.8412   -9127.7125   -3956.7584    17628.695    16.598307 
   24990      711.618   -9207.3281    -9127.946   -3533.5701    17621.068    16.594206 
   25000    672.39357   -9203.1867   -9128.1802   -1526.9553    17609.764     16.59004 
Loop time of 14268.9 on 16 procs for 20000 steps with 864 atoms

Performance: 0.121 ns/day, 198.179 hours/ns, 1.402 timesteps/s
97.0% CPU use with 16 MPI tasks x 1 OpenMP threads

MPI task timing breakdown:
Section |  min time  |  avg time  |  max time  |%varavg| %total
---------------------------------------------------------------
Pair    | 2147.5     | 7279.1     | 14256      |4823.2 | 51.01
Bond    | 0.0014436  | 0.0031885  | 0.0068097  |   3.2 |  0.00
Neigh   | 0.12755    | 0.37283    | 0.68434    |  34.5 |  0.00
Comm    | 1.9284     | 5251.9     | 10474      |4623.6 | 36.81
Output  | 1.4222     | 1.4435     | 1.7512     |   6.6 |  0.01
Modify  | 9.2281     | 1736       | 5739.6     |4624.6 | 12.17
Other   |            | 0.1017     |            |       |  0.00

Nlocal:        54.0000 ave          89 max          26 min
Histogram: 5 2 1 0 1 1 0 1 1 4
Nghost:        542.500 ave         788 max         309 min
Histogram: 4 0 0 2 2 2 2 1 1 2
Neighs:         0.00000 ave           0 max           0 min
Histogram: 16 0 0 0 0 0 0 0 0 0
FullNghs:      3022.75 ave        6139 max         662 min
Histogram: 4 3 1 0 2 0 1 1 0 4

Total # of neighbors = 48364
Ave neighs/atom = 55.976852
Ave special neighs/atom = 0.0000000
Neighbor list builds = 2000
Dangerous builds = 2000
unfix   3
                
Total wall time: 4:56:36
