LAMMPS (29 Sep 2021 - Update 3)
OMP_NUM_THREADS environment is not set. Defaulting to 1 thread. (src/comm.cpp:98)
  using 1 OpenMP thread(s) per MPI task
units	metal
atom_style	full

read_data	mixed.data
Reading data file ...
  orthogonal box = (0.0000000 0.0000000 0.0000000) to (14.934386 14.958024 69.402279)
  1 by 2 by 8 MPI processor grid
  reading atoms ...
  864 atoms
Finding 1-2 1-3 1-4 neighbors ...
  special bond factors lj:    0        0        0       
  special bond factors coul:  0        0        0       
     0 = max # of 1-2 neighbors
     0 = max # of 1-3 neighbors
     0 = max # of 1-4 neighbors
     1 = max # of special neighbors
  special bonds CPU = 0.001 seconds
  read_data CPU = 0.008 seconds

pair_style	quip
pair_coeff	* * /ocean/projects/cts180021p/wuziqi/clease/mint-PD/PhaseDiagram-Clease/Liquid/GAP_potential/gap_LiKCl.xml "Potential xml_label=GAP_2021_9_27_0_1_17_37_618" 17 3

neighbor	0.3 bin
neigh_modify	delay 10

timestep	0.001
compute	msd all msd
thermo_style	custom step temp pe etotal press vol c_msd[4]
thermo	10
dump	1 all custom 10 xyz-mix.dump type id x y z
dump	2 all custom 10 force-mix.dump type id fx fy fz

fix     1 all nve
run     2000
Neighbor list info ...
  update every 1 steps, delay 10 steps, check yes
  max neighbors/atom: 2000, page size: 100000
  master list distance cutoff = 6.22
  ghost atom cutoff = 6.22
  binsize = 3.11, bins = 5 5 23
  1 neighbor lists, perpetual/occasional/extra = 1 0 0
  (1) pair quip, perpetual
      attributes: full, newton on
      pair build: full/bin
      stencil: full/bin/3d
      bin: standard
Per MPI rank memory allocation (min/avg/max) = 8.899 | 8.909 | 8.915 Mbytes
Step Temp PotEng TotEng Press Volume c_msd[4] 
       0            0   -6172.5374   -6172.5374   -7082.6594    15503.698            0 
      10     119.0518   -6185.8373   -6172.5569    -9934.496    15503.698 0.0010071496 
      20    261.33204   -6201.7236   -6172.5716   -11295.094    15503.698  0.011565216 
      30    255.25791   -6201.0293   -6172.5549   -7123.0934    15503.698  0.034561857 
      40    264.42457   -6202.0531   -6172.5561   -5862.3924    15503.698  0.056650094 
      50    312.68329   -6207.4417   -6172.5614   -8677.8799    15503.698  0.070921244 
      60    325.67352   -6208.8908   -6172.5615   -10844.072    15503.698  0.082468217 
      70    295.31701      -6205.5    -6172.557   -10469.186    15503.698  0.097559999 
      80     271.8645   -6202.8841   -6172.5572   -9026.4225    15503.698   0.11664668 
      90    265.91321   -6202.2182   -6172.5552   -8317.7174    15503.698   0.13792772 
     100     287.1964   -6204.5961   -6172.5589   -8346.2512    15503.698   0.15949482 
     110    302.68865   -6206.3257   -6172.5603   -7330.7252    15503.698   0.18154576 
     120    297.65715   -6205.7608   -6172.5567   -6310.0558    15503.698   0.20233128 
     130     308.5729   -6206.9825   -6172.5607   -7014.1109    15503.698   0.21603749 
     140    308.49663   -6206.9739   -6172.5606   -8254.7053    15503.698   0.22639086 
     150    300.11731   -6206.0386   -6172.5601   -9257.3775    15503.698   0.23678646 
     160    287.85788   -6204.6691   -6172.5581   -9955.8958    15503.698   0.24792738 
     170    289.66466   -6204.8731   -6172.5606   -10583.255    15503.698   0.25945006 
     180    289.75654   -6204.8819   -6172.5591   -10712.363    15503.698    0.2718679 
     190    295.13609   -6205.4836   -6172.5607   -10488.456    15503.698   0.28444874 
     200    294.99607   -6205.4677   -6172.5604   -10129.942    15503.698   0.29609877 
     210    286.95916   -6204.5707     -6172.56   -9663.0674    15503.698   0.30649264 
     220    275.72988   -6203.3179   -6172.5599   -9177.9183    15503.698   0.31608118 
     230    270.50861   -6202.7358   -6172.5602   -8672.5656    15503.698   0.32607004 
     240     272.7294   -6202.9827   -6172.5593   -8853.0275    15503.698   0.33522232 
     250    279.60122   -6203.7491   -6172.5591   -10041.178    15503.698   0.34187187 
     260    292.08827   -6205.1435   -6172.5606   -11551.724    15503.698   0.34819423 
     270    296.23245   -6205.6053   -6172.5602   -12576.966    15503.698   0.35504368 
     280    290.59525   -6204.9758   -6172.5595   -13159.977    15503.698   0.36200476 
     290    286.39853   -6204.5075   -6172.5593   -12930.633    15503.698   0.36806237 
     300    285.16596    -6204.371   -6172.5603    -12383.94    15503.698   0.37260207 
     310     276.3618   -6203.3874   -6172.5589   -11854.298    15503.698   0.37624334 
     320    275.40717   -6203.2805   -6172.5584   -11896.916    15503.698   0.38034324 
     330    285.09748   -6204.3645   -6172.5614   -12353.811    15503.698   0.38651832 
     340      285.616    -6204.421   -6172.5601   -12511.793    15503.698   0.39499421 
     350    284.89791    -6204.341   -6172.5602   -12689.242    15503.698   0.40459174 
     360    282.95249   -6204.1225   -6172.5588   -13170.846    15503.698   0.41246598 
     370     288.0353   -6204.6912   -6172.5604   -13564.963    15503.698   0.41769002 
     380    287.28249    -6204.606   -6172.5592   -13378.283    15503.698   0.42278811 
     390    286.02871   -6204.4671   -6172.5602   -13125.251    15503.698   0.42882483 
     400    278.58412   -6203.6357   -6172.5592   -12733.019    15503.698   0.43546846 
     410    278.85156   -6203.6642   -6172.5579   -12725.177    15503.698   0.44118431 
     420    295.44173    -6205.519   -6172.5621   -12919.137    15503.698   0.44580202 
     430    288.38426     -6204.73   -6172.5603   -12292.067    15503.698   0.45184932 
     440     275.0948   -6203.2448   -6172.5576   -11576.148    15503.698    0.4597765 
     450    284.42439   -6204.2884   -6172.5604   -11635.475    15503.698   0.46872177 
     460    290.54397   -6204.9708   -6172.5602   -11458.018    15503.698   0.47890159 
     470    292.27935   -6205.1639   -6172.5597   -11047.279    15503.698   0.48981965 
     480    296.29192   -6205.6126   -6172.5608    -11053.89    15503.698   0.50144177 
     490    293.83397   -6205.3377   -6172.5601   -10910.875    15503.698   0.51477503 
     500    290.42176   -6204.9561   -6172.5592   -10882.616    15503.698   0.52864067 
     510    294.71216   -6205.4358   -6172.5602   -11048.423    15503.698   0.54096764 
     520    300.63857   -6206.0957    -6172.559   -11015.275    15503.698   0.55107936 
     530    313.42009   -6207.5237   -6172.5612   -10936.323    15503.698   0.55907812 
     540    312.92089   -6207.4677   -6172.5609   -10452.207    15503.698   0.56684223 
     550    300.99117   -6206.1344   -6172.5584   -9517.9446    15503.698   0.57402283 
     560    302.90044   -6206.3497   -6172.5607   -8993.9278    15503.698   0.57911723 
     570    299.50947   -6205.9709   -6172.5601   -8662.1184    15503.698   0.58313152 
     580    295.81191   -6205.5583     -6172.56   -8542.5542    15503.698   0.58726222 
     590    298.86152   -6205.8988   -6172.5604   -8965.8336    15503.698   0.59231809 
     600    300.33785   -6206.0635   -6172.5604   -9037.6184    15503.698   0.59853829 
     610    299.59534   -6205.9801   -6172.5598   -8371.2403    15503.698   0.60481665 
     620    303.65017   -6206.4328   -6172.5602   -7934.1068    15503.698   0.60844579 
     630     310.3803   -6207.1838   -6172.5604   -7992.0375    15503.698    0.6082619 
     640    314.29708   -6207.6215   -6172.5612   -8062.2161    15503.698   0.60580975 
     650    306.12162   -6206.7094   -6172.5611   -7405.6951    15503.698   0.60391606 
     660    291.75553   -6205.1049   -6172.5592   -6325.4283    15503.698    0.6045726 
     670    291.74021   -6205.1042   -6172.5602   -5867.2382    15503.698   0.60858321 
     680    296.82247   -6205.6718   -6172.5608   -6353.8899    15503.698   0.61618731 
     690    294.97725   -6205.4661   -6172.5609   -6662.3101    15503.698   0.62550238 
     700    286.97788    -6204.572   -6172.5592   -6616.0858    15503.698   0.63468815 
     710    286.63209   -6204.5347   -6172.5604   -6895.7828    15503.698   0.64319605 
     720    286.56031   -6204.5259   -6172.5596   -7285.3623    15503.698   0.65049549 
     730    293.20359   -6205.2674   -6172.5601   -7851.0094    15503.698   0.65568367 
     740    300.27034   -6206.0564   -6172.5608    -8274.995    15503.698   0.65946026 
     750    300.05685   -6206.0319   -6172.5601   -8184.0951    15503.698   0.66343273 
     760    299.10417   -6205.9256   -6172.5601   -8091.5591    15503.698   0.66885484 
     770    298.48137   -6205.8564   -6172.5604   -8384.8598    15503.698   0.67752626 
     780    296.34645   -6205.6175   -6172.5596   -8914.1283    15503.698   0.69090215 
     790     300.5212   -6206.0841   -6172.5605   -9695.9101    15503.698   0.70830553 
     800    302.31484   -6206.2847    -6172.561   -9986.7534    15503.698   0.72733815 
     810    294.97177   -6205.4649   -6172.5603   -9788.8775    15503.698   0.74437354 
     820     293.9212   -6205.3466   -6172.5592   -10145.009    15503.698   0.75557997 
     830    306.06744   -6206.7043    -6172.562   -11121.711    15503.698   0.76034898 
     840    304.44992   -6206.5222   -6172.5604   -11386.671    15503.698   0.76099165 
     850    301.98739    -6206.247   -6172.5598   -11215.463    15503.698   0.75927071 
     860    307.80247   -6206.8965   -6172.5607   -11228.553    15503.698   0.75750628 
     870    309.83215   -6207.1239   -6172.5617   -11151.874    15503.698   0.75886791 
     880    299.41573   -6205.9598   -6172.5595   -10730.834    15503.698   0.76520132 
     890    300.36042   -6206.0655   -6172.5598    -10683.96    15503.698   0.77522034 
     900    311.77593   -6207.3403   -6172.5613   -10758.155    15503.698   0.78644376 
     910    315.99675   -6207.8108   -6172.5609   -10638.959    15503.698   0.79743278 
     920    314.15059    -6207.605    -6172.561   -10767.654    15503.698   0.80852246 
     930    307.53752    -6206.867   -6172.5608    -10698.33    15503.698   0.82057803 
     940     303.9545   -6206.4657   -6172.5591   -10673.594    15503.698   0.83272237 
     950    315.55545   -6207.7625   -6172.5618   -10985.253    15503.698   0.84367931 
     960    314.10987   -6207.6014   -6172.5619   -10894.557    15503.698   0.85299466 
     970    301.16419   -6206.1543    -6172.559   -10416.525    15503.698   0.85903246 
     980     308.2504   -6206.9471   -6172.5613   -10639.037    15503.698   0.86167882 
     990    312.94011   -6207.4711   -6172.5622   -11165.921    15503.698    0.8636759 
    1000    301.96747   -6206.2445   -6172.5596   -11241.512    15503.698   0.86586818 
    1010    300.61614   -6206.0948   -6172.5606   -11044.825    15503.698   0.86653935 
    1020    302.77876   -6206.3368   -6172.5614   -10173.016    15503.698   0.86594544 
    1030    299.21901   -6205.9387   -6172.5604   -9568.0249    15503.698   0.86577348 
    1040    303.27626   -6206.3913   -6172.5604   -9668.3301    15503.698   0.86795209 
    1050    311.27436   -6207.2857   -6172.5626   -9746.7712    15503.698   0.87468285 
    1060    305.20995   -6206.6064   -6172.5598   -9153.5585    15503.698   0.88502989 
    1070    311.29573   -6207.2863   -6172.5608   -9189.6446    15503.698    0.8942313 
    1080    322.44853    -6208.532   -6172.5624   -9605.9463    15503.698   0.89934301 
    1090    319.52235   -6208.2053   -6172.5621   -9453.8625    15503.698   0.89981604 
    1100    306.22248   -6206.7208   -6172.5613   -8468.1547    15503.698   0.89715132 
    1110    296.30205    -6205.613   -6172.5601    -7650.171    15503.698   0.89433263 
    1120    300.99444   -6206.1381   -6172.5617   -7521.4311    15503.698   0.89425009 
    1130    303.00562   -6206.3625   -6172.5618   -7250.5408    15503.698   0.89988551 
    1140    301.43418   -6206.1853   -6172.5599    -7085.438    15503.698   0.91163073 
    1150    311.96544   -6207.3626   -6172.5623   -7736.7346    15503.698    0.9268416 
    1160     312.5856   -6207.4304    -6172.561   -7839.2347    15503.698   0.94242274 
    1170    312.06024   -6207.3717   -6172.5609   -7435.8113    15503.698   0.95568522 
    1180    313.23796   -6207.5041    -6172.562   -7597.0074    15503.698   0.96595677 
    1190    304.81245   -6206.5631   -6172.5608   -7511.6145    15503.698   0.97359152 
    1200     299.0979   -6205.9251   -6172.5603   -7251.8311    15503.698   0.97805041 
    1210    305.15455   -6206.6011   -6172.5607    -7450.478    15503.698   0.97875856 
    1220    315.76305   -6207.7851   -6172.5613   -7721.2495    15503.698   0.97613125 
    1230    323.52085   -6208.6506   -6172.5614   -8298.0615    15503.698   0.97208704 
    1240    323.92258   -6208.6961    -6172.562   -8905.0264    15503.698   0.96947127 
    1250    314.21066   -6207.6112   -6172.5605   -8803.1488    15503.698   0.96950769 
    1260    310.48588   -6207.1962   -6172.5611   -8633.2414    15503.698   0.97168554 
    1270    312.14219   -6207.3806   -6172.5607   -8954.9044    15503.698   0.97601337 
    1280    318.00741   -6208.0362    -6172.562   -9703.4995    15503.698   0.98273502 
    1290    313.40704   -6207.5223   -6172.5613   -9709.8303    15503.698   0.99069247 
    1300    308.27437   -6206.9483   -6172.5599   -9084.9158    15503.698   0.99712643 
    1310    318.66184   -6208.1092    -6172.562   -8966.3518    15503.698    1.0004123 
    1320    322.68718    -6208.559   -6172.5627     -9092.73    15503.698    1.0011762 
    1330    315.12259   -6207.7131   -6172.5607   -9357.7266    15503.698    1.0005657 
    1340    312.67589    -6207.441   -6172.5616   -9635.4368    15503.698    1.0005228 
    1350    310.17176   -6207.1606   -6172.5605   -9416.0855    15503.698    1.0028772 
    1360    314.49055   -6207.6425   -6172.5606   -9164.6541    15503.698    1.0079702 
    1370    323.50129    -6208.649   -6172.5619   -9193.9683    15503.698    1.0153714 
    1380    326.37912   -6208.9696   -6172.5616   -9039.2041    15503.698    1.0248913 
    1390    323.92279   -6208.6957   -6172.5616   -8869.5163    15503.698    1.0364229 
    1400    319.34103   -6208.1833   -6172.5603   -8983.1353    15503.698    1.0490487 
    1410    321.61238   -6208.4383   -6172.5619   -9724.0908    15503.698    1.0614227 
    1420    313.62116   -6207.5462   -6172.5613   -9953.0368    15503.698    1.0731437 
    1430    300.52334   -6206.0835   -6172.5597   -9720.0447    15503.698    1.0830064 
    1440    300.36192   -6206.0665   -6172.5607    -9614.744    15503.698      1.08962 
    1450    306.73861   -6206.7776   -6172.5605   -9656.3094    15503.698     1.093293 
    1460    316.85349   -6207.9069   -6172.5614   -10025.839    15503.698    1.0957017 
    1470    320.74713   -6208.3419   -6172.5621   -10258.291    15503.698    1.0988536 
    1480    312.81785   -6207.4563    -6172.561    -9699.673    15503.698    1.1032374 
    1490    307.07992    -6206.815   -6172.5597   -9345.4725    15503.698    1.1078283 
    1500    314.94947   -6207.6952   -6172.5621   -10109.293    15503.698      1.11197 
    1510    312.15384   -6207.3831   -6172.5618   -10499.296    15503.698    1.1158975 
    1520    300.86994   -6206.1223   -6172.5598   -10154.793    15503.698    1.1187148 
    1530    304.63017   -6206.5423   -6172.5604   -10286.491    15503.698     1.120074 
    1540     316.6053   -6207.8803   -6172.5625   -10577.908    15503.698    1.1224081 
    1550    314.19679   -6207.6105   -6172.5614   -10225.585    15503.698     1.127527 
    1560    307.50491   -6206.8633   -6172.5607   -9981.2278    15503.698    1.1335146 
    1570    307.92574   -6206.9114   -6172.5618   -9797.2276    15503.698    1.1386182 
    1580    304.47423   -6206.5253   -6172.5608   -9231.0918    15503.698    1.1428585 
    1590    304.75818    -6206.557   -6172.5608   -9046.6425    15503.698     1.146434 
    1600    309.29518   -6207.0641   -6172.5617   -9089.5807    15503.698    1.1506592 
    1610    312.11475   -6207.3779    -6172.561   -9064.6157    15503.698    1.1564872 
    1620    317.92765   -6208.0276   -6172.5623   -9093.4548    15503.698    1.1626775 
    1630    316.46787   -6207.8641   -6172.5616   -8992.9119    15503.698    1.1682704 
    1640    314.04151    -6207.593   -6172.5612   -8900.7429    15503.698    1.1726064 
    1650    318.50503   -6208.0919   -6172.5622    -8542.242    15503.698    1.1748846 
    1660    316.60134   -6207.8799   -6172.5626   -7886.4206    15503.698    1.1745515 
    1670    308.69714   -6206.9957   -6172.5601   -7568.5249    15503.698    1.1711308 
    1680    316.93876   -6207.9176   -6172.5626   -8340.0367    15503.698    1.1653881 
    1690    319.15454   -6208.1638   -6172.5616   -9190.5276    15503.698    1.1592781 
    1700    322.43619   -6208.5294   -6172.5612   -9889.3018    15503.698    1.1530101 
    1710    329.18953   -6209.2845   -6172.5629   -10150.234    15503.698    1.1474958 
    1720    325.77678   -6208.9015   -6172.5606   -9516.3401    15503.698    1.1452333 
    1730    331.29454   -6209.5188   -6172.5624   -9155.7339    15503.698    1.1475308 
    1740    330.35608   -6209.4144   -6172.5627   -8888.6931    15503.698    1.1546423 
    1750    317.78506   -6208.0107   -6172.5613   -7939.8954    15503.698    1.1652477 
    1760     313.1009   -6207.4877   -6172.5608   -7063.6644    15503.698    1.1772564 
    1770    321.67088   -6208.4454   -6172.5625   -7023.5784    15503.698    1.1893408 
    1780    324.29279   -6208.7378   -6172.5625   -7153.9414    15503.698    1.2002526 
    1790    317.86621     -6208.02   -6172.5616   -6704.4499    15503.698    1.2084419 
    1800    312.64233    -6207.437   -6172.5613   -6458.5525    15503.698    1.2133333 
    1810    313.63482   -6207.5476   -6172.5611   -6837.7233    15503.698    1.2153402 
    1820    320.76249   -6208.3436   -6172.5621   -7424.7523    15503.698    1.2163716 
    1830    323.69246   -6208.6704   -6172.5621   -7655.5418    15503.698    1.2199147 
    1840    320.70012   -6208.3358   -6172.5612   -7675.0009    15503.698    1.2273463 
    1850    320.85656   -6208.3534   -6172.5613    -7994.814    15503.698    1.2362593 
    1860    322.53929    -6208.542   -6172.5623   -8199.3485    15503.698    1.2440189 
    1870    318.16027   -6208.0522   -6172.5609   -7977.1631    15503.698    1.2495611 
    1880    318.87076   -6208.1326    -6172.562   -7862.9105    15503.698    1.2525522 
    1890    316.76722   -6207.8976   -6172.5617   -7681.9854    15503.698    1.2534537 
    1900    315.73302   -6207.7812   -6172.5607   -7756.5226    15503.698    1.2533187 
    1910     323.8924   -6208.6936   -6172.5629   -8279.2539    15503.698    1.2538785 
    1920     321.2693   -6208.4004   -6172.5623   -8195.6393    15503.698    1.2564932 
    1930    313.40197   -6207.5214   -6172.5609   -7832.1304    15503.698    1.2602449 
    1940    315.43195   -6207.7487   -6172.5618    -7837.936    15503.698    1.2639341 
    1950    316.02421    -6207.815    -6172.562   -7999.0172    15503.698    1.2669873 
    1960    312.57749   -6207.4298   -6172.5613   -8182.2094    15503.698    1.2689421 
    1970    312.49232   -6207.4211   -6172.5621   -7924.5303    15503.698    1.2699253 
    1980    311.31231   -6207.2889   -6172.5615   -7681.6797    15503.698    1.2706159 
    1990    315.97456   -6207.8084    -6172.561   -7981.4275    15503.698    1.2709612 
    2000    328.15449   -6209.1691    -6172.563   -8517.2812    15503.698    1.2709699 
Loop time of 1274.15 on 16 procs for 2000 steps with 864 atoms

Performance: 0.136 ns/day, 176.966 hours/ns, 1.570 timesteps/s
96.8% CPU use with 16 MPI tasks x 1 OpenMP threads

MPI task timing breakdown:
Section |  min time  |  avg time  |  max time  |%varavg| %total
---------------------------------------------------------------
Pair    | 639.04     | 990.27     | 1269.9     | 527.2 | 77.72
Bond    | 0.00015521 | 0.00045551 | 0.0014703  |   0.0 |  0.00
Neigh   | 0.025581   | 0.035676   | 0.048009   |   3.1 |  0.00
Comm    | 4.0064     | 264.09     | 634.9      |1009.2 | 20.73
Output  | 0.13227    | 12.59      | 31.926     | 361.7 |  0.99
Modify  | 0.0076051  | 0.0091038  | 0.0099838  |   0.7 |  0.00
Other   |            | 7.154      |            |       |  0.56

Nlocal:        54.0000 ave          72 max          38 min
Histogram: 1 1 4 1 3 2 0 2 0 2
Nghost:        591.625 ave         728 max         498 min
Histogram: 2 0 1 7 3 1 0 0 0 2
Neighs:         0.00000 ave           0 max           0 min
Histogram: 16 0 0 0 0 0 0 0 0 0
FullNghs:      3308.38 ave        5371 max        1872 min
Histogram: 1 5 3 1 0 0 2 2 0 2

Total # of neighbors = 52934
Ave neighs/atom = 61.266204
Ave special neighs/atom = 0.0000000
Neighbor list builds = 199
Dangerous builds = 198
unfix   1

velocity    all create 1162.5 1312343 dist gaussian
fix     2 all npt temp 1162.5 1162.5 $(100.0*dt) aniso 0.0 1.01325 $(1000.0*dt)
fix     2 all npt temp 1162.5 1162.5 0.10000000000000000555 aniso 0.0 1.01325 $(1000.0*dt)
fix     2 all npt temp 1162.5 1162.5 0.10000000000000000555 aniso 0.0 1.01325 1
run     3000
Per MPI rank memory allocation (min/avg/max) = 8.903 | 8.910 | 8.916 Mbytes
Step Temp PotEng TotEng Press Volume c_msd[4] 
    2000       1162.5   -6209.1691   -6079.4905   -2105.1093    15503.698    1.2709699 
    2010     947.3375   -6185.0892   -6079.4122    7068.6745    15503.543    1.2899482 
    2020    712.32204   -6158.5355    -6079.075    17327.154    15507.078    1.3196491 
    2030    745.34932   -6161.4691   -6078.3243    15247.028    15519.015    1.3399951 
    2040    708.13051   -6156.0651   -6077.0721    14939.287    15539.049    1.3615831 
    2050    648.06288   -6148.1362   -6075.8439    16744.173    15567.022    1.3892663 
    2060    688.34575   -6151.5916   -6074.8056    14866.959    15603.642    1.4177449 
    2070    722.64987   -6154.4273   -6073.8147    11598.811     15648.07    1.4468796 
    2080    725.05306   -6153.6444   -6072.7637    8632.6011    15698.616    1.4778338 
    2090    747.10641   -6154.8496   -6071.5087    5553.0583    15753.579    1.5099114 
    2100    749.55639   -6153.5984   -6069.9843    3414.4024    15811.224    1.5428441 
    2110    737.87281   -6150.6114   -6068.3006    1463.1605    15870.139    1.5759865 
    2120    733.95668   -6148.3463   -6066.4724    -914.1992    15929.024    1.6097401 
    2130    773.42228   -6150.7498   -6064.4733   -3633.0072    15986.369    1.6433227 
    2140    793.06482    -6150.768   -6062.3004   -5525.0544     16040.56    1.6776896 
    2150     787.0386   -6147.8785   -6060.0831   -6707.6809    16090.414    1.7141871 
    2160    773.76819   -6144.1757   -6057.8607   -7206.8658    16135.228    1.7524683 
    2170     750.6183   -6139.3982   -6055.6656   -6516.3534    16174.763    1.7891218 
    2180     737.1831    -6135.744   -6053.5101   -4886.5392     16209.45    1.8191237 
    2190    744.65959   -6134.4268   -6051.3589   -3265.6796    16240.248     1.841589 
    2200    751.26297   -6132.9823   -6049.1778   -2572.8912    16268.114    1.8606707 
    2210    766.49723   -6132.4618   -6046.9579   -3067.9559    16293.498    1.8801969 
    2220    793.66992   -6133.1892   -6044.6541    -4703.514    16316.166    1.9026611 
    2230    797.00956   -6131.2028   -6042.2952   -4872.4522    16335.441    1.9285672 
    2240    807.25799   -6130.0004   -6039.9496   -5165.7163    16351.237     1.956077 
    2250    829.40327   -6130.0786   -6037.5574   -7017.0098    16363.429    1.9825928 
    2260    840.21675   -6128.8719   -6035.1444   -7886.6073    16371.241    2.0071265 
    2270    828.17959   -6125.1385   -6032.7539   -6741.1968    16374.382    2.0298035 
    2280    811.20413   -6120.9123   -6030.4212   -5323.8754     16373.59      2.04766 
    2290    840.02422   -6121.7547   -6028.0488   -5498.5484    16369.713     2.058655 
    2300    857.66095   -6121.2812   -6025.6079   -5575.9951    16362.864     2.069129 
    2310     856.7346   -6118.7434   -6023.1734   -4695.0329    16353.145    2.0835767 
    2320     869.4437   -6117.7246   -6020.7369   -3709.4936    16341.107    2.1005129 
    2330    888.32746   -6117.3482   -6018.2539   -1982.6026    16327.441    2.1151923 
    2340    886.65212   -6114.6432   -6015.7358    553.22085    16313.187    2.1270807 
    2350     897.0304   -6113.2863   -6013.2212    2312.8471    16299.716    2.1407283 
    2360    921.49056   -6113.4589   -6010.6653    2479.4694    16287.942    2.1583213 
    2370    934.13402    -6112.281   -6008.0769    3004.4133    16277.995     2.178534 
    2380    941.14794   -6110.4957   -6005.5093    4152.5594     16270.09    2.1996614 
    2390    940.21304   -6107.8437   -6002.9615     5061.313    16264.783    2.2245082 
    2400    974.32475   -6109.0911   -6000.4038    3943.3514     16262.38     2.258666 
    2410    985.79309   -6107.7872   -5997.8205    2879.1654    16262.295    2.3006825 
    2420    1035.6901   -6110.7856   -5995.2528    1671.0422    16263.814    2.3436137 
    2430    1021.7333   -6106.6859     -5992.71    2068.5448    16266.328    2.3880718 
    2440    1011.3274   -6103.0915   -5990.2764    2554.3606    16269.939    2.4329051 
    2450    1039.8832   -6103.8298   -5987.8292     1905.393     16274.82    2.4788937 
    2460    1054.9516   -6103.0507   -5985.3692    2349.7248    16280.706    2.5262465 
    2470     1042.955   -6099.3192    -5982.976    4340.0491    16287.864    2.5753348 
    2480    1067.8153   -6099.7532   -5980.6367      5364.38    16297.243    2.6259907 
    2490    1073.0969   -6098.0173   -5978.3117    6565.1092    16309.476    2.6740625 
    2500      1085.88   -6097.1824   -5976.0508    6550.2654     16325.09    2.7128031 
    2510    1105.9669   -6097.2005   -5973.8283    5481.7657    16344.027    2.7445438 
    2520    1112.5433   -6095.7645   -5971.6586    4492.8789    16365.682     2.776703 
    2530    1103.3238     -6092.66   -5969.5826    4447.1381    16389.471    2.8161578 
    2540     1082.223   -6088.2992   -5967.5756    4843.0949     16415.33    2.8623008 
    2550    1103.9741   -6088.7266   -5965.5766    4084.1415    16443.346    2.9071536 
    2560    1119.2967   -6088.4182   -5963.5589    4056.4802     16473.16     2.948861 
    2570    1107.1656   -6085.0998   -5961.5938    4514.6781    16504.718    2.9941339 
    2580    1112.0843   -6083.7478   -5959.6931    3781.1332    16538.157    3.0463701 
    2590    1140.0282   -6084.9451   -5957.7732    2142.4599    16573.018    3.1041148 
    2600    1142.1614   -6083.2688    -5955.859     1672.695    16608.417    3.1667478 
    2610    1161.0901   -6083.5241   -5954.0027    1408.8068    16643.977    3.2263938 
    2620    1154.6783   -6081.0126   -5952.2065    1359.3123    16679.561    3.2785465 
    2630    1137.2503   -6077.3701   -5950.5081    1747.0345    16715.133    3.3265359 
    2640    1124.2864   -6074.2928   -5948.8769    1678.4734    16750.861    3.3814577 
    2650    1160.1683   -6076.6248   -5947.2063    386.75712     16786.65    3.4468421 
    2660    1173.2834   -6076.4058   -5945.5242   -764.60175    16821.777    3.5190788 
    2670    1163.5462   -6073.7068   -5943.9114    -1028.723    16855.597     3.592323 
    2680    1175.4058   -6073.4963    -5942.378   -980.21758    16887.925    3.6640563 
    2690    1150.8898   -6069.3049   -5940.9214   -240.82598    16918.869    3.7378439 
    2700    1140.5838   -6066.7625   -5939.5286    647.16844    16948.885    3.8094328 
    2710    1145.2047   -6065.8916   -5938.1423    545.67995    16978.469    3.8795043 
    2720    1163.2808   -6066.5037    -5936.738   -670.22059    17007.559    3.9578009 
    2730    1190.4159   -6068.1305   -5935.3378   -2200.8252    17035.465    4.0455767 
    2740    1185.8578   -6066.2522   -5933.9679   -2866.6232    17061.337    4.1337963 
    2750    1174.2678   -6063.6975   -5932.7062   -2998.7619    17084.801    4.2099278 
    2760    1193.8596   -6064.6777   -5931.5008   -3153.1474    17105.822    4.2746892 
    2770    1202.6429   -6064.5332   -5930.3766   -2804.4785    17124.394    4.3338605 
    2780    1186.0905   -6061.6739   -5929.3637   -2620.2119    17140.764    4.3867647 
    2790    1209.1998   -6063.3262   -5928.4382   -2907.7577    17155.081    4.4343338 
    2800    1216.7561   -6063.3392   -5927.6083   -2306.0704    17167.308    4.4856101 
    2810    1197.2097   -6060.4582   -5926.9077   -2048.3191    17177.791    4.5463684 
    2820    1207.2525   -6060.9838    -5926.313   -2991.8637    17186.687      4.61417 
    2830    1219.4335   -6061.8434   -5925.8138   -4264.0611    17193.489    4.6871045 
    2840    1206.4668     -6060.03   -5925.4468   -3952.5503    17197.547    4.7685862 
    2850    1167.4184   -6055.4064   -5925.1791   -2259.8311    17199.121    4.8573149 
    2860    1179.5968   -6056.5413   -5924.9555   -2029.9813     17199.15    4.9410532 
    2870    1193.4198   -6057.8908    -5924.763   -2469.6495    17197.875    5.0078778 
    2880    1184.5342   -6056.7716    -5924.635   -2716.4702    17195.075    5.0600584 
    2890    1160.9947   -6054.0631   -5924.5524   -1422.9474    17190.709    5.1114686 
    2900    1144.3051   -6052.1183   -5924.4693    -229.3178    17185.519    5.1687714 
    2910    1145.9354   -6052.1793   -5924.3485   -235.91135    17180.214    5.2317671 
    2920     1167.216   -6054.3936   -5924.1889   -1178.0311    17174.806    5.3039722 
    2930    1209.2549   -6058.9514   -5924.0572   -2861.9144    17168.684    5.3861547 
    2940    1213.4898   -6059.3779   -5924.0112    -2933.229    17160.948    5.4711037 
    2950    1210.7028    -6059.154   -5924.0983   -1648.7826     17151.55    5.5533781 
    2960    1188.6597   -6056.8678    -5924.271   -491.70101    17141.251    5.6353149 
    2970    1216.9863    -6060.295   -5924.5383   -1268.4795    17130.658    5.7155151 
    2980    1212.0747   -6060.1199   -5924.9111   -1549.8218    17119.455    5.7915561 
    2990    1184.4039   -6057.5119   -5925.3898    -652.7421    17107.503    5.8473857 
    3000    1178.0364   -6057.3306   -5925.9189    122.28188      17095.3    5.8750764 
    3010    1181.5838   -6058.2774     -5926.47    349.69602    17083.312    5.8936886 
    3020    1201.5784   -6061.1217   -5927.0838   -212.21169    17071.645    5.9239678 
    3030    1206.7947   -6062.4154   -5927.7956   -151.41448    17060.031    5.9739601 
    3040    1181.7883   -6060.4055   -5928.5753    606.02237    17048.528    6.0360943 
    3050    1171.0062   -6060.0314   -5929.4039    366.01401    17037.479    6.0965727 
    3060    1163.2429   -6059.9924   -5930.2309     274.3687    17026.829    6.1456299 
    3070    1184.8429   -6063.2509   -5931.0798   -6.9700879    17016.464    6.1826693 
    3080     1177.492   -6063.3195   -5931.9685    67.467838     17006.23    6.2172842 
    3090    1164.2095   -6062.7544    -5932.885    109.03564    16996.135    6.2507728 
    3100    1154.2579   -6062.5334   -5933.7742    90.704345    16986.224    6.2866827 
    3110    1154.0115   -6063.3661   -5934.6344   -200.98009     16976.46    6.3219883 
    3120    1136.3696   -6062.2097    -5935.446    150.87432    16966.732    6.3543293 
    3130    1152.3777   -6064.7463   -5936.1968   -296.32752    16957.149      6.39059 
    3140    1163.8765   -6066.7649   -5936.9327     -1240.22    16947.454    6.4386289 
    3150    1129.3061   -6063.6282   -5937.6525   -985.56266    16937.177    6.5035527 
    3160    1120.6023   -6063.2875   -5938.2826   -1318.7537    16926.375    6.5793286 
    3170    1145.7806   -6066.6634   -5938.8499   -1983.6333    16914.862    6.6569435 
    3180    1131.8906   -6065.6214   -5939.3573    -877.8297    16902.358    6.7278157 
    3190    1131.6527   -6066.0299   -5939.7923   -340.34317    16889.405    6.7828211 
    3200    1143.3014   -6067.7054   -5940.1685   -549.62627     16876.34    6.8288741 
    3210    1143.2925   -6068.0349   -5940.4989   -628.46665    16863.086    6.8792317 
    3220     1141.603    -6068.143   -5940.7955   -413.24909    16849.593    6.9385572 
    3230    1117.1999   -6065.6451   -5941.0197    872.40394    16836.047    7.0099703 
    3240    1110.5904   -6065.0418   -5941.1538    1690.3619    16823.134    7.0901247 
    3250    1101.6891   -6064.0536   -5941.1585    2373.2681     16811.39    7.1694394 
    3260    1117.1256   -6065.6695   -5941.0525    2648.5236    16801.177     7.236729 
    3270    1120.0365   -6065.7753   -5940.8336    3195.5554    16792.695    7.2868661 
    3280    1127.6164   -6066.3169   -5940.5296    3510.2057    16786.215    7.3225605 
    3290    1138.9627   -6067.2071   -5940.1541    3101.5723    16781.875    7.3533039 
    3300    1155.8717   -6068.6729   -5939.7337     3241.201    16779.489    7.3803393 
    3310    1146.3941   -6067.1681   -5939.2861    4109.2432    16779.139    7.4137066 
    3320    1128.0375   -6064.6512   -5938.8169     4413.118    16781.262    7.4658584 
    3330    1122.9832   -6063.5561   -5938.2857    3745.8277    16785.997    7.5342968 
    3340    1153.6836   -6066.3823   -5937.6871    2640.8843    16792.954    7.6020685 
    3350    1141.9807   -6064.4222   -5937.0325     3175.881    16801.571    7.6612926 
    3360    1130.3145   -6062.4583     -5936.37    4374.9465    16812.121    7.7082143 
    3370      1154.03   -6064.3893   -5935.6555    3665.5329    16825.171    7.7389351 
    3380    1147.0541   -6062.8654   -5934.9098    2778.0696    16840.397    7.7546475 
    3390    1156.8254   -6063.1821   -5934.1365    1636.1212    16857.227    7.7689011 
    3400    1173.5475    -6064.249    -5933.338    975.79357    16875.001    7.7954156 
    3410    1179.4542   -6064.1254   -5932.5555    1191.8628    16893.345    7.8308955 
    3420    1189.7133   -6064.5369   -5931.8226    973.04025    16912.285    7.8676754 
    3430    1185.7092   -6063.4085   -5931.1409    1020.7211    16931.764     7.899653 
    3440    1183.2532   -6062.5213   -5930.5276    470.42708    16951.731     7.918593 
    3450     1188.418   -6062.5183   -5929.9485   -359.89591    16971.866    7.9309728 
    3460    1190.1185   -6062.1838   -5929.4243   -541.00849    16991.705    7.9557931 
    3470    1200.0746   -6062.8353   -5928.9652   -737.78669    17011.087    7.9966274 
    3480    1215.2993   -6064.1473   -5928.5788   -1132.5719    17029.874    8.0538478 
    3490    1207.6862   -6063.0206   -5928.3014   -912.67623    17047.873    8.1212561 
    3500    1240.9471   -6066.5851   -5928.1556   -975.87565    17065.141    8.1868135 
    3510    1186.2218   -6060.4626   -5928.1378    358.64345    17081.769     8.255357 
    3520    1157.5508   -6057.3379   -5928.2114    403.70964    17098.407    8.3258412 
    3530    1148.3246   -6056.3695   -5928.2722   -495.39329    17115.132    8.3949381 
    3540    1147.8571   -6056.3489   -5928.3037   -1609.5372    17131.404      8.45427 
    3550     1137.565   -6055.1749   -5928.2778   -2551.6898     17146.55    8.4991271 
    3560     1153.463   -6056.8754   -5928.2049   -3293.5072    17159.979    8.5307837 
    3570    1178.7007   -6059.6026   -5928.1167   -3335.5484    17171.257    8.5536399 
    3580     1157.129   -6057.1372   -5928.0577   -1979.0449    17180.403     8.576437 
    3590    1149.2877   -6056.2146   -5928.0099   -1080.1992    17188.188    8.6049666 
    3600     1156.069   -6056.8919   -5927.9307   -805.70811    17195.204    8.6513628 
    3610    1162.2664   -6057.4895   -5927.8369   -566.05621    17201.649    8.7217793 
    3620    1162.1862   -6057.3819   -5927.7383   -168.90989    17207.691    8.8047471 
    3630    1150.5292     -6055.98   -5927.6367    525.08568    17213.599    8.8863183 
    3640    1136.9105   -6054.3333   -5927.5092    947.61713     17219.78    8.9530468 
    3650    1133.4034   -6053.7622   -5927.3293    278.43649    17226.445    8.9960868 
    3660    1118.5641   -6051.8595    -5927.082   -461.73148    17233.229    9.0185288 
    3670    1112.7788   -6050.8808   -5926.7486   -976.87557    17239.696    9.0383522 
    3680    1128.7725   -6052.2238   -5926.3075   -2119.6047    17245.445    9.0662467 
    3690    1140.9283   -6053.0527   -5925.7804   -2536.5103     17249.83    9.0948973 
    3700    1147.8071   -6053.2367   -5925.1971   -1333.5791     17252.66    9.1233973 
    3710    1168.7781   -6054.9562   -5924.5773   -977.54236    17254.566    9.1595976 
    3720    1191.1701    -6056.823   -5923.9462   -1992.9059    17255.761    9.1983435 
    3730    1211.5732   -6058.5341   -5923.3812   -2669.9223    17255.699    9.2345842 
    3740    1197.2496   -6056.4826   -5922.9276   -2344.2455    17253.991    9.2695977 
    3750    1181.8094   -6054.4021   -5922.5695   -1817.8457    17250.813    9.2979966 
    3760    1203.0922   -6056.4671   -5922.2604   -1687.4773    17246.477    9.3137258 
    3770     1192.309   -6055.0175   -5922.0136   -1303.9028    17241.127    9.3214366 
    3780    1173.1451   -6052.7119   -5921.8458   -816.46422    17234.982    9.3330327 
    3790    1148.9671   -6049.8687   -5921.6997    228.48921    17228.405    9.3576913 
    3800    1158.9519   -6050.8131   -5921.5302   -25.504842    17221.954    9.3932164 
    3810    1168.3332   -6051.6699   -5921.3406   -392.81869    17215.555    9.4379433 
    3820    1171.2076    -6051.833    -5921.183   -443.01635     17208.97    9.4856775 
    3830    1158.2798   -6050.2274   -5921.0195    528.09869    17202.242    9.5312601 
    3840    1185.2815   -6053.0899     -5920.87    725.01123    17195.839    9.5789083 
    3850    1184.5016   -6052.8879   -5920.7549    1493.7158    17190.005    9.6322732 
    3860    1177.4685   -6052.0354   -5920.6871    1446.4494    17185.124    9.6859167 
    3870    1209.5676   -6055.6012   -5920.6721   -600.19645    17181.086    9.7338214 
    3880    1250.3431   -6060.2582   -5920.7805   -3058.9594    17176.671    9.7855962 
    3890    1226.0486   -6057.8462   -5921.0787   -2934.0345    17170.501    9.8481089 
    3900    1201.1481   -6055.5174   -5921.5275   -1174.7059    17162.603    9.9093851 
    3910    1182.0629    -6053.907   -5922.0461    6.2320664    17153.987    9.9615496 
    3920    1215.7798   -6058.2662   -5922.6441   -578.23816    17145.316    10.005951 
    3930    1226.0169   -6060.1336   -5923.3696   -855.15875    17136.356    10.046312 
    3940    1187.1987   -6056.6329   -5924.1991    218.05664    17127.008    10.080497 
    3950    1175.8145   -6056.2379    -5925.074    646.71469    17117.811    10.110678 
    3960    1185.1048   -6058.1683   -5925.9681    250.79743     17109.04    10.146611 
    3970     1197.101   -6060.4472   -5926.9088   -501.40454    17100.472    10.191119 
    3980    1198.2174   -6061.5784   -5927.9154   -714.49772    17091.687    10.245456 
    3990    1174.7723    -6060.008   -5928.9603    144.86929    17082.569    10.307515 
    4000    1177.6485   -6061.3637   -5929.9952    358.11196    17073.552    10.368932 
    4010    1167.8117    -6061.298   -5931.0268   -163.12017    17064.781     10.41755 
    4020    1144.2967   -6059.6794   -5932.0314   -563.97925    17055.976    10.444541 
    4030    1129.6117   -6058.9679   -5932.9581   -1280.5536    17046.849     10.45412 
    4040    1131.7503   -6060.0456   -5933.7971   -1768.5246    17036.999     10.46051 
    4050    1103.8401   -6057.6649   -5934.5298    -1621.856    17026.149     10.48326 
    4060    1103.4942   -6058.2073   -5935.1109   -1977.8319     17014.34    10.531037 
    4070    1119.8864   -6060.5035   -5935.5784   -2765.9413    17001.363    10.591154 
    4080    1111.9311   -6059.9816    -5935.944   -2787.6461    16986.804    10.651066 
    4090    1123.4107   -6061.5284   -5936.2103   -2534.3256     16970.64    10.708753 
    4100    1131.5908   -6062.6086    -5936.378   -1922.8366    16953.058    10.760737 
    4110    1144.5528   -6064.1489   -5936.4724    -1321.298    16934.447    10.801121 
    4120    1148.9966   -6064.7197   -5936.5474   -1413.8104    16915.131    10.833736 
    4130    1125.3608   -6062.1151   -5936.5794   -651.21581      16895.2    10.868709 
    4140    1134.9604   -6063.1565     -5936.55    148.96049    16875.053    10.905807 
    4150    1132.3798   -6062.7517    -5936.433    1330.3881    16855.223    10.943097 
    4160    1149.5683   -6064.4791    -5936.243    1840.3337    16836.358    10.983544 
    4170    1149.9226   -6064.2845   -5936.0089    2420.3529    16818.814    11.025936 
    4180    1123.4832   -6061.0561   -5935.7298    2797.2186    16802.896    11.055819 
    4190    1114.0881   -6059.6527   -5935.3745    2803.6851    16788.808     11.06317 
    4200    1137.8424   -6061.8574   -5934.9293    3009.1494    16776.581    11.052322 
    4210    1157.8255   -6063.5716   -5934.4144    3481.5038    16766.319    11.027197 
    4220    1185.6852   -6066.1579   -5933.8929    3220.3468    16758.229    10.998876 
    4230    1208.1017   -6068.1845   -5933.4189    1848.6617    16752.105    10.980489 
    4240    1209.7967   -6067.9967   -5933.0421    1282.3688    16747.217    10.977512 
    4250    1211.0372   -6067.8715   -5932.7784    1714.0139    16743.198    10.983641 
    4260    1178.9848   -6064.1228   -5932.6053    3185.9427    16740.317    11.000961 
    4270    1172.6449   -6063.3012   -5932.4909    3476.6592    16739.325     11.03392 
    4280    1213.6798   -6067.8134   -5932.4256    1998.6473    16740.337    11.083346 
    4290    1222.7737    -6068.867   -5932.4648    1418.7135    16742.602    11.151941 
    4300     1214.274   -6068.1018   -5932.6477    1760.0739    16745.772    11.228375 
    4310    1218.5021   -6068.8904   -5932.9647    1525.7875    16749.944    11.289528 
    4320    1186.0111   -6065.6939   -5933.3925    1900.5712    16755.063      11.3395 
    4330    1173.4014   -6064.7802   -5933.8855    1647.3707    16761.265     11.39561 
    4340    1188.5027    -6066.995   -5934.4158    594.80707    16768.375    11.461679 
    4350    1162.5952   -6064.6608   -5934.9716    1047.7516    16775.904    11.528259 
    4360    1167.3334   -6065.7652   -5935.5474    939.53562    16783.973    11.579334 
    4370      1176.08   -6067.3358   -5936.1423    1408.0828    16792.603    11.610937 
    4380     1158.437   -6065.9753   -5936.7499    2672.8659    16802.079    11.631755 
    4390    1174.0979   -6068.3351   -5937.3628    2097.3277    16813.013    11.653871 
    4400    1179.0069   -6069.5096   -5937.9896    1225.2093    16825.137    11.683575 
    4410     1164.889   -6068.5745   -5938.6294    632.38022    16837.947    11.712808 
    4420    1173.5736   -6070.1802   -5939.2663    -913.3381    16850.986    11.739079 
    4430    1136.8052   -6066.6896   -5939.8773   -854.69139    16863.483    11.769541 
    4440    1128.2271   -6066.2939   -5940.4385   -928.70363    16875.353    11.803154 
    4450     1150.423   -6069.2565   -5940.9251   -1997.4066    16886.502    11.848503 
    4460     1155.159   -6070.2551   -5941.3954   -2173.6504    16896.382    11.911287 
    4470    1123.9056   -6067.1903   -5941.8169   -1527.3265    16904.902    11.972929 
    4480    1108.9084    -6065.867   -5942.1666   -807.84235    16912.402     12.01876 
    4490    1083.1944   -6063.2283   -5942.3963   -168.45559    16919.338    12.053564 
    4500    1075.9979   -6062.4918   -5942.4626    76.986718    16926.102    12.093411 
    4510    1094.7026   -6064.4712   -5942.3555   -318.02689    16932.811    12.151976 
    4520    1115.6308   -6066.5395   -5942.0892   -221.65531    16939.318    12.218946 
    4530    1134.1291   -6068.2382   -5941.7244   -285.83995     16945.63    12.286494 
    4540    1128.8733   -6067.2078   -5941.2802   -356.27354    16951.708     12.35431 
    4550    1099.6748   -6063.4237   -5940.7533     -440.827    16957.512    12.414787 
    4560     1105.843   -6063.4762   -5940.1177   -1643.4961    16962.925    12.465279 
    4570    1123.6145    -6064.689   -5939.3481   -2261.7273    16967.323    12.506167 
    4580    1150.7937   -6066.8794   -5938.5066    -1991.909    16970.327    12.544476 
    4590    1148.8786   -6065.8004   -5937.6413   -1443.9467    16972.098    12.577902 
    4600    1151.0328   -6065.1732   -5936.7738   -1252.8726    16972.955    12.605212 
    4610    1155.2442   -6064.7848   -5935.9156   -1538.2232    16972.993    12.642766 
    4620    1157.3325   -6064.1734   -5935.0712   -1412.6131    16972.116    12.698298 
    4630    1178.4398   -6065.7052   -5934.2485   -1794.3571    16970.351    12.770466 
    4640    1191.2613   -6066.3658   -5933.4788    -2271.758    16967.484    12.847765 
    4650      1147.22    -6060.771   -5932.7969   -1674.4647    16963.303     12.91224 
    4660    1154.6382   -6060.9521   -5932.1504   -1762.4118    16958.062    12.950693 
    4670    1186.2746   -6063.8298   -5931.4991   -2471.7169    16951.734    12.971451 
    4680    1185.6159   -6063.1636   -5930.9063   -1713.3973    16944.026    12.998428 
    4690    1159.6638    -6059.736   -5930.3737    -3.454076    16935.396    13.045816 
    4700    1182.5635   -6061.7849   -5929.8682   -85.203283    16926.719    13.110318 
    4710    1194.8092   -6062.6715   -5929.3887     348.5531    16918.099    13.192662 
    4720    1195.6912    -6062.364   -5928.9829    1369.4635    16909.777    13.280692 
    4730    1205.2831   -6063.0978   -5928.6467    2039.3618    16902.333    13.350358 
    4740     1232.768   -6065.9339   -5928.4168    2307.3243    16896.184    13.399017 
    4750    1229.6303   -6065.5067   -5928.3395    2937.0789     16891.53    13.442571 
    4760    1193.9876   -6061.6045   -5928.4134    3466.3316    16888.719    13.492638 
    4770    1182.7262   -6060.5233   -5928.5884     2219.529    16887.945    13.548773 
    4780    1166.4867    -6058.941   -5928.8177    1312.7082    16888.558      13.6111 
    4790     1125.866   -6054.6166   -5929.0246    1979.8044    16890.082    13.666431 
    4800    1163.0021   -6058.9273   -5929.1927    1691.3771    16892.747    13.704981 
    4810    1191.3226   -6062.2456   -5929.3518    1608.8794    16896.449    13.732524 
    4820    1211.8531   -6064.7823   -5929.5982    1897.5923    16901.137    13.759314 
    4830     1205.451   -6064.4255   -5929.9556    2231.9912    16906.987    13.784037 
    4840    1199.8783   -6064.2796   -5930.4314    1585.7545    16914.128    13.803035 
    4850    1194.6795   -6064.2757   -5931.0074    765.24134    16922.208    13.821924 
    4860    1173.6995   -6062.5792   -5931.6513    374.08268    16930.735    13.855051 
    4870    1143.2692   -6059.8266   -5932.2931    420.43519     16939.48    13.903714 
    4880    1180.6796   -6064.6602   -5932.9536   -246.37115     16948.38    13.960871 
    4890    1184.3605   -6065.7543   -5933.6371   -760.03724    16957.104    14.033237 
    4900      1194.99    -6067.696   -5934.3931   -1202.0931    16965.325    14.116528 
    4910    1176.6081   -6066.4513   -5935.1989   -1092.9955    16972.806    14.182948 
    4920    1163.5502   -6065.8201   -5936.0243   -838.31938    16979.581    14.210838 
    4930    1140.1915   -6063.9824   -5936.7923   -578.60543    16985.801    14.210425 
    4940     1131.234   -6063.6545   -5937.4637   -497.90312    16991.621    14.206054 
    4950    1160.7462   -6067.5306   -5938.0476   -1370.5425    16997.034    14.211876 
    4960    1160.5079   -6068.0412   -5938.5848   -2045.9766    17001.575    14.233382 
    4970    1153.0427   -6067.7103   -5939.0866   -2362.6387    17004.844    14.266757 
    4980    1151.0573   -6067.9455   -5939.5433   -2468.3335     17006.64    14.296496 
    4990    1148.5013    -6068.074   -5939.9569   -2433.1497    17006.909    14.319115 
    5000    1168.9976    -6070.759   -5940.3556   -3148.3735    17005.612    14.344327 
Loop time of 1999.08 on 16 procs for 3000 steps with 864 atoms

Performance: 0.130 ns/day, 185.100 hours/ns, 1.501 timesteps/s
96.1% CPU use with 16 MPI tasks x 1 OpenMP threads

MPI task timing breakdown:
Section |  min time  |  avg time  |  max time  |%varavg| %total
---------------------------------------------------------------
Pair    | 1446       | 1724.6     | 1987.9     | 355.8 | 86.27
Bond    | 0.00025225 | 0.00075386 | 0.0018098  |   0.0 |  0.00
Neigh   | 0.042771   | 0.047612   | 0.057945   |   2.2 |  0.00
Comm    | 9.748      | 214.73     | 497.19     | 916.1 | 10.74
Output  | 0.19002    | 0.1947     | 0.26356    |   4.0 |  0.01
Modify  | 0.98619    | 59.506     | 143.95     | 712.5 |  2.98
Other   |            | 0.01293    |            |       |  0.00

Nlocal:        54.0000 ave          61 max          49 min
Histogram: 2 1 1 2 4 3 2 0 0 1
Nghost:        562.438 ave         622 max         527 min
Histogram: 2 4 3 1 1 1 2 0 1 1
Neighs:         0.00000 ave           0 max           0 min
Histogram: 16 0 0 0 0 0 0 0 0 0
FullNghs:      2789.38 ave        3413 max        2260 min
Histogram: 2 2 2 2 0 2 2 2 1 1

Total # of neighbors = 44630
Ave neighs/atom = 51.655093
Ave special neighs/atom = 0.0000000
Neighbor list builds = 300
Dangerous builds = 300
unfix   2

fix     3 all npt temp 1162.5 1162.5 $(100.0*dt) aniso 1.01325 1.01325 $(1000.0*dt)
fix     3 all npt temp 1162.5 1162.5 0.10000000000000000555 aniso 1.01325 1.01325 $(1000.0*dt)
fix     3 all npt temp 1162.5 1162.5 0.10000000000000000555 aniso 1.01325 1.01325 1
run     20000
Per MPI rank memory allocation (min/avg/max) = 8.909 | 8.912 | 8.918 Mbytes
Step Temp PotEng TotEng Press Volume c_msd[4] 
    5000    1168.9976    -6070.759   -5940.3556   -3148.3735    17005.612    14.344327 
    5010    1165.3981   -6070.3676   -5940.3657   -3494.2245    17004.592    14.372192 
    5020     1137.773   -6067.3005   -5940.3802   -3253.7117    17001.437    14.416246 
    5030    1130.1829   -6066.4234   -5940.3497   -3596.5519    16996.221    14.469868 
    5040    1146.0314   -6068.1052   -5940.2637   -3979.4109    16988.759    14.516435 
    5050    1127.9683   -6065.9527   -5940.1261   -3303.8495    16978.873     14.55133 
    5060    1089.1647   -6061.3992   -5939.9012   -2497.1118    16966.923    14.588278 
    5070    1121.2218   -6064.6048   -5939.5308   -2553.7018    16953.363    14.627861 
    5080    1161.7051   -6068.6045   -5939.0146   -2438.1267    16938.226    14.664313 
    5090    1182.0223   -6070.2826   -5938.4262   -1438.0299    16921.636    14.688867 
    5100    1209.3304   -6072.7299   -5937.8273   -461.25734    16904.138    14.696154 
    5110    1179.7418   -6068.8432   -5937.2412    1903.4243    16886.443     14.70007 
    5120    1201.5496   -6070.7151   -5936.6804    2262.6016    16869.772    14.711387 
    5130    1176.7164   -6067.3893   -5936.1248    2858.8693    16854.527    14.738537 
    5140    1167.3604   -6065.8031   -5935.5822    2148.9039    16840.953    14.776138 
    5150    1218.3688    -6070.946   -5935.0351    229.15344    16828.617    14.824213 
    5160     1198.856   -6068.2374   -5934.5032    391.79042    16816.524    14.893325 
    5170    1193.8123   -6067.2037   -5934.0321    1383.8122    16804.679    14.982644 
    5180    1185.1903   -6065.7651   -5933.5554    2538.9007    16793.687    15.088546 
    5190    1198.3441   -6066.7386   -5933.0615    2432.2511    16784.159    15.195838 
    5200    1245.1771   -6071.4912   -5932.5899    1343.6399    16776.051    15.287094 
    5210    1236.3609   -6070.1397   -5932.2218    1812.3083    16768.833    15.353586 
    5220    1187.9865   -6064.4973   -5931.9756    3479.0481    16762.766    15.377674 
    5230    1178.6737   -6063.2574   -5931.7746    3464.4397      16758.7    15.354558 
    5240    1223.5308   -6068.0883   -5931.6016    2160.3461     16756.66    15.315297 
    5250    1232.0681   -6068.9541   -5931.5151    2740.6645    16756.056    15.299531 
    5260    1202.4718   -6065.7322   -5931.5947    3932.9372    16757.148    15.323861 
    5270    1184.6668   -6063.9544    -5931.803    3831.8054    16760.575     15.37922 
    5280    1179.4733   -6063.6765   -5932.1045    3480.0374    16766.364     15.44947 
    5290    1196.6391   -6066.0082   -5932.5213    3192.1788    16774.299    15.518869 
    5300    1170.9853   -6063.6809   -5933.0557    3426.0565    16784.268    15.566806 
    5310    1176.3764   -6064.9166     -5933.69    2120.2028    16796.298    15.581342 
    5320    1155.6482   -6063.3161   -5934.4018    2007.5163    16809.787    15.574289 
    5330    1132.4598   -6061.4576     -5935.13    2313.3774    16824.618    15.577348 
    5340    1156.1912    -6064.834   -5935.8591    1227.8202    16840.887    15.615108 
    5350    1163.3184   -6066.3632   -5936.5932    677.70457    16858.062    15.682316 
    5360    1163.9428   -6067.1867   -5937.3472    581.48338    16875.795    15.754867 
    5370    1172.8352   -6068.9448   -5938.1133   -157.88045    16893.978    15.814414 
    5380    1182.5094    -6070.813   -5938.9023     -1905.13    16912.134    15.859029 
    5390    1148.5003   -6067.8015   -5939.6845   -2821.6895    16929.298     15.89653 
    5400    1107.5003   -6063.9246   -5940.3813   -2963.8325    16944.848    15.930483 
    5410    1124.1651   -6066.3608   -5940.9585   -3304.4094    16958.632    15.964697 
    5420    1118.8997   -6066.2376   -5941.4227   -3572.6876    16970.462    16.003152 
    5430    1102.1224   -6064.7321   -5941.7887   -3197.1866    16980.165     16.03478 
    5440    1068.3263   -6061.1716   -5941.9982   -2367.2189    16987.964    16.050972 
    5450    1087.9587   -6063.3928   -5942.0294   -2919.6184    16994.249    16.053774 
    5460    1123.7886   -6067.2602   -5941.8999   -3867.5286    16998.738    16.054155 
    5470    1130.2959   -6067.7591   -5941.6729   -3898.3471    17000.895    16.056657 
    5480    1106.8128   -6064.8494   -5941.3828     -2729.38    17000.687    16.049457 
    5490    1101.2223   -6063.8181   -5940.9751   -2153.1794    16998.748    16.038571 
    5500    1122.3964    -6065.642   -5940.4369   -2623.3649     16995.38    16.040418 
    5510    1098.8507   -6062.3685     -5939.79   -2081.3264    16990.415    16.048334 
    5520    1091.6717   -6060.7931   -5939.0154   -1644.4005    16984.105    16.045504 
    5530    1111.3344   -6062.0773   -5938.1062   -1337.7019    16976.718    16.031266 
    5540    1121.8229   -6062.2446   -5937.1036   -336.32019    16968.503    16.018377 
    5550    1143.6532   -6063.6437   -5936.0674    1043.4769    16960.055    16.013469 
    5560    1154.3284   -6063.8325   -5935.0655    1679.2919     16952.17    16.012874 
    5570    1180.9154   -6065.9101   -5934.1772    1212.8681    16945.215    16.010884 
    5580    1174.9885   -6064.5164   -5933.4447    1007.9414    16938.999    16.009517 
    5590    1178.2806   -6064.3083   -5932.8693    900.39609    16933.368    16.014752 
    5600     1183.675   -6064.4556   -5932.4149    904.56627    16928.273    16.028094 
    5610     1181.636   -6063.8707   -5932.0574    907.10706      16923.7     16.04658 
    5620    1179.8805   -6063.4149   -5931.7975    1382.0721    16919.683    16.063537 
    5630    1167.8355    -6061.887   -5931.6131    1506.2588    16916.466    16.069048 
    5640    1153.6781   -6060.1547   -5931.4602    1275.1035    16914.155    16.070548 
    5650    1173.9113   -6062.2741   -5931.3225    407.88806    16912.586    16.078955 
    5660    1183.2471    -6063.198    -5931.205   -395.95997    16911.252    16.101698 
    5670    1180.6407    -6062.847   -5931.1447    56.015006     16909.74    16.139055 
    5680    1164.0053   -6060.9644   -5931.1179    570.43818    16908.255    16.180998 
    5690    1167.8143   -6061.3723   -5931.1008   -20.517311    16907.042    16.209284 
    5700    1174.4544    -6062.106   -5931.0938   -987.43635    16905.786     16.22325 
    5710    1182.1172   -6062.9873   -5931.1203   -1808.3744    16903.901    16.232189 
    5720    1176.3264    -6062.417    -5931.196   -1563.1233    16900.932    16.242629 
    5730    1164.7059   -6061.2298   -5931.3051    -185.6541    16897.037    16.267513 
    5740    1179.8457    -6063.043   -5931.4294    434.04576    16892.933    16.300604 
    5750    1189.6658   -6064.3081   -5931.5991    660.98651    16889.034    16.319415 
    5760    1175.8432   -6062.9794   -5931.8123    715.32536    16885.498    16.328695 
    5770    1176.1879   -6063.2735    -5932.068    1009.3853    16882.384    16.340626 
    5780    1181.1354   -6064.1278   -5932.3704    1670.5629     16879.88     16.35765 
    5790      1165.38   -6062.7078   -5932.7079    2115.1124    16878.381    16.381975 
    5800    1175.5856   -6064.2353   -5933.0969    1409.2279    16878.104    16.421063 
    5810    1187.6859   -6066.0411    -5933.553    1257.6852    16878.737     16.47897 
    5820     1164.321   -6063.9668    -5934.085    2043.5011    16880.201    16.552392 
    5830    1135.8094   -6061.3375   -5934.6363    2129.3566    16882.916    16.622224 
    5840    1153.2474   -6063.8255    -5935.179    569.39035    16886.896      16.6729 
    5850    1171.8012   -6066.4587   -5935.7425   -345.32623    16891.322    16.701593 
    5860    1164.9954   -6066.3343   -5936.3773    163.99228    16895.674     16.70651 
    5870    1133.7897   -6063.5325   -5937.0565    1198.8196    16900.226    16.702114 
    5880    1136.8394   -6064.5588   -5937.7426    924.41981    16905.519    16.708208 
    5890    1143.4098   -6065.9654   -5938.4163   -103.82254    16911.441     16.72791 
    5900    1135.5113   -6065.7475   -5939.0795   -510.60855    16917.436    16.764697 
    5910    1120.4434   -6064.7001   -5939.7129   -274.73905    16923.247    16.814097 
    5920    1107.3661   -6063.8157   -5940.2874   -246.14772    16928.953     16.85988 
    5930    1111.9889   -6064.8433   -5940.7993   -371.10928     16934.58    16.893753 
    5940    1101.7125   -6064.1416   -5941.2439    701.34764    16940.135    16.923983 
    5950    1089.8727   -6063.1737   -5941.5968    1536.3794    16946.202    16.958255 
    5960     1117.217    -6066.475   -5941.8478    516.08711    16953.211    16.994712 
    5970    1108.6308   -6065.6778   -5942.0083   -69.903318     16960.69    17.033088 
    5980    1096.7736   -6064.4185   -5942.0717   -352.38921    16968.248     17.06117 
    5990    1103.2132   -6065.0545   -5941.9894   -712.72374    16975.702    17.076713 
    6000    1131.4613   -6067.9677   -5941.7515   -1250.8852    16982.817    17.091082 
    6010    1121.8376   -6066.5168   -5941.3742   -394.47947    16989.363    17.114004 
    6020    1100.4926   -6063.5835   -5940.8219   -203.89804    16995.718    17.146609 
    6030     1108.559   -6063.6773   -5940.0159   -778.32117     17002.01    17.185502 
    6040    1097.2368   -6061.3188   -5938.9204   -201.15838    17008.003    17.226746 
    6050    1114.0914   -6061.8293   -5937.5507   -338.17363    17013.938    17.269016 
    6060     1151.512   -6064.4258   -5935.9729   -1428.5932    17019.719    17.315571 
    6070    1157.5986   -6063.5112   -5934.3794   -1553.3987    17024.776    17.365134 
    6080    1164.4523   -6062.8612   -5932.9648   -1662.0982    17028.938    17.418708 
    6090    1161.3878   -6061.3245     -5931.77   -1387.3432    17032.153    17.485133 
    6100    1176.8329   -6062.0828   -5930.8053   -801.96682    17034.562    17.562415 
    6110    1167.1828   -6060.2278   -5930.0268    67.350203    17036.532    17.644448 
    6120    1187.3371   -6061.8553   -5929.4061    14.587166    17038.521    17.728923 
    6130    1197.2301   -6062.4522   -5928.8994   -235.01869    17040.564    17.810536 
    6140    1205.4255   -6062.9902   -5928.5232   -184.20236    17042.513    17.882261 
    6150    1189.0618   -6060.9174   -5928.2758    649.51046    17044.433    17.943774 
    6160    1150.9306   -6056.4935   -5928.1055    1831.4781     17046.82    17.996415 
    6170    1130.0172   -6053.9967   -5927.9416    2777.0756     17050.42     18.04034 
    6180    1137.9271   -6054.6654   -5927.7279    2243.5075    17055.768    18.085114 
    6190    1140.5313   -6054.6822   -5927.4542     1421.524    17062.641     18.14164 
    6200    1150.5576   -6055.4853   -5927.1389    105.45621    17070.527    18.199891 
    6210    1180.1238   -6058.4355   -5926.7909   -763.58598    17078.674    18.256081 
    6220     1180.543   -6058.1552   -5926.4638   -361.84139    17086.589    18.319723 
    6230    1200.6283   -6060.1186   -5926.1867   -120.59953    17094.441    18.383513 
    6240    1216.2519   -6061.6622   -5925.9875   -216.56289    17102.369    18.436224 
    6250    1219.3149   -6061.9182   -5925.9018   -710.29117    17110.303    18.467467 
    6260    1215.3732   -6061.5273   -5925.9506   -714.79068    17117.994    18.474462 
    6270    1216.9981   -6061.8923   -5926.1343   -347.32207    17125.419    18.472959 
    6280    1207.7767   -6061.1862   -5926.4569    492.77522    17132.811    18.481423 
    6290     1174.446   -6057.8963    -5926.885    1329.9221    17140.678    18.507608 
    6300    1148.9363   -6055.5254   -5927.3598    1834.1194    17149.554    18.544473 
    6310    1144.8903   -6055.5333   -5927.8191    2191.2957    17159.823    18.579467 
    6320    1186.0299    -6060.592   -5928.2885    909.29028    17171.629    18.604043 
    6330    1177.4924   -6060.1546   -5928.8035    61.769592    17184.338     18.61316 
    6340    1161.5151   -6058.9332   -5929.3644   -1055.7154    17197.363    18.612952 
    6350    1140.0661   -6057.0928   -5929.9167    -2163.676    17210.009    18.613814 
    6360    1154.1738   -6059.2013   -5930.4515   -3849.5628      17221.5    18.604784 
    6370    1158.0041   -6060.1489   -5930.9718   -4761.9544    17230.812    18.587058 
    6380    1142.3784   -6058.9334   -5931.4994   -4184.4744    17237.329    18.579407 
    6390    1114.5442   -6056.3195   -5931.9904   -2842.3913    17241.321    18.592109 
    6400    1121.1754   -6057.4688      -5932.4   -2206.5212    17243.519    18.610208 
    6410    1161.3831   -6062.3062   -5932.7521   -2791.7643    17244.275    18.632214 
    6420    1165.3115   -6063.1099   -5933.1176   -2841.7875    17243.262    18.658898 
    6430    1128.7538   -6059.3984   -5933.4843   -1547.3529    17240.469    18.691426 
    6440    1126.2445   -6059.4484   -5933.8142   -1063.4529    17236.548    18.734072 
    6450    1108.9966   -6057.7537   -5934.0435   -64.241039    17231.903     18.78102 
    6460    1143.3256   -6061.7334   -5934.1937    -89.59689    17227.031    18.810232 
    6470     1148.486   -6062.4108   -5934.2954   -302.11219    17221.991    18.808963 
    6480    1141.3234   -6061.7009   -5934.3845    -639.3534    17216.643    18.778929 
    6490     1159.154    -6063.756   -5934.4506   -1332.8134    17210.754    18.733303 
    6500    1173.9253   -6065.4876   -5934.5344   -1134.1971     17203.96    18.698236 
    6510    1165.9894   -6064.7236   -5934.6557   -218.05123    17196.358    18.683695 
    6520    1157.8844   -6063.9576   -5934.7938    651.71047     17188.48    18.688115 
    6530    1144.0251    -6062.552   -5934.9342    927.36037    17180.841    18.708442 
    6540    1136.3156    -6061.816   -5935.0583    803.74391    17173.664    18.737419 
    6550     1133.566   -6061.5766   -5935.1256   -31.764126    17166.846    18.762547 
    6560     1147.904   -6063.1688   -5935.1184   -453.10866    17159.943    18.773689 
    6570    1159.8674   -6064.4475   -5935.0625   -81.045524    17152.711    18.769838 
    6580    1159.5296   -6064.3343    -5934.987    97.070156    17145.334    18.762103 
    6590    1188.5802   -6067.4976   -5934.9097   -730.42387    17137.899    18.765654 
    6600    1194.6907   -6068.1331   -5934.8635   -1327.1273    17129.951      18.7986 
    6610    1183.8243   -6066.9598   -5934.9024   -897.73675    17121.153     18.86388 
    6620    1150.1565   -6063.2763   -5934.9746    321.71477    17111.788    18.933162 
    6630    1163.5291   -6064.8278   -5935.0343    467.77698    17102.512    18.973229 
    6640    1189.4487   -6067.7771   -5935.0923   -424.64562    17093.438    18.986666 
    6650    1179.9764   -6066.8172   -5935.1891   -851.79762    17084.129    18.995075 
    6660     1163.647   -6065.1217   -5935.3152   -1181.5265    17074.289    19.019846 
    6670     1172.346   -6066.2385   -5935.4615    -1137.406    17063.736    19.073484 
    6680     1163.077    -6065.383   -5935.6401   -424.00785    17052.521    19.145088 
    6690    1142.8318   -6063.3339   -5935.8493    821.87344    17041.106    19.214169 
    6700    1120.7959   -6061.0529   -5936.0264    2033.3579    17030.263    19.281095 
    6710    1134.4586   -6062.7011   -5936.1505    1881.7168    17020.657    19.346474 
    6720      1129.31   -6062.1808   -5936.2046    1829.8723    17012.306    19.405583 
    6730    1125.8018    -6061.779   -5936.1941     1305.664    17005.137    19.434742 
    6740    1125.8531   -6061.6887   -5936.0981     618.9218    16998.833     19.41847 
    6750    1157.3619   -6065.0302   -5935.9247    451.07769    16992.996    19.393634 
    6760    1177.2488   -6067.0404   -5935.7165    642.55691    16987.535    19.400758 
    6770    1193.4964   -6068.6804    -5935.544    71.780819    16982.491    19.439913 
    6780    1183.3446   -6067.4135   -5935.4096   -295.12927    16977.569    19.484044 
    6790    1171.9233   -6066.0491   -5935.3193   -89.492572    16972.542    19.516679 
    6800    1151.8104   -6063.7202    -5935.234    864.56747    16967.577    19.550954 
    6810    1158.3181   -6064.3546   -5935.1424    982.50783    16963.138    19.590023 
    6820    1142.3989   -6062.4498   -5935.0135    1680.8127    16959.412    19.632003 
    6830    1157.8448   -6064.0018   -5934.8425    1652.1204    16956.741    19.675282 
    6840    1174.4286   -6065.6382   -5934.6289    735.98335     16955.09    19.717766 
    6850    1165.2595   -6064.3993   -5934.4128    432.27211    16953.949    19.766203 
    6860    1149.7198   -6062.4392   -5934.1863    558.46871    16953.124    19.817612 
    6870    1152.7555    -6062.514   -5933.9224     675.8792    16952.654     19.86639 
    6880    1159.4737   -6062.9575   -5933.6165    1402.8228    16952.648    19.912788 
    6890    1144.0108   -6060.8763   -5933.2602    2134.3602    16953.521    19.959171 
    6900    1190.7691   -6065.7204   -5932.8883     1451.029    16955.612    20.005481 
    6910    1206.6392   -6067.1165   -5932.5141    705.89162    16958.572    20.056646 
    6920    1179.8069   -6063.8053   -5932.1961    1180.3633    16962.013    20.107618 
    6930    1198.3637   -6065.6106   -5931.9313    1340.3955    16966.106    20.140879 
    6940    1174.3041   -6062.6923   -5931.6969    2230.4411     16971.02    20.152137 
    6950    1155.7574   -6060.4101   -5931.4836    2611.0624    16977.226    20.156792 
    6960    1168.5031   -6061.5951   -5931.2468    1897.6351    16984.906    20.167761 
    6970    1156.3348   -6059.9669    -5930.976    2092.2184    16993.723    20.192619 
    6980    1159.6162   -6060.0626   -5930.7057    2236.7531    17003.734    20.237819 
    6990    1180.4076   -6062.0895   -5930.4132    1414.5143    17014.968     20.29065 
    7000     1161.514   -6059.6629   -5930.0943     746.3666    17026.971    20.338954 
    7010    1142.0916   -6057.1537   -5929.7517    355.38374    17039.339    20.381254 
    7020    1169.6113   -6059.8098   -5929.3379    -931.7636    17051.751    20.430423 
    7030    1191.9632   -6061.8315   -5928.8662     -1401.53    17063.521    20.496061 
    7040    1209.5162   -6063.3389   -5928.4155   -1031.7248    17074.354    20.574435 
    7050    1227.8875   -6065.0114   -5928.0387   -738.51372    17084.438    20.664104 
    7060    1219.6921   -6063.8295    -5927.771   -82.624899    17094.001     20.75155 
    7070    1209.7693   -6062.5809   -5927.6293    19.733196    17103.378    20.818391 
    7080    1230.6417   -6064.8761   -5927.5962   -501.41794    17112.656    20.855728 
    7090    1224.3237   -6064.2901    -5927.715   -1099.4517    17121.533    20.877206 
    7100    1185.8495   -6060.2628   -5927.9795   -1341.1933    17129.687    20.903666 
    7110    1182.1134   -6060.2208   -5928.3542   -1705.7892    17136.933    20.929868 
    7120    1172.7363   -6059.6306   -5928.8101   -1937.8175    17143.075    20.957268 
    7130    1169.3563    -6059.785   -5929.3416   -2811.9238    17147.922    20.993605 
    7140    1170.1125   -6060.4743   -5929.9465   -3642.5603    17150.964    21.034334 
    7150     1137.058   -6057.4497   -5930.6092   -3145.5456    17151.772    21.089372 
    7160    1107.3554    -6054.775   -5931.2479    -2251.982    17150.618    21.180793 
    7170    1109.3559   -6055.5595   -5931.8092   -2099.6848    17148.008    21.290031 
    7180    1129.4387   -6058.3013   -5932.3107   -2354.1798    17144.053    21.376944 
    7190    1127.9215   -6058.5765   -5932.7552   -2401.3039    17138.647     21.42122 
    7200    1152.1899   -6061.6897   -5933.1612   -2348.3214    17131.752    21.443136 
    7210    1181.4185   -6065.3762   -5933.5872   -2231.4705    17123.403    21.478309 
    7220    1160.9684   -6063.5753   -5934.0675   -971.50705    17113.764    21.530296 
    7230     1138.764   -6061.5955   -5934.5647    48.987406    17103.527    21.590674 
    7240    1126.2436   -6060.6737   -5935.0395     939.5967    17093.361    21.651351 
    7250    1100.4218   -6058.1931   -5935.4393    2390.5747    17083.882    21.714385 
    7260     1097.641   -6058.1861   -5935.7426     2499.765    17075.866    21.776645 
    7270    1084.5021   -6056.8991   -5935.9213    1232.6467    17069.367    21.820991 
    7280    1082.8163   -6056.7473   -5935.9575    637.75093    17063.708    21.837164 
    7290    1092.6434   -6057.7061   -5935.8201    558.35597    17058.505    21.834285 
    7300     1119.782   -6060.4256   -5935.5122   -8.6583155    17053.633    21.833069 
    7310    1131.7867   -6061.2936   -5935.0411   -578.87001    17048.793    21.856583 
    7320    1151.2807   -6062.8548   -5934.4277    -2115.568    17043.542    21.903688 
    7330    1176.0155   -6064.9083    -5933.722   -3228.2713    17037.004    21.961469 
    7340    1165.2596   -6062.9469   -5932.9604   -3135.3498     17028.54    22.019497 
    7350    1168.9079    -6062.537   -5932.1436   -2693.2723    17018.166    22.077662 
    7360    1190.6595   -6064.0986   -5931.2788   -2529.6143    17006.121    22.138736 
    7370     1167.841   -6060.6617   -5930.3873   -1404.5245    16992.616    22.194956 
    7380    1201.0185   -6063.4851   -5929.5097   -1034.3028    16978.252    22.223063 
    7390    1223.5198   -6065.1509   -5928.6655   -284.23536    16963.336    22.230263 
    7400    1194.0979    -6061.125   -5927.9215    1953.1052     16948.41    22.252658 
    7410    1210.5487   -6062.3068   -5927.2682    3240.4345    16934.699    22.306081 
    7420    1226.9359   -6063.5877   -5926.7212    3631.7931    16923.013    22.380015 
    7430    1231.6569   -6063.7212   -5926.3281    3770.5588    16913.621    22.455804 
    7440      1208.84   -6060.9319    -5926.084     4522.458    16906.638    22.517232 
    7450    1171.2055   -6056.5953   -5925.9456     4839.253    16902.453     22.56036 
    7460    1173.1509   -6056.7188    -5925.852    4227.9466    16901.242     22.60593 
    7470    1223.8758   -6062.3453   -5925.8201    2732.1735    16902.588    22.674208 
    7480    1229.5699   -6063.0656   -5925.9052    2372.8147    16905.708    22.763147 
    7490    1240.3778   -6064.5409   -5926.1749    2135.6069    16910.286    22.850358 
    7500    1230.9227   -6063.9583    -5926.647    2284.9303    16916.191    22.923777 
    7510    1196.5726   -6060.7771   -5927.2976    2212.0519    16923.471    23.000204 
    7520    1185.7245   -6060.3548   -5928.0854    1374.6788    16932.045    23.087789 
    7530    1179.4186    -6060.561   -5928.9951     740.3726    16941.464    23.168789 
    7540    1173.7657   -6060.9414   -5930.0061    33.153252    16951.319    23.232989 
    7550     1190.926   -6063.9677   -5931.1181   -1598.8662    16961.096    23.281988 
    7560    1159.7331   -6061.6686   -5932.2986    -1558.826    16969.973    23.315688 
    7570    1141.2083   -6060.7364   -5933.4329   -1797.4965    16977.833    23.317602 
    7580      1168.47    -6064.816   -5934.4714     -3030.43    16984.501     23.29898 
    7590    1182.0698   -6067.2874   -5935.4257    -3728.935     16989.29    23.291537 
    7600    1151.1872   -6064.6726    -5936.256   -2862.2108    16991.859    23.312352 
    7610    1149.1046   -6065.1118   -5936.9275   -3226.1068    16992.559    23.358703 
    7620    1140.0298   -6064.5993   -5937.4273   -3260.3892    16991.294    23.420256 
    7630    1137.9416   -6064.7113   -5937.7722    -3164.012    16988.002    23.488983 
    7640    1120.5175    -6062.969   -5937.9736    -2363.985    16982.811    23.543845 
    7650    1102.6208   -6061.0531   -5938.0541   -1167.6109    16976.188    23.574306 
    7660    1101.0968   -6060.8365   -5938.0075   -73.490237    16968.868     23.58825 
    7670    1133.3113   -6064.2712   -5937.8486   -459.56148    16961.453    23.589365 
    7680    1180.3665   -6069.3373   -5937.6656   -1923.6249    16953.718    23.577598 
    7690    1174.7754   -6068.5762   -5937.5282   -2109.3205    16944.911    23.569883 
    7700    1173.2607   -6068.3237   -5937.4447   -2214.2994    16934.819    23.587854 
    7710    1158.1226   -6066.5864   -5937.3961   -1766.8644    16923.425    23.635626 
    7720    1127.7109   -6063.1172   -5937.3193   -15.991407    16911.086    23.698143 
    7730    1156.8481   -6066.2377   -5937.1896    489.90687    16898.712      23.7494 
    7740    1174.2938   -6068.0289   -5937.0347    591.28184    16886.682    23.787974 
    7750    1174.1328   -6067.8658   -5936.8895    805.21104    16875.096    23.827351 
    7760    1200.5031   -6070.7043   -5936.7864    698.66593    16864.041    23.878981 
    7770    1172.2155   -6067.4853   -5936.7229    1131.2163    16853.511    23.932402 
    7780    1170.7881   -6067.2999   -5936.6967    871.47765     16843.69    23.966886 
    7790    1161.3969    -6066.229   -5936.6734    868.56951    16834.472    23.978946 
    7800     1141.169   -6063.9659   -5936.6668     1822.382    16825.885    23.982489 
    7810    1137.8764   -6063.5661   -5936.6343    2882.2359    16818.471    23.978667 
    7820    1139.1424   -6063.6334   -5936.5604    4006.7926    16812.855    23.963609 
    7830    1125.6417   -6061.9813   -5936.4143    5681.5608    16809.766     23.95029 
    7840      1156.42   -6065.2033    -5936.203    5665.5324     16810.06    23.944722 
    7850    1146.7051   -6063.8468   -5935.9301    5181.5653    16813.781    23.957873 
    7860    1140.7186   -6062.8447   -5935.5958    4425.4604    16820.636    23.996152 
    7870    1200.9544   -6069.1857   -5935.2175    2354.7376    16830.058    24.036035 
    7880    1207.8707   -6069.6048    -5934.865    1547.2832    16840.928    24.047815 
    7890    1183.2477   -6066.5669   -5934.5738    2271.2587     16852.78    24.029275 
    7900    1196.8477   -6067.8451   -5934.3349     2375.325    16865.905    23.993936 
    7910    1204.7922   -6068.5401   -5934.1437    2257.8224     16880.39    23.947023 
    7920    1182.9501   -6065.9934   -5934.0335    2397.6596    16896.191    23.899198 
    7930    1164.2784   -6063.8313   -5933.9543    1473.0566    16913.309    23.856154 
    7940    1186.3267   -6066.2254   -5933.8889   -65.161259    16931.185    23.824488 
    7950    1169.1206   -6064.2466   -5933.8295   -445.42933    16948.973     23.81196 
    7960    1184.0543   -6065.8759   -5933.7929   -1440.4712    16966.302    23.821926 
    7970    1205.8516   -6068.2964   -5933.7818   -2045.2925    16982.635    23.864858 
    7980    1207.9228   -6068.6268   -5933.8812   -1866.6587    16997.612    23.928982 
    7990    1196.3515   -6067.5749   -5934.1201   -1254.0503     17011.32    23.985864 
    8000    1186.1061   -6066.7941   -5934.4822   -497.51541    17024.155    24.025686 
    8010    1173.5071   -6065.8698   -5934.9633   -767.35198    17036.528    24.062322 
    8020    1125.5314   -6061.0485   -5935.4938   -1006.4895    17048.343    24.100499 
    8030    1132.9028   -6062.4013   -5936.0242   -1745.1085    17059.395    24.136756 
    8040     1150.692   -6064.9202   -5936.5588   -1945.3675     17069.31    24.192225 
    8050    1132.6168   -6063.4607   -5937.1156   -1475.2525    17077.977    24.261258 
    8060    1114.0688   -6061.9243   -5937.6483   -1827.0392     17085.62     24.32655 
    8070    1147.3058   -6066.1155   -5938.1318   -4116.0558    17091.947    24.382577 
    8080    1169.4232   -6069.0713   -5938.6204   -5794.3361    17095.682    24.420176 
    8090    1151.8193   -6067.6445   -5939.1573   -5386.4137    17095.866      24.4337 
    8100    1145.3759   -6067.4829   -5939.7145   -4206.9941    17092.697    24.414318 
    8110    1140.9031     -6067.54   -5940.2705   -3030.3716    17086.901    24.370825 
    8120    1135.0896   -6067.4144   -5940.7934   -2168.7567    17079.232    24.328976 
    8130    1149.8351   -6069.5684   -5941.3026   -2293.7841    17070.199    24.311975 
    8140    1153.9599   -6070.5385   -5941.8125   -3340.7277    17059.724    24.324529 
    8150    1145.2379   -6070.0844   -5942.3314   -3654.3388    17047.268    24.351183 
    8160    1119.4466   -6067.6971   -5942.8212   -3023.9509    17032.671    24.372955 
    8170    1106.7545   -6066.6808   -5943.2207   -2395.5621    17016.281     24.38973 
    8180    1134.4491   -6070.0977   -5943.5482   -1932.2076    16998.489    24.403526 
    8190    1130.6547   -6069.9337   -5943.8075    -690.7964    16979.677    24.413771 
    8200    1121.7602   -6069.1342   -5944.0002    689.23147    16960.575    24.425432 
    8210    1116.1889   -6068.6034   -5944.0908     1397.248    16942.004    24.447032 
    8220    1144.5721   -6071.7803   -5944.1016    1025.3284    16924.361    24.483406 
    8230    1150.6104   -6072.4224   -5944.0701    755.56306    16907.484    24.504107 
    8240    1151.5568   -6072.4771   -5944.0193    698.14378    16891.184    24.483605 
    8250    1117.7372   -6068.5995   -5943.9142    1915.2495    16875.515    24.448745 
    8260    1111.9542   -6067.7414   -5943.7012    2272.2569    16861.086    24.426351 
    8270    1132.5031    -6069.675   -5943.3425      1914.75     16848.11     24.42758 
    8280    1146.7782   -6070.7843   -5942.8595    1820.1854    16836.403     24.45504 
    8290    1137.6873   -6069.1595   -5942.2488    2027.1775    16825.905    24.500873 
    8300    1146.2719   -6069.3793   -5941.5109    2430.8482    16816.711    24.553326 
    8310    1139.7633   -6067.7635   -5940.6212    2741.9846    16809.047    24.586192 
    8320    1151.1953   -6068.0179   -5939.6003    2966.4716    16803.092    24.587241 
    8330    1164.7725   -6068.3956   -5938.4635    3408.9961    16799.003       24.556 
    8340    1184.2729   -6069.4126   -5937.3051    3079.2363     16796.95     24.49729 
    8350    1194.0851   -6069.3958   -5936.1938    3580.6585    16796.845    24.450194 
    8360    1221.5321   -6071.4779   -5935.2142    3960.0075    16798.899    24.451385 
    8370    1213.4589   -6069.7835   -5934.4203    4953.7681    16803.409    24.490646 
    8380    1196.1826   -6067.2622   -5933.8263    5201.8936     16810.89    24.538778 
    8390    1194.0678   -6066.5813   -5933.3812    4417.0951    16821.471    24.574043 
    8400    1157.4317   -6062.1454   -5933.0321    3904.7713     16834.75    24.597913 
    8410    1155.9724   -6061.6745   -5932.7241    3096.2047    16850.387     24.60181 
    8420    1185.5023   -6064.6661   -5932.4215    1623.4402    16867.857    24.596871 
    8430    1166.2664   -6062.2553   -5932.1565    1821.9723    16886.404    24.602124 
    8440    1184.2303   -6064.0474   -5931.9447    2145.3969    16906.046     24.61514 
    8450    1233.7964    -6069.433   -5931.8011    1771.7747    16926.947    24.638757 
    8460    1210.3009   -6066.8141   -5931.8033    2566.9144    16948.985    24.671334 
    8470    1160.8092   -6061.4203   -5931.9303     3286.854    16972.556    24.708992 
[...]
   22890    1137.2444    -6048.668   -5921.8067    849.78075     17215.19    60.543903 
   22900    1197.3231   -6055.0566   -5921.4934   -777.52747    17217.879     60.59083 
   22910    1213.8823   -6056.6251   -5921.2147    -1634.688      17220.1    60.664633 
   22920    1194.2725   -6054.2833   -5921.0604   -882.41426    17221.338    60.702997 
   22930    1204.3711   -6055.3436   -5920.9942   -815.72334     17221.96     60.70145 
   22940     1225.941   -6057.7784   -5921.0228   -1332.7693    17222.035    60.715267 
   22950    1229.0853   -6058.3088   -5921.2025   -1469.3278     17221.28    60.765074 
   22960    1202.3029   -6055.6583   -5921.5396   -1352.0159    17219.623    60.820213 
   22970    1176.7713   -6053.2485   -5921.9779   -1187.7276    17217.133    60.865673 
   22980     1165.957   -6052.5449   -5922.4806   -1009.5091    17213.917    60.918683 
   22990    1157.8203   -6052.1872   -5923.0306    -497.7279    17210.114    60.986301 
   23000    1140.7132   -6050.8599   -5923.6116     424.7074    17206.069    61.047057 
   23010    1144.1372    -6051.831   -5924.2008    791.53006    17202.316    61.086341 
   23020    1168.6949   -6055.1921   -5924.8225    361.05112    17199.067    61.100468 
   23030    1185.5332   -6057.7914   -5925.5434   -332.63369    17196.071    61.105875 
   23040    1166.2174   -6056.4844   -5926.3911   -386.16628    17192.938    61.115455 
   23050    1155.0264   -6056.1823   -5927.3374   -669.33603    17189.578    61.120018 
   23060    1177.8183   -6059.7861   -5928.3987   -1853.6717    17185.774    61.117493 
   23070    1146.3466   -6057.4211   -5929.5445   -1970.4847    17180.925    61.130507 
   23080     1153.437   -6059.3853   -5930.7177   -3019.7779    17174.807    61.163641 
   23090     1149.122   -6060.0649   -5931.8786   -3728.6593    17166.861    61.204462 
   23100    1138.9853   -6060.0237   -5932.9682   -3690.0303    17156.649    61.244213 
   23110    1124.0772   -6059.3087   -5933.9162   -2771.9512    17144.233    61.284278 
   23120    1097.6161   -6057.0928   -5934.6521   -1465.8112    17130.196    61.319787 
   23130     1088.714   -6056.5947    -5935.147   -895.28887    17115.314    61.342432 
   23140    1099.1407   -6058.0406   -5935.4298   -1047.4465    17099.948    61.354774 
   23150    1107.6607   -6059.1022    -5935.541   -1494.1604    17084.039    61.357506 
   23160       1125.1   -6061.0518   -5935.5452   -2282.7817    17067.295    61.342394 
   23170    1146.3548   -6063.3673   -5935.4897   -2552.4835      17049.3    61.295193 
   23180    1171.8753   -6066.1484   -5935.4239    -2401.962    17029.888    61.220776 
   23190    1165.1626   -6065.3548   -5935.3792   -1574.3479    17009.177     61.13315 
   23200    1155.6049   -6064.2481   -5935.3386   -188.23233    16987.714    61.069511 
   23210    1156.3694   -6064.2712   -5935.2764    587.84208    16966.279    61.051202 
   23220    1174.6409   -6066.2262   -5935.1932    1209.3258    16945.401     61.09018 
   23230     1202.948   -6069.3409   -5935.1503    1314.1894    16925.431    61.180404 
   23240    1189.4412   -6067.8608   -5935.1768    1856.8505    16906.508    61.255063 
   23250    1186.8304   -6067.6663   -5935.2736    1421.8802    16888.849    61.263878 
   23260    1182.9312   -6067.3813   -5935.4235    1122.9572    16872.258    61.187398 
   23270     1172.994   -6066.4651   -5935.6158    662.24355    16856.508    61.033663 
   23280    1166.0187   -6065.8929   -5935.8218   -178.81129    16841.301    60.862999 
   23290    1154.0882   -6064.7657   -5936.0254   -778.39854    16826.151    60.735038 
   23300     1135.952   -6062.9178   -5936.2007   -356.48514    16810.762    60.675536 
   23310    1150.6602    -6064.686   -5936.3281   -474.88099    16795.283    60.676646 
   23320    1174.9488   -6067.5007   -5936.4334    -469.8668    16779.692    60.719157 
   23330    1193.1102   -6069.6577   -5936.5644    345.92666     16764.03    60.774119 
   23340    1190.6037   -6069.5618   -5936.7481    1801.7987    16748.806    60.837618 
   23350    1190.7805    -6069.826   -5936.9927    2231.2458    16734.783    60.911825 
   23360    1176.5978   -6068.5574   -5937.3061    2415.5394    16722.256    60.976182 
   23370    1161.6158   -6067.2337   -5937.6537     2157.722    16711.305    61.009198 
   23380    1164.6317    -6067.949   -5938.0326     1388.577    16701.741    60.999769 
   23390    1147.9703   -6066.4775   -5938.4196    1406.8557    16693.178    60.969508 
   23400    1128.7414    -6064.713   -5938.8001    1705.8711    16685.563    60.966691 
   23410    1112.3155   -6063.2102   -5939.1297    2123.7473    16679.065    61.004465 
   23420    1111.3082   -6063.3367   -5939.3686    2095.9213    16673.894    61.057592 
   23430     1148.169   -6067.6238   -5939.5438    1857.1669    16670.005    61.112546 
   23440    1137.6451   -6066.5834   -5939.6774      2824.96    16667.335    61.165247 
   23450    1125.9029   -6065.3866   -5939.7904    3595.8282     16666.37    61.199987 
   23460    1139.3013   -6066.9339   -5939.8431    3557.0745    16667.526     61.19642 
   23470    1161.1377   -6069.3879   -5939.8613    2990.5101    16670.757     61.13607 
   23480    1152.1085    -6068.388   -5939.8686    3515.0199    16675.809    61.059677 
   23490    1130.8795   -6066.0003    -5939.849    4094.1658    16682.933    61.020564 
   23500    1149.7919   -6068.0347   -5939.7736     3279.814    16692.375    61.035917 
   23510    1163.7438   -6069.4523   -5939.6349    2817.2718    16703.748    61.116955 
   23520    1158.6242   -6068.6973    -5939.451    2507.2678    16716.735     61.24804 
   23530    1149.9579   -6067.4978   -5939.2183    2191.6808    16731.144    61.360684 
   23540    1174.2551   -6069.9029    -5938.913    1042.2411    16746.722    61.417467 
   23550    1183.5248   -6070.5849   -5938.5609    130.85768    16762.833    61.445598 
   23560    1158.6434   -6067.4353   -5938.1869    362.09664    16778.972    61.487678 
   23570    1151.9808    -6066.283   -5937.7778    548.14663    16795.208    61.555327 
   23580    1168.5632   -6067.6498   -5937.2948    -322.5579      16811.6     61.65063 
   23590    1165.3117   -6066.7597   -5936.7674   -419.66056    16827.743    61.768076 
   23600    1141.8742   -6063.5814   -5936.2036    272.99071    16843.563    61.866998 
   23610    1110.9873   -6059.5091   -5935.5768    698.01976    16859.418    61.893812 
   23620     1124.738   -6060.2994   -5934.8332     141.3159    16875.533     61.85677 
   23630    1150.0644   -6062.2479   -5933.9564   -533.08968    16891.614     61.83346 
   23640    1155.1667   -6061.8795   -5933.0189   -1176.3246    16907.246    61.899249 
   23650    1167.2956   -6062.2965   -5932.0829   -1477.1806    16922.049    62.054386 
   23660    1154.1882   -6059.9258   -5931.1744   -873.70152    16935.901    62.259254 
   23670    1188.6653   -6062.9108   -5930.3134   -1534.2763     16949.02    62.472211 
   23680    1198.0586   -6063.1679   -5929.5227   -1954.5003      16961.1    62.615465 
   23690    1196.4874   -6062.3297   -5928.8597   -1918.6462     16971.89    62.666734 
   23700    1205.9425   -6062.8419   -5928.3172    -1587.448    16981.423    62.645101 
   23710    1193.4974   -6061.0438   -5927.9074   -1402.8851    16989.869    62.581778 
   23720    1176.6639   -6058.8501   -5927.5914   -1228.7831    16997.402    62.518908 
   23730    1192.8834   -6060.4105   -5927.3426   -1815.2425    17004.059     62.49385 
   23740    1174.6693   -6058.1849   -5927.1487   -1288.5617    17009.604    62.523296 
   23750    1186.5285   -6059.3634   -5927.0043   -577.91827    17014.312    62.591452 
   23760    1164.1657   -6056.7665   -5926.9021    484.83108    17018.654    62.696699 
   23770    1129.6886    -6052.811   -5926.7926    782.61497    17023.226    62.821657 
   23780    1142.1788   -6054.0502   -5926.6384   -103.88107    17028.184     62.93446 
   23790    1156.1204   -6055.3898   -5926.4229   -1227.0758    17033.023     63.00659 
   23800    1191.7204   -6059.1233   -5926.1851   -2053.6464    17037.084    63.038734 
   23810    1211.8197   -6061.1841   -5926.0038   -1271.4515    17039.928    63.058646 
   23820    1179.8879   -6057.5279   -5925.9097    573.10177    17042.028    63.072448 
   23830    1167.1493   -6056.0639   -5925.8667    804.22534    17044.393    63.072053 
   23840    1180.7398   -6057.5671   -5925.8538   -354.47013    17047.155    63.058648 
   23850    1161.7075    -6055.452   -5925.8618   -464.87907    17049.735    63.044015 
   23860    1163.3298   -6055.6579   -5925.8867   -702.16293    17051.986    63.037303 
   23870    1172.6819   -6056.7214    -5925.907   -783.59554    17053.805    63.039157 
   23880    1211.5995   -6061.1354   -5925.9796   -865.86944    17055.098    63.057121 
   23890    1210.1244   -6061.1604   -5926.1692   -468.54989    17055.857    63.103341 
   23900    1205.5921   -6060.9829   -5926.4972   -49.399501    17056.333    63.180209 
   23910    1220.7481   -6063.1851   -5927.0088   -831.05053    17056.698    63.266293 
   23920     1190.791   -6060.5486   -5927.7141   -625.38873    17056.621    63.342378 
   23930    1195.5673    -6061.988   -5928.6207   -8.0731008    17056.162    63.410459 
   23940    1193.9262   -6062.8812    -5929.697    595.82648    17055.714     63.46201 
   23950    1185.8255   -6063.2224   -5930.9417    446.94717    17055.611    63.501279 
   23960    1176.7845   -6063.5422   -5932.2701   -223.10851     17055.77    63.535756 
   23970    1175.2967    -6064.719   -5933.6129   -882.49117    17055.798    63.557474 
   23980    1182.3105   -6066.7771   -5934.8886   -1202.7476      17055.3    63.550878 
   23990    1191.2409   -6068.9671   -5936.0824   -2145.8783    17054.019    63.510059 
   24000    1156.6231   -6066.1489   -5937.1259    -2606.228    17051.457    63.450505 
   24010    1131.8526   -6064.2201   -5937.9603    -2306.014    17047.331    63.406623 
   24020    1107.0017   -6062.0503   -5938.5626   -1061.4819    17041.848    63.420451 
   24030    1092.5459   -6060.8209   -5938.9457    174.93818    17035.745    63.461567 
   24040    1103.6392   -6062.2469   -5939.1342    361.81599    17029.755    63.473658 
   24050    1120.0439   -6064.1143   -5939.1717    7.6624666    17024.016    63.441059 
   24060     1140.593    -6066.358   -5939.1232   -477.93285     17018.31    63.357471 
   24070    1124.0956   -6064.4093   -5939.0148    190.88648    17012.449    63.241142 
   24080    1125.6073   -6064.4122    -5938.849    144.84729    17006.713    63.127779 
   24090    1140.5861   -6065.8485   -5938.6144   -361.60068    17001.099    63.064432 
   24100    1148.4606   -6066.4622   -5938.3497   -482.98528    16995.333    63.051868 
   24110    1116.3415   -6062.5701   -5938.0405    316.66799    16989.377    63.055418 
   24120    1119.6175   -6062.5608   -5937.6658    564.62918    16983.635    63.068395 
   24130    1126.0406   -6062.8075    -5937.196    967.23076    16978.312    63.088486 
   24140    1137.2402   -6063.5145   -5936.6537    907.03628    16973.605     63.11173 
   24150    1162.1139   -6065.6868   -5936.0512    389.95003    16969.479    63.138005 
   24160    1177.3145   -6066.7841   -5935.4529    964.90824    16965.698    63.171339 
   24170    1155.9273   -6063.8267   -5934.8812     2568.998    16962.602    63.179842 
   24180    1133.4042     -6060.75    -5934.317    3782.8308    16961.085    63.146974 
   24190    1130.0939   -6059.7789   -5933.7153     4527.524    16961.893    63.118475 
   24200    1129.9007   -6059.1097   -5933.0676    4788.5902    16965.481     63.14205 
   24210    1148.5828   -6060.5085   -5932.3823    4334.0009    16971.973    63.228649 
   24220    1162.3503   -6061.3519     -5931.69    3897.3473    16981.098    63.351909 
   24230    1159.4916   -6060.3754   -5931.0323     3733.175    16992.613    63.475349 
   24240    1162.0514   -6060.0429   -5930.4143    3387.3916    17006.373    63.586357 
   24250     1174.944   -6060.9013   -5929.8345    2459.1042    17022.112    63.666767 
   24260    1182.2989   -6061.1978   -5929.3106    1590.6395    17039.284    63.695954 
   24270    1171.3965   -6059.5208   -5928.8497    1136.2167    17057.361    63.699208 
   24280     1167.089   -6058.6429   -5928.4523    661.07461    17076.008    63.728423 
   24290    1142.1924   -6055.4897   -5928.0765    433.15649    17094.949    63.809963 
   24300    1152.5927   -6056.2876   -5927.7142    307.78316    17114.006    63.932529 
   24310    1136.8844   -6054.1637   -5927.3425    1322.9572    17133.185    64.071045 
   24320    1145.7933   -6054.7788   -5926.9639    716.01128     17152.93    64.210679 
   24330    1148.0298   -6054.6142   -5926.5497   -1063.5911    17172.901    64.342626 
   24340    1153.5344   -6054.7892   -5926.1107   -2998.3985    17192.014    64.465233 
   24350    1185.3579   -6057.8958   -5925.6674   -4598.4555    17209.042    64.575397 
   24360    1192.0436   -6058.2666   -5925.2924   -4202.2203    17223.078    64.669259 
   24370    1175.0329   -6056.0886   -5925.0119   -2202.2491     17234.39    64.755322 
   24380    1169.2767    -6055.242   -5924.8075   -972.99279    17244.127    64.831539 
   24390     1170.906   -6055.2395   -5924.6232   -593.87207    17253.099    64.894972 
   24400    1190.9182   -6057.3269   -5924.4782   -595.22727    17261.569    64.961647 
   24410    1211.7297   -6059.5822    -5924.412   -1000.7796     17269.54    65.063533 
   24420    1193.2332   -6057.5414   -5924.4344   -1360.5627    17276.785    65.185375 
   24430    1168.5629   -6054.8851   -5924.5301   -1859.8107     17283.06    65.259153 
   24440    1165.3456   -6054.6382   -5924.6421   -3272.1172    17288.026    65.270766 
   24450    1157.3826   -6053.8628    -5924.755   -4584.9743    17290.836    65.268089 
   24460    1152.4622   -6053.4148   -5924.8559   -4698.3652    17290.737    65.288044 
   24470    1147.9465   -6052.9896   -5924.9344   -3755.3027    17287.676     65.32685 
   24480    1136.4237   -6051.7477   -5924.9779   -2195.5087    17282.282    65.367896 
   24490    1163.6775   -6054.7883   -5924.9784   -1726.5984    17275.492    65.411047 
   24500     1177.618   -6056.3243   -5924.9592   -1897.3126    17267.656    65.464807 
   24510    1182.6841   -6056.9112    -5924.981   -1719.4921    17258.734    65.530844 
   24520    1161.8054    -6054.628   -5925.0268   -832.48874    17248.906    65.610502 
   24530    1183.8365   -6057.1593   -5925.1006   -690.50946    17238.636    65.685925 
   24540    1186.6502   -6057.5861   -5925.2135   -488.91046    17228.104    65.732518 
   24550    1165.7691   -6055.4207   -5925.3774   -1268.7437    17217.362    65.723244 
   24560    1167.3052   -6055.7783   -5925.5637   -2320.1525    17205.984    65.660628 
   24570    1178.7314   -6057.2728   -5925.7835   -2746.8166    17193.349    65.588975 
   24580    1176.7124   -6057.3214   -5926.0574   -1822.3612    17179.269    65.535636 
   24590    1175.5083   -6057.5331   -5926.4034   -790.36924    17164.274    65.485821 
   24600     1143.645   -6054.3766   -5926.8013    496.50736    17149.065    65.437772 
   24610    1140.5944   -6054.4732   -5927.2382    748.10682    17134.382    65.408658 
   24620     1174.071    -6058.727   -5927.7576    33.270267    17120.384    65.413928 
   24630     1185.731   -6060.7489   -5928.4788    51.685967      17106.7    65.447366 
   24640    1170.9485    -6060.115   -5929.4939    795.33306    17093.325    65.467785 
   24650    1151.4712   -6059.2467   -5930.7983    1393.2723    17080.688    65.451607 
   24660    1139.6201   -6059.4611   -5932.3348     1057.847     17069.08    65.393141 
   24670     1107.968   -6057.5164    -5933.921    1618.7217    17058.423    65.291761 
   24680    1109.0774   -6059.0932   -5935.3739    1512.3357    17048.922    65.186624 
   24690    1125.7643    -6062.211   -5936.6303    1021.2039    17040.505     65.10961 
   24700    1139.3544   -6064.7629   -5937.6662    823.16115    17032.917    65.051599 
   24710    1128.4945   -6064.3892    -5938.504    568.76836    17025.982     65.00548 
   24720    1114.5389   -6063.4699   -5939.1414    485.85777    17019.544    64.980066 
   24730    1117.2644   -6064.2335    -5939.601    784.17424    17013.559    64.968964 
   24740    1102.8757   -6062.9248   -5939.8974    1384.0894    17008.195    64.951637 
   24750    1097.2134   -6062.4392   -5940.0433    1363.3232     17003.75    64.924955 
   24760    1113.8861   -6064.3068   -5940.0512    588.58072    17000.197    64.901004 
   24770    1130.3243   -6066.0493   -5939.9599   -518.87833    16997.054    64.882742 
   24780     1120.888   -6064.8289   -5939.7922   -340.68657    16993.727    64.869769 
   24790    1127.0574   -6065.2793   -5939.5543   -160.76109     16990.26    64.879408 
   24800    1150.1578   -6067.5512   -5939.2493   -1414.9817    16986.679    64.932806 
   24810    1148.3102   -6067.0155   -5938.9198   -2385.4139    16982.314    65.020289 
   24820     1124.893   -6064.0448   -5938.5613   -2028.3992    16976.635    65.091323 
   24830    1115.8154    -6062.609   -5938.1381   -1218.6108    16969.822    65.099971 
   24840    1105.0999   -6060.8896    -5937.614    -149.0799    16962.396    65.047402 
   24850    1125.0852   -6062.4761   -5936.9711   -36.017239    16954.963     64.96419 
   24860    1169.8664   -6066.7513   -5936.2509   -1295.8179    16947.563    64.882914 
   24870    1172.8412   -6066.3634   -5935.5312    -2304.415    16939.524    64.818928 
   24880    1167.2867   -6065.0855   -5934.8729   -2898.1871    16930.229    64.762309 
   24890    1147.3733   -6062.2414   -5934.2502   -2198.7129    16919.389    64.711294 
   24900    1156.1839   -6062.6142   -5933.6402   -768.78867    16907.428    64.669151 
   24910    1148.9354   -6061.1923   -5933.0268    1152.5487    16895.243    64.652239 
   24920    1130.3458   -6058.5011   -5932.4093    2934.8259    16884.007    64.643747 
   24930    1154.5895   -6060.5677   -5931.7715    2283.6247     16874.63    64.610461 
   24940    1189.8548   -6063.8688   -5931.1387    790.84901    16866.769    64.558341 
   24950    1212.7436   -6065.8776   -5930.5942    265.69483    16859.587    64.513844 
   24960    1228.4662    -6067.244   -5930.2068    418.08011    16852.735    64.485537 
   24970    1212.8731   -6065.2864   -5929.9886    944.05123    16846.286    64.450862 
   24980    1174.4459   -6060.8917   -5929.8805    1861.1729    16840.538    64.415575 
   24990    1164.7739   -6059.7459   -5929.8136    2469.1468        16836    64.413818 
   25000    1172.6527   -6060.5781    -5929.767    2752.6705    16833.026    64.441783 
Loop time of 13466 on 16 procs for 20000 steps with 864 atoms

Performance: 0.128 ns/day, 187.028 hours/ns, 1.485 timesteps/s
94.9% CPU use with 16 MPI tasks x 1 OpenMP threads

MPI task timing breakdown:
Section |  min time  |  avg time  |  max time  |%varavg| %total
---------------------------------------------------------------
Pair    | 9479.4     | 11737      | 13052      | 952.8 | 87.16
Bond    | 0.0016768  | 0.0045526  | 0.010083   |   4.2 |  0.00
Neigh   | 0.28806    | 0.31183    | 0.34939    |   3.0 |  0.00
Comm    | 375.46     | 1452.2     | 3308.4     |2224.5 | 10.78
Output  | 1.2451     | 1.2767     | 1.741      |  10.6 |  0.01
Modify  | 32.974     | 274.82     | 742.34     |1623.4 |  2.04
Other   |            | 0.08742    |            |       |  0.00

Nlocal:        54.0000 ave          57 max          50 min
Histogram: 1 0 3 0 2 2 0 5 2 1
Nghost:        569.188 ave         614 max         527 min
Histogram: 1 1 2 3 2 1 3 1 1 1
Neighs:         0.00000 ave           0 max           0 min
Histogram: 16 0 0 0 0 0 0 0 0 0
FullNghs:      2780.62 ave        3041 max        2437 min
Histogram: 1 1 1 1 1 3 3 1 2 2

Total # of neighbors = 44490
Ave neighs/atom = 51.493056
Ave special neighs/atom = 0.0000000
Neighbor list builds = 2000
Dangerous builds = 2000
unfix   3
                
Total wall time: 4:39:05
