LAMMPS (2 Aug 2023)
OMP_NUM_THREADS environment is not set. Defaulting to 1 thread. (src/comm.cpp:98)
  using 1 OpenMP thread(s) per MPI task
units          metal
atom_style     full

read_data      initial-solid.data
Reading data file ...
  orthogonal box = (0 0 0) to (20.336979 20.336979 61.010936)
  1 by 1 by 1 MPI processor grid
  reading atoms ...
  1536 atoms
Finding 1-2 1-3 1-4 neighbors ...
  special bond factors lj:    0        0        0       
  special bond factors coul:  0        0        0       
     0 = max # of 1-2 neighbors
     0 = max # of 1-3 neighbors
     0 = max # of 1-4 neighbors
     1 = max # of special neighbors
  special bonds CPU = 0.000 seconds
  read_data CPU = 0.028 seconds
velocity       all create 300.0 1312343 dist gaussian

pair_style     chgnet/gpu /ocean/projects/cts180021p/wuziqi/clease/lammps-ASC/potentials/CHGNET
pair_coeff     * * /ocean/projects/cts180021p/wuziqi/chgnet/fine-tunning2/04-12-2024/epoch999_e52_f152_s406_mNA.pth.tar Cl Li

variable myZlo equal zlo
variable myZhi equal zhi
variable myMid equal (${myZlo}+${myZhi})/2
variable myMid equal (0+${myZhi})/2
variable myMid equal (0+61.0109361371943)/2

region   solid block INF INF INF INF ${myZlo} ${myMid}
region   solid block INF INF INF INF 0 ${myMid}
region   solid block INF INF INF INF 0 30.5054680685971
region   liquid block INF INF INF INF ${myMid} ${myZhi}
region   liquid block INF INF INF INF 30.5054680685971 ${myZhi}
region   liquid block INF INF INF INF 30.5054680685971 61.0109361371943
group    gSolid region solid
768 atoms in group gSolid
group    gLiquid region liquid
768 atoms in group gLiquid

neighbor        0.3 bin
neigh_modify    delay 10

timestep        0.0005
compute msd all msd
thermo_style    custom step temp pe etotal press vol c_msd[4]
thermo          10
dump            1 all custom 10 xyz-npt.dump type id x y z
#dump           2 all custom 10 force-npt.dump type id fx fy fz

fix             1 all npt temp 300.0 300.0 $(100.0*dt) aniso 1.01325 1.01325 $(1000.0*dt)
fix             1 all npt temp 300.0 300.0 0.050000000000000002776 aniso 1.01325 1.01325 $(1000.0*dt)
fix             1 all npt temp 300.0 300.0 0.050000000000000002776 aniso 1.01325 1.01325 0.5
run             10000
Neighbor list info ...
  update: every = 1 steps, delay = 10 steps, check = yes
  max neighbors/atom: 2000, page size: 100000
  master list distance cutoff = 6.3
  ghost atom cutoff = 6.3
  binsize = 3.15, bins = 7 7 20
  1 neighbor lists, perpetual/occasional/extra = 1 0 0
  (1) pair chgnet/gpu, perpetual
      attributes: full, newton on
      pair build: full/bin
      stencil: full/bin/3d
      bin: standard
Per MPI rank memory allocation (min/avg/max) = 6.985 | 6.985 | 6.985 Mbytes
   Step          Temp          PotEng         TotEng         Press          Volume        c_msd[4]   
         0   300           -6110.4939     -6050.9696      18457.167      25233.678      0            
        10   289.6103      -6108.7365     -6051.2736      18255.902      25261.143      0.0016195816 
        20   260.34332     -6103.8043     -6052.1485      17655.718      25343.373      0.0068684264 
        30   219.59118     -6096.9976     -6053.4275      16691.51       25478.68       0.0167859    
        40   176.20443     -6089.8784     -6054.9169      15360.915      25662.426      0.032892219  
        50   137.84004     -6083.7916     -6056.4422      13521.327      25885.43       0.056677931  
        60   109.82454     -6079.671      -6057.8803      11247.295      26132.885      0.088628341  
        70   94.424809     -6077.8118     -6059.0765      8656.8421      26386.239      0.12739138   
        80   90.581318     -6077.799      -6059.8263      6002.5203      26627.685      0.16992042   
        90   94.614689     -6078.8328     -6060.0599      3515.1727      26844.726      0.21265872   
       100   102.04381     -6080.1024     -6059.8555      1309.1547      27031.772      0.25281689   
       110   109.03076     -6080.9747     -6059.3415     -567.23715      27188.414      0.28880703   
       120   113.26651     -6081.1084     -6058.6347     -2189.2526      27316.614      0.31991892   
       130   114.22412     -6080.4917     -6057.828      -3507.3895      27418.481      0.34579309   
       140   113.3618      -6079.4883     -6056.9957     -4415.0757      27495.605      0.36615666   
       150   112.9002      -6078.5859     -6056.1849     -4902.529       27549.409      0.38082562   
       160   114.59093     -6078.1498     -6055.4133     -5016.3017      27581.46       0.38982891   
       170   119.09087     -6078.304      -6054.6746     -4843.1982      27593.672      0.39348764   
       180   125.93846     -6078.9346     -6053.9466     -4427.0392      27588.313      0.39243032   
       190   133.85061     -6079.7626     -6053.2047     -3833.0225      27568.029      0.38753776   
       200   141.32521     -6080.4756     -6052.4346     -3129.5718      27535.759      0.37981437   
       210   147.18075     -6080.8282     -6051.6255     -2357.7345      27494.596      0.37026915   
       220   150.93057     -6080.7195     -6050.7727     -1589.4246      27447.669      0.35982597   
       230   152.76683     -6080.1969     -6049.8858     -879.07788      27397.914      0.34925014   
       240   153.5465      -6079.4319     -6048.9661     -257.6258       27347.913      0.33909901   
       250   154.21639     -6078.6171     -6048.0183      224.0624       27299.791      0.32972751   
       260   155.61245     -6077.9242     -6047.0485      624.97341      27255.107      0.32130075   
       270   158.33867     -6077.4705     -6046.0538      957.10387      27215.02       0.31390135   
       280   162.50208     -6077.2727     -6045.03        1195.1776      27180.37       0.30759973   
       290   167.97415     -6077.309      -6043.9805      1343.8643      27151.633      0.30243496   
       300   174.43982     -6077.5107     -6042.8994      1441.5295      27128.976      0.29841147   
       310   181.48        -6077.8        -6041.7918      1528.4329      27112.391      0.29555566   
       320   188.66832     -6078.0916     -6040.6571      1573.9608      27101.817      0.29393107   
       330   195.53397     -6078.2988     -6039.5021      1571.114       27097.081      0.2935881    
       340   201.96331     -6078.4025     -6038.3301      1551.0249      27097.877      0.2945436    
       350   208.06321     -6078.4266     -6037.1439      1518.0147      27103.865      0.29681599   
       360   213.99774     -6078.4087     -6035.9485      1452.5931      27114.679      0.30043372   
       370   219.83595     -6078.3625     -6034.7439      1425.6943      27129.904      0.30541299   
       380   225.27771     -6078.2307     -6033.5324      1419.4777      27149.246      0.31181151   
       390   229.71818     -6077.9008     -6032.3214      1384.609       27172.5        0.31970543   
       400   232.7621      -6077.2965     -6031.1132      1346.3238      27199.398      0.32910511   
       410   234.34425     -6076.4103     -6029.913       1339.7534      27229.674      0.33998991   
       420   234.19551     -6075.1926     -6028.7249      1286.0831      27263.122      0.35233592   
       430   232.65164     -6073.7095     -6027.5481      1230.7037      27299.438      0.36606351   
       440   230.22473     -6072.0623     -6026.3824      1178.6637      27338.306      0.38103154   
       450   227.22305     -6070.3048     -6025.2205      1073.9445      27379.422      0.39708868   
       460   223.77152     -6068.4628     -6024.0633      951.70276      27422.333      0.41406006   
       470   220.02876     -6066.5614     -6022.9045      821.34127      27466.515      0.43170289   
       480   216.31541     -6064.6637     -6021.7436      679.07995      27511.435      0.44973601   
       490   213.10334     -6062.8612     -6020.5785      495.16465      27556.517      0.46786617   
       500   211.31067     -6061.3312     -6019.4041      294.61967      27601.113      0.48578509   
       510   211.72145     -6060.2212     -6018.2126      139.12908      27644.541      0.50318549   
       520   214.62964     -6059.5862     -6017.0006     -38.088776      27686.251      0.51985467   
       530   219.89409     -6059.3921     -6015.762      -234.33796      27725.702      0.53561326   
       540   226.64668     -6059.4657     -6014.4958     -418.08081      27762.32       0.5503127    
       550   233.6541      -6059.5712     -6013.2108     -572.46188      27795.603      0.56384155   
       560   240.17015     -6059.5686     -6011.9154     -676.69692      27825.173      0.57612095   
       570   245.77594     -6059.3855     -6010.62       -736.76567      27850.843      0.58711375   
       580   250.73638     -6059.0826     -6009.333      -798.6299       27872.568      0.5967464    
       590   255.72259     -6058.7966     -6008.0576     -851.90981      27890.331      0.60491343   
       600   261.24468     -6058.6263     -6006.7917     -891.62246      27904.16       0.61153047   
       610   267.19437     -6058.5546     -6005.5394     -934.95638      27914.11       0.61653903   
       620   273.24336     -6058.5201     -6004.3047     -931.59697      27920.251      0.61988937   
       630   278.65236     -6058.3843     -6003.0957     -865.3657       27922.783      0.62161137   
       640   282.79462     -6058.0305     -6001.92       -760.19019      27922.099      0.6218481    
       650   285.33155     -6057.3951     -6000.7813     -606.351        27918.746      0.62079843   
       660   286.31989     -6056.4939     -5999.6839     -437.29087      27913.382      0.61864921   
       670   286.15239     -6055.3997     -5998.6229     -274.26937      27906.696      0.6155883    
       680   285.76655     -6054.2937     -5997.5935     -91.457541      27899.352      0.61183887   
       690   286.14249     -6053.3602     -5996.5855      38.03479       27892.006      0.60762859   
       700   287.91583     -6052.7216     -5995.5949      159.19724      27885.147      0.60314544   
       710   290.88431     -6052.3326     -5994.617       239.23727      27879.15       0.59860156   
       720   294.36707     -6052.0635     -5993.6568      336.20953      27874.298      0.5942297    
       730   298.03607     -6051.8562     -5992.7216      433.58685      27870.87       0.59027029   
       740   301.91048     -6051.7222     -5991.8188      498.10754      27869.116      0.58692089   
       750   305.78961     -6051.631      -5990.9579      558.47258      27869.214      0.58432749   
       760   309.35347     -6051.527      -5990.1468      614.13082      27871.314      0.58264841   
       770   312.27051     -6051.3571     -5989.3981      664.18652      27875.532      0.58201031   
       780   314.30103     -6051.0776     -5988.7158      719.0988       27881.965      0.58248809   
       790   315.48163     -6050.7048     -5988.1088      759.0367       27890.711      0.58412251   
       800   316.28062     -6050.3295     -5987.5749      727.60147      27901.8        0.58689591   
       810   317.4563      -6050.105      -5987.1171      688.66327      27915.091      0.59073498   
       820   319.34091     -6050.0973     -5986.7355      633.99573      27930.367      0.59554066   
       830   321.26199     -6050.1768     -5986.4338      513.07685      27947.323      0.60118331   
       840   322.33129     -6050.1775     -5986.2223      373.35884      27965.498      0.6074732    
       850   322.32425     -6050.0566     -5986.1029      222.0058       27984.342      0.61418668   
       860   321.45363     -6049.8582     -5986.0771      98.967763      28003.319      0.62108738   
       870   319.74906     -6049.5828     -5986.14       -22.035264      28021.971      0.62797564   
       880   317.43323     -6049.2678     -5986.2845     -153.54575      28039.867      0.63468304   
       890   314.84069     -6048.9683     -5986.4994     -311.30559      28056.551      0.64108077   
       900   312.39417     -6048.7559     -5986.7724     -436.58647      28071.519      0.64705308   
       910   310.08812     -6048.6204     -5987.0944     -491.13263      28084.39       0.65252938   
       920   307.77278     -6048.5193     -5987.4528     -586.18116      28094.977      0.6575063    
       930   305.71487     -6048.4969     -5987.8387     -666.97974      28103.055      0.66195806   
       940   303.82142     -6048.5251     -5988.2426     -714.73647      28108.422      0.66579443   
       950   301.29366     -6048.4387     -5988.6577     -702.59568      28111.011      0.66896346   
       960   298.21931     -6048.2417     -5989.0707     -610.37896      28110.968      0.67144503   
       970   294.95849     -6047.9938     -5989.4698     -508.19981      28108.697      0.67327567   
       980   292.09751     -6047.7971     -5989.8408     -409.2314       28104.644      0.67448693   
       990   289.96028     -6047.7092     -5990.177      -315.08923      28099.221      0.67507067   
      1000   289.11027     -6047.8334     -5990.4698     -235.78973      28092.825      0.67503724   
      1010   289.67674     -6048.1974     -5990.7214     -208.77769      28085.748      0.67443195   
      1020   291.10837     -6048.6943     -5990.9343     -128.42015      28078.168      0.67334725   
      1030   293.05081     -6049.2579     -5991.1125     -115.12766      28070.333      0.67187735   
      1040   295.31149     -6049.8578     -5991.2638     -148.19649      28062.311      0.67007597   
      1050   297.328       -6050.3939     -5991.3998     -137.28308      28054.028      0.66793544   
      1060   298.48926     -6050.7491     -5991.5246     -171.14118      28045.49       0.66546926   
      1070   298.77577     -6050.9264     -5991.645      -194.34714      28036.607      0.66266835   
      1080   298.32416     -6050.9513     -5991.7595     -235.65551      28027.281      0.65948099   
      1090   297.09496     -6050.8162     -5991.8683     -269.16655      28017.389      0.65587294   
      1100   295.38896     -6050.5745     -5991.9651     -262.75153      28006.84       0.65185413   
      1110   293.7949      -6050.3368     -5992.0437     -227.4995       27995.67       0.64742737   
      1120   292.69065     -6050.1724     -5992.0983     -155.61829      27984.027      0.64259941   
      1130   292.53069     -6050.1672     -5992.125      -82.447212      27972.165      0.63747792   
      1140   293.50696     -6050.3584     -5992.1224      19.539627      27960.367      0.6322071    
      1150   295.27085     -6050.681      -5992.0951      114.15366      27948.982      0.62696407   
      1160   297.40364     -6051.0575     -5992.0484      242.90825      27938.35       0.6219175    
      1170   299.42355     -6051.3977     -5991.9878      378.79389      27928.886      0.61721153   
      1180   301.03693     -6051.6548     -5991.9247      508.5306       27921.071      0.61298444   
      1190   302.01354     -6051.7885     -5991.8646      610.85544      27915.317      0.60936383   
      1200   302.6263      -6051.8577     -5991.8123      702.82793      27911.93       0.60641793   
      1210   303.69874     -6052.0287     -5991.7705      751.38417      27911.181      0.60417911   
      1220   305.37248     -6052.3359     -5991.7457      721.01955      27913.163      0.60263964   
      1230   307.27677     -6052.7131     -5991.745       593.82219      27917.674      0.60173853   
      1240   308.677       -6053.0164     -5991.7704      442.01579      27924.213      0.60131328   
      1250   309.27314     -6053.198      -5991.8338      271.48116      27932.169      0.60118826   
      1260   308.68574     -6053.1815     -5991.9338      93.397876      27940.893      0.60120871   
      1270   307.04278     -6052.99       -5992.0683     -93.483075      27949.724      0.60119983   
      1280   305.05961     -6052.7567     -5992.2285     -272.03794      27957.995      0.60099028   
      1290   303.30934     -6052.5894     -5992.4084     -401.67344      27965.088      0.6004652    
      1300   302.12242     -6052.5461     -5992.6007     -531.70881      27970.543      0.59960134   
      1310   301.65897     -6052.6534     -5992.8        -604.33394      27973.944      0.59839764   
      1320   301.40391     -6052.8102     -5993.0073     -644.22698      27975.058      0.59690343   
      1330   300.48698     -6052.8424     -5993.2215     -657.51588      27973.798      0.59515131   
      1340   298.75374     -6052.7131     -5993.4361     -612.80299      27970.199      0.59318693   
      1350   296.18352     -6052.4114     -5993.6443     -548.03947      27964.453      0.59103034   
      1360   293.55731     -6052.0847     -5993.8387     -423.18708      27956.869      0.58866425   
      1370   291.53573     -6051.8518     -5994.0069     -297.97523      27947.923      0.58609405   
      1380   290.79995     -6051.8423     -5994.1434     -136.83605      27938.121      0.58326678   
      1390   291.40767     -6052.0638     -5994.2444     -22.943557      27928.032      0.58014271   
      1400   293.09485     -6052.4663     -5994.3121      45.67565       27918.087      0.57669366   
      1410   295.05003     -6052.8937     -5994.3515      109.57864      27908.529      0.57294751   
      1420   296.42394     -6053.1863     -5994.3715      180.40115      27899.585      0.56900914   
      1430   296.83214     -6053.272      -5994.3762      217.92654      27891.501      0.56500634   
      1440   296.39449     -6053.1749     -5994.366       280.9875       27884.409      0.56105614   
      1450   295.56561     -6052.9852     -5994.3408      311.29626      27878.485      0.5573311    
      1460   294.41184     -6052.7131     -5994.2976      354.7408       27873.818      0.55402508   
      1470   293.09327     -6052.3865     -5994.2326      376.39089      27870.513      0.55135667   
      1480   292.26218     -6052.1298     -5994.1408      409.68148      27868.654      0.5494837    
      1490   291.99708     -6051.9565     -5994.0201      460.52448      27868.327      0.54852477   
      1500   292.26468     -6051.8577     -5993.8682      513.74765      27869.682      0.54860029   
      1510   293.02896     -6051.8273     -5993.6861      531.75492      27872.838      0.54981736   
      1520   294.04439     -6051.8218     -5993.4792      549.54468      27877.834      0.55220644   
      1530   295.09782     -6051.7998     -5993.2482      546.72857      27884.718      0.5557295    
      1540   295.67168     -6051.6643     -5992.9988      509.1019       27893.432      0.56024145   
      1550   295.69178     -6051.4017     -5992.7322      459.05172      27903.81       0.56550581   
      1560   295.69333     -6051.1208     -5992.4511      355.70628      27915.62       0.57126568   
      1570   296.01231     -6050.8865     -5992.1534      219.23673      27928.463      0.57719489   
      1580   296.98109     -6050.7642     -5991.8389      75.130901      27941.849      0.58297997   
      1590   298.64203     -6050.7697     -5991.5148     -56.479152      27955.253      0.58839079   
      1600   300.81856     -6050.8696     -5991.1829     -189.66495      27968.182      0.59329703   
      1610   302.98318     -6050.9692     -5990.853      -335.77839      27980.153      0.5976658    
      1620   304.77289     -6051.0062     -5990.5349     -431.20842      27990.681      0.60150091   
      1630   306.10735     -6050.9725     -5990.2365     -490.53599      27999.425      0.60478882   
      1640   306.84048     -6050.8447     -5989.9632     -522.14963      28006.204      0.6075191    
      1650   306.99168     -6050.6294     -5989.7178     -534.04632      28010.959      0.60970632   
      1660   307.13688     -6050.4434     -5989.503      -508.68886      28013.692      0.61129159   
      1670   308.10698     -6050.4485     -5989.3156     -514.36114      28014.498      0.61220128   
      1680   309.98093     -6050.67       -5989.1654     -560.26382      28013.376      0.6123956    
      1690   312.46253     -6051.0513     -5989.0542     -586.3709       28010.235      0.61185891   
      1700   315.18768     -6051.5332     -5988.9955     -601.16941      28005.028      0.61062504   
      1710   317.5172      -6052.0012     -5989.0013     -545.98539      27997.746      0.60876314   
      1720   318.51026     -6052.2777     -5989.0807     -417.32517      27988.622      0.60640049   
      1730   317.81517     -6052.2946     -5989.2355     -284.00769      27978.142      0.6037237    
      1740   315.74756     -6052.1104     -5989.4615     -138.22707      27966.833      0.60092447   
      1750   312.59839     -6051.7742     -5989.7502      14.527832      27955.211      0.59814458   
      1760   309.15441     -6051.4244     -5990.0838      148.28815      27943.823      0.5954803    
      1770   306.3558      -6051.2322     -5990.4468      271.74766      27933.168      0.59297045   
      1780   305.09828     -6051.3666     -5990.8307      362.20032      27923.681      0.59060343   
      1790   305.11446     -6051.7694     -5991.2303      382.21397      27915.647      0.5883674    
      1800   305.45021     -6052.2517     -5991.646       342.24519      27909.108      0.58620807   
      1810   305.21148     -6052.6392     -5992.0808      329.42089      27903.924      0.58404652   
      1820   303.80915     -6052.8098     -5992.5297      308.63295      27900.006      0.58183149   
      1830   301.24015     -6052.7538     -5992.9834      278.35388      27897.259      0.57952487   
      1840   297.92199     -6052.5436     -5993.4316      285.35495      27895.587      0.57715899   
      1850   294.23731     -6052.2422     -5993.8613      307.79307      27894.997      0.57483319   
      1860   290.67308     -6051.9302     -5994.2565      380.52118      27895.571      0.57270059   
      1870   288.05423     -6051.7639     -5994.6098      447.50634      27897.528      0.57098773   
      1880   287.17884     -6051.8932     -5994.9128      425.37701      27901.028      0.56990878   
      1890   288.13094     -6052.3381     -5995.1688      369.0263       27906.015      0.56960723   
      1900   290.2037      -6052.9581     -5995.3776      278.08102      27912.26       0.57015967   
      1910   292.23712     -6053.5356     -5995.5516      199.71531      27919.444      0.57159021   
      1920   293.19385     -6053.8693     -5995.6954      97.558903      27927.258      0.57384993   
      1930   292.60916     -6053.8704     -5995.8125      6.3179936      27935.341      0.57675025   
      1940   290.78416     -6053.5946     -5995.8989     -69.752711      27943.356      0.58001986   
      1950   288.5418      -6053.1998     -5995.949      -124.378        27951.014      0.58340592   
      1960   286.44256     -6052.7904     -5995.9561     -150.18187      27958.142      0.58669578   
      1970   284.90214     -6052.4407     -5995.912      -181.87362      27964.635      0.58974691   
      1980   284.34387     -6052.2283     -5995.8104     -223.25468      27970.384      0.59248742   
      1990   284.73074     -6052.1473     -5995.6527     -261.08984      27975.275      0.59490167   
      2000   285.5701      -6052.0968     -5995.4356     -347.29865      27979.133      0.59697267   
      2010   286.44741     -6052.0001     -5995.1649     -390.91771      27981.683      0.5986213    
      2020   287.23482     -6051.8335     -5994.842      -382.12963      27982.785      0.59980541   
      2030   288.22594     -6051.6621     -5994.474      -371.41492      27982.473      0.60052478   
      2040   289.88986     -6051.5801     -5994.0618     -399.43092      27980.786      0.60075935   
      2050   292.49024     -6051.6504     -5993.6161     -430.89692      27977.656      0.60048479   
      2060   295.87044     -6051.8485     -5993.1436     -430.14759      27973.004      0.59972312   
      2070   299.80876     -6052.1466     -5992.6603     -403.00446      27966.838      0.59853551   
      2080   303.79189     -6052.455      -5992.1783     -401.29251      27959.238      0.59699465   
      2090   307.01078     -6052.6311     -5991.7158     -355.71398      27950.245      0.59511208   
      2100   308.93281     -6052.5806     -5991.2839     -222.14081      27940.044      0.59294415   
      2110   309.75328     -6052.3513     -5990.8918     -12.898936      27929.146      0.59062283   
      2120   310.07761     -6052.0638     -5990.54        241.28015      27918.332      0.58836712   
      2130   310.28678     -6051.7954     -5990.2301      442.90269      27908.478      0.58640136   
      2140   310.7787      -6051.6259     -5989.9629      643.95183      27900.324      0.58489483   
      2150   311.22655     -6051.4918     -5989.74        809.10709      27894.573      0.58399721   
      2160   311.36074     -6051.3406     -5989.5621      905.86177      27891.799      0.5838202    
      2170   311.14317     -6051.1696     -5989.4343      926.51356      27892.342      0.58439821   
      2180   311.03057     -6051.0667     -5989.3537      904.08252      27896.258      0.58567305   
      2190   311.16516     -6051.0615     -5989.3219      819.83743      27903.419      0.58755961   
      2200   311.20745     -6051.0842     -5989.3362      694.15639      27913.513      0.58994778   
      2210   310.85122     -6051.0751     -5989.3977      535.28974      27926.088      0.59270668   
      2220   309.68105     -6050.948      -5989.5028      328.61578      27940.552      0.59570947   
      2230   307.14092     -6050.5869     -5989.6458      134.57853      27956.152      0.59880733   
      2240   303.50672     -6050.0328     -5989.8128      10.869628      27972.189      0.60187717   
      2250   299.76053     -6049.4692     -5989.9925     -72.164244      27988.205      0.60481927   
      2260   296.54774     -6049.0045     -5990.1652     -199.44677      28003.854      0.60754383   
      2270   294.11885     -6048.6801     -5990.3227     -338.48051      28018.684      0.60990397   
      2280   292.63565     -6048.5193     -5990.4562     -437.69286      28032.222      0.61171546   
      2290   292.1252      -6048.5222     -5990.5604     -514.3864       28044.106      0.61282999   
      2300   292.34006     -6048.6398     -5990.6353     -634.83362      28054.012      0.61314032   
      2310   293.34326     -6048.8851     -5990.6816     -747.68311      28061.521      0.61252288   
      2320   295.37475     -6049.311      -5990.7045     -803.86615      28066.263      0.61087263   
      2330   298.16353     -6049.8721     -5990.7122     -860.69629      28067.991      0.60818862   
      2340   300.87789     -6050.4133     -5990.7148     -890.20513      28066.524      0.60452902   
      2350   302.82207     -6050.8052     -5990.7209     -869.63589      28061.785      0.59997104   
      2360   303.78037     -6051.0132     -5990.7388     -784.30771      28053.865      0.59462044   
      2370   303.9793      -6051.0868     -5990.7729     -669.35432      28043.087      0.58862648   
      2380   304.00515     -6051.1406     -5990.8216     -514.16439      28029.884      0.58208534   
      2390   303.91627     -6051.1871     -5990.8858     -329.51098      28014.824      0.57510555   
      2400   303.3173      -6051.1454     -5990.9629     -142.231        27998.604      0.56781042   
      2410   302.44161     -6051.0604     -5991.0517      47.13984       27981.941      0.56031256   
      2420   301.69757     -6051.0088     -5991.1477      218.13647      27965.514      0.55266924   
      2430   301.60984     -6051.0945     -5991.2508      362.87838      27949.928      0.5449249    
      2440   302.2206      -6051.3259     -5991.361       497.20418      27935.73       0.53717386   
      2450   303.09308     -6051.6185     -5991.4805      614.64568      27923.402      0.5296038    
      2460   303.67007     -6051.865      -5991.6125      719.03749      27913.352      0.52242361   
      2470   303.36429     -6051.9525     -5991.7607      805.17083      27905.966      0.51585511   
      2480   302.24203     -6051.8936     -5991.9244      838.94394      27901.545      0.51009429   
      2490   300.72218     -6051.7639     -5992.0963      813.99458      27900.187      0.50524591   
      2500   299.33015     -6051.6625     -5992.2711      723.02231      27901.793      0.50136695   
      2510   299.01796     -6051.7734     -5992.444       574.36854      27906.027      0.49846559   
      2520   300.01547     -6052.1418     -5992.6145      374.45952      27912.341      0.49650056   
      2530   301.52188     -6052.6091     -5992.7829      117.49894      27920.009      0.49534999   
      2540   302.68308     -6053.0145     -5992.9579     -147.52235      27928.103      0.49476895   
      2550   302.91824     -6053.2438     -5993.1405     -353.74312      27935.671      0.49445669   
      2560   302.24958     -6053.3064     -5993.3358     -531.80204      27941.938      0.49411543   
      2570   300.88657     -6053.239      -5993.5388     -676.9313       27946.258      0.49345487   
      2580   299.47137     -6053.1643     -5993.7449     -737.94036      27948.12       0.49220309   
      2590   298.15183     -6053.1072     -5993.9496     -731.16336      27947.288      0.49016645   
      2600   296.9831      -6053.0717     -5994.146      -669.86512      27943.787      0.48727017   
      2610   296.2131      -6053.105      -5994.3321     -566.23367      27937.824      0.48356118   
      2620   295.76707     -6053.1863     -5994.5019     -384.41178      27929.79       0.47919356   
      2630   295.6797      -6053.3232     -5994.6562     -166.1771       27920.345      0.47444594   
      2640   295.89676     -6053.5001     -5994.79        24.880882      27910.28       0.46965654   
      2650   296.08536     -6053.6565     -5994.9089      137.63309      27900.262      0.46508237   
      2660   296.10642     -6053.7638     -5995.012       213.10957      27890.709      0.46089158   
      2670   295.94667     -6053.8184     -5995.0983      308.16098      27881.924      0.45723095   
      2680   295.65599     -6053.8319     -5995.1695      375.47996      27874.227      0.45423953   
      2690   295.1537      -6053.7854     -5995.2227      461.01482      27867.882      0.45202547   
      2700   294.57875     -6053.7085     -5995.2599      550.23         27863.221      0.45069904   
      2710   294.54129     -6053.7162     -5995.275       615.54826      27860.569      0.45033287   
      2720   295.56781     -6053.9165     -5995.2716      667.86109      27860.175      0.45101534   
      2730   297.65306     -6054.3109     -5995.2523      663.00388      27862.216      0.45286869   
      2740   299.64271     -6054.6775     -5995.2241      645.45394      27866.695      0.45599078   
      2750   300.25267     -6054.7698     -5995.1953      610.96811      27873.551      0.46040996   
      2760   299.25078     -6054.5416     -5995.166       578.38906      27882.681      0.46602077   
      2770   296.88792     -6054.0414     -5995.1346      495.71         27893.965      0.47265153   
      2780   293.69692     -6053.3624     -5995.0888      356.46027      27907.101      0.48005283   
      2790   290.39292     -6052.6366     -5995.0185      252.59129      27921.639      0.48787894   
      2800   287.69976     -6051.9954     -5994.9116      157.74596      27937.19       0.49578128   
      2810   286.16458     -6051.538      -5994.7588      56.737996      27953.4        0.50349005   
      2820   286.15132     -6051.33       -5994.5534     -65.940347      27969.916      0.51084193   
      2830   287.50467     -6051.3387     -5994.2937     -241.03693      27986.269      0.51773863   
      2840   289.85387     -6051.4973     -5993.9862     -367.01985      28001.838      0.52411399   
      2850   292.4625      -6051.6683     -5993.6396     -478.23506      28016.138      0.52995997   
      2860   294.88128     -6051.7742     -5993.2655     -579.28091      28028.764      0.53529694   
      2870   296.95222     -6051.7917     -5992.8722     -718.21149      28039.29       0.54012516   
      2880   298.2835      -6051.6555     -5992.4718     -782.67766      28047.247      0.54438744   
      2890   298.7807      -6051.3508     -5992.0685     -851.89629      28052.346      0.54801083   
      2900   298.75508     -6050.9443     -5991.667      -872.57931      28054.337      0.55085416   
      2910   298.46855     -6050.4877     -5991.2672     -866.09161      28053.095      0.55273568   
      2920   298.50808     -6050.0999     -5990.8716     -819.63785      28048.614      0.55350341   
      2930   298.89264     -6049.7798     -5990.4752     -710.78835      28041.055      0.55309788   
      2940   299.79144     -6049.5645     -5990.0815     -540.59783      28030.811      0.55158977   
      2950   300.96111     -6049.4066     -5989.6916     -362.65993      28018.474      0.54918396   
      2960   302.58135     -6049.3484     -5989.3119     -124.04385      28004.724      0.54615563   
      2970   304.61772     -6049.3821     -5988.9416      84.219803      27990.389      0.54284344   
      2980   307.19678     -6049.5428     -5988.5906      278.85286      27976.262      0.53961444   
      2990   309.9078      -6049.76       -5988.2699      423.18898      27963.04       0.53681354   
      3000   312.24507     -6049.9406     -5987.9867      524.29353      27951.274      0.53471012   
      3010   314.02524     -6050.061      -5987.7539      599.183        27941.353      0.53349754   
      3020   315.33756     -6050.1471     -5987.5796      668.01955      27933.563      0.53327663   
      3030   316.54673     -6050.2745     -5987.4671      681.19988      27928.151      0.53408144   
      3040   317.90948     -6050.5023     -5987.4245      664.0223       27925.204      0.53586481   
      3050   318.84624     -6050.722      -5987.4584      573.76409      27924.642      0.53854537   
      3060   318.92188     -6050.8506     -5987.5719      458.60762      27926.17       0.54203038   
      3070   317.64743     -6050.7905     -5987.7647      395.6159       27929.436      0.54621616   
      3080   314.98364     -6050.5276     -5988.0303      352.26808      27934.19       0.55105242   
      3090   311.39745     -6050.1394     -5988.3537      342.31912      27940.298      0.55654711   
      3100   307.83454     -6049.7974     -5988.7186      329.57107      27947.725      0.5627366    
      3110   304.83117     -6049.5897     -5989.1069      253.22154      27956.42       0.56960308   
      3120   302.45268     -6049.5179     -5989.507       130.01533      27966.136      0.57697712   
      3130   300.35428     -6049.5        -5989.9054      44.480584      27976.486      0.58457663   
      3140   298.26099     -6049.4751     -5990.2958     -79.864337      27987.101      0.59207441   
      3150   296.39327     -6049.4788     -5990.6701     -214.14718      27997.53       0.59908595   
      3160   295.02086     -6049.5568     -5991.0204     -357.96566      28007.283      0.60519141   
      3170   294.28785     -6049.7373     -5991.3464     -488.89213      28015.809      0.60999084   
      3180   293.94394     -6049.9684     -5991.6457     -598.81991      28022.629      0.61312465   
      3190   294.19174     -6050.2906     -5991.9188     -751.67689      28027.296      0.61433388   
      3200   294.90466     -6050.684      -5992.1707     -876.71133      28029.234      0.61343721   
      3210   295.9174      -6051.1201     -5992.4059     -960.05494      28027.929      0.61031726   
      3220   297.13643     -6051.5841     -5992.628      -992.92976      28023.056      0.60499034   
      3230   298.76199     -6052.1199     -5992.8412     -952.83399      28014.469      0.59758853   
      3240   300.53853     -6052.6838     -5993.0527     -877.47429      28002.223      0.58842258   
      3250   302.07909     -6053.2046     -5993.2678     -733.78754      27986.588      0.57793347   
      3260   303.09067     -6053.6261     -5993.4886     -580.6978       27968.042      0.56657952   
      3270   303.17899     -6053.8755     -5993.7204     -430.86214      27947.112      0.55475821   
      3280   302.03446     -6053.8894     -5993.9614     -210.81463      27924.372      0.54280408   
      3290   299.87164     -6053.7034     -5994.2045      67.220646      27900.607      0.5309935    
      3300   297.35707     -6053.4397     -5994.4398      312.71631      27876.79       0.51953253   
      3310   295.18747     -6053.231      -5994.6615      511.2893       27853.838      0.50854202   
      3320   293.70403     -6053.1343     -5994.8592      747.54517      27832.528      0.49811537   
      3330   292.74831     -6053.1167     -5995.0312      950.05265      27813.713      0.48842325   
      3340   292.06227     -6053.1218     -5995.1725      1110.6373      27798.172      0.47965714   
      3350   291.50768     -6053.124      -5995.2847      1239.8967      27786.517      0.47199822   
      3360   291.12996     -6053.1313     -5995.367       1280.6802      27779.221      0.46552929   
      3370   291.408       -6053.2397     -5995.4202      1265.4926      27776.498      0.46024513   
      3380   292.70129     -6053.521      -5995.4449      1219.3655      27778.366      0.45611001   
      3390   294.63037     -6053.9022     -5995.4433      1107.4462      27784.704      0.4531302    
      3400   296.68153     -6054.2886     -5995.4227      924.37409      27795.142      0.45130734   
      3410   298.302       -6054.5764     -5995.389       692.69612      27809.062      0.45058936   
      3420   299.16814     -6054.7061     -5995.3468      498.36514      27825.703      0.45089789   
      3430   299.02154     -6054.627      -5995.2968      301.90629      27844.359      0.45220122   
      3440   298.36828     -6054.4402     -5995.2396      109.61255      27864.343      0.45444407   
      3450   297.72305     -6054.2439     -5995.1714     -94.104116      27884.965      0.4575192    
      3460   297.81231     -6054.1827     -5995.0925     -264.73332      27905.498      0.46128993   
      3470   298.88324     -6054.3047     -5995.002      -434.14943      27925.295      0.46563343   
      3480   300.45807     -6054.5215     -5994.9063     -590.05783      27943.713      0.47041066   
      3490   301.71822     -6054.6764     -5994.8112     -686.59766      27960.168      0.47542767   
      3500   301.81053     -6054.6064     -5994.7229     -730.03863      27974.292      0.48048334   
      3510   300.42581     -6054.2542     -5994.6454     -724.67683      27985.893      0.48539354   
      3520   297.63059     -6053.6235     -5994.5694     -721.90955      27994.916      0.48998118   
      3530   294.20998     -6052.8644     -5994.4889     -657.70995      28001.376      0.49402882   
      3540   291.4786      -6052.2184     -5994.3849     -599.20547      28005.474      0.49739849   
      3550   290.55738     -6051.9031     -5994.2523     -543.56219      28007.405      0.50003397   
      3560   291.77098     -6051.976      -5994.0844     -484.62647      28007.344      0.50198317   
      3570   294.4053      -6052.3        -5993.8858     -425.59887      28005.481      0.50340025   
      3580   297.46426     -6052.6842     -5993.663      -347.18714      28002.033      0.50452025   
      3590   299.85287     -6052.9252     -5993.4301     -266.66554      27997.249      0.50560559   
      3600   300.70625     -6052.86       -5993.1956     -169.42943      27991.412      0.50690441   
      3610   299.92413     -6052.4736     -5992.9644     -41.967004      27984.873      0.50866183   
      3620   298.37146     -6051.9371     -5992.736       132.83089      27978.123      0.51111804   
      3630   296.97971     -6051.4296     -5992.5045      251.00967      27971.752      0.51449085   
      3640   296.20774     -6051.0359     -5992.264       347.71575      27966.213      0.51892283   
      3650   295.96813     -6050.7341     -5992.0098      409.98455      27961.889      0.52452001   
      3660   295.90833     -6050.4547     -5991.7423      433.6551       27959.023      0.53132896   
      3670   295.93093     -6050.1804     -5991.4635      412.22755      27957.696      0.53935772   
      3680   296.05348     -6049.9094     -5991.1682      400.40139      27957.876      0.54856715   
      3690   296.8109      -6049.7527     -5990.8612      368.13097      27959.536      0.55890315   
      3700   298.61131     -6049.7948     -5990.546       294.33016      27962.564      0.57032305   
      3710   301.63515     -6050.0742     -5990.2255      221.92163      27966.724      0.58281414   
      3720   305.16325     -6050.4598     -5989.9111      159.46837      27971.769      0.59633287   
      3730   308.22922     -6050.7715     -5989.6144      88.778601      27977.468      0.61077719   
      3740   310.09694     -6050.8792     -5989.3515      65.720217      27983.593      0.62599609   
      3750   310.25531     -6050.684      -5989.1249      72.695527      27990.049      0.6417982    
      3760   308.97185     -6050.2438     -5988.9393      66.146285      27996.822      0.65793188   
      3770   306.98342     -6049.6981     -5988.7882      78.521829      28003.907      0.67408551   
      3780   305.1277      -6049.2067     -5988.665       79.164388      28011.338      0.68996021   
      3790   304.03952     -6048.8906     -5988.5648      79.843636      28019.133      0.70530697   
      3800   303.7877      -6048.7577     -5988.4819      80.105688      28027.289      0.71990098   
      3810   304.00851     -6048.7324     -5988.4128      91.295443      28035.819      0.73359466   
      3820   304.30472     -6048.7397     -5988.3613      31.15628       28044.729      0.74632113   
      3830   304.23777     -6048.6932     -5988.3281     -13.358336      28053.833      0.7579836    
      3840   303.72456     -6048.5757     -5988.3124     -67.73938       28062.95       0.76853266   
      3850   302.78991     -6048.3896     -5988.3118     -159.16909      28071.859      0.77791738   
      3860   301.69507     -6048.1835     -5988.3228     -230.09686      28080.233      0.78600351   
      3870   300.88342     -6048.0403     -5988.3407     -270.44192      28087.816      0.79261164   
      3880   300.78517     -6048.0432     -5988.3631     -322.9601       28094.424      0.79754839   
      3890   301.55508     -6048.223      -5988.3902     -401.42673      28099.845      0.80061024   
      3900   303.2019      -6048.5874     -5988.4278     -469.45068      28103.8        0.80162835   
      3910   305.41611     -6049.0781     -5988.4792     -502.89913      28106.046      0.80048392   
      3920   307.62472     -6049.593      -5988.5559     -515.24339      28106.442      0.7970777    
      3930   309.45407     -6050.0658     -5988.6657     -567.09496      28104.904      0.79139017   
      3940   310.59247     -6050.4408     -5988.8148     -653.35184      28101.228      0.78345959   
      3950   310.66657     -6050.6484     -5989.0077     -725.63644      28095.131      0.7734188    
      3960   309.68132     -6050.6887     -5989.2435     -741.72096      28086.349      0.76146954   
      3970   308.26828     -6050.6781     -5989.5133     -728.70522      28074.807      0.74794821   
      3980   306.68828     -6050.6635     -5989.8121     -703.44739      28060.565      0.73320921   
      3990   305.00653     -6050.647      -5990.1293     -620.2965       28043.751      0.71756127   
      4000   303.35286     -6050.6492     -5990.4596     -474.109        28024.682      0.70140888   
      4010   301.80192     -6050.673      -5990.7911     -259.85387      28003.916      0.6852274    
      4020   300.6627      -6050.7766     -5991.1208      5.4270636      27982.267      0.66947003   
      4030   299.69791     -6050.9066     -5991.4423      271.44393      27960.703      0.65463244   
      4040   298.68057     -6051.015      -5991.7525      505.86174      27940.172      0.64121569   
      4050   297.48411     -6051.0765     -5992.0514      678.87915      27921.543      0.62959961   
      4060   296.18207     -6051.104      -5992.3372      836.61452      27905.465      0.61995111   
      4070   294.86415     -6051.1117     -5992.6064      929.55867      27892.476      0.61223936   
      4080   294.03779     -6051.1996     -5992.8583      947.55547      27882.911      0.60625701   
      4090   294.05356     -6051.4336     -5993.0892      909.67289      27876.827      0.60167841   
      4100   295.28743     -6051.8925     -5993.3032      830.21158      27874.089      0.59811582   
      4110   297.48277     -6052.5278     -5993.503       680.74102      27874.387      0.59519351   
      4120   299.88514     -6053.1987     -5993.6972      504.09695      27877.175      0.59254618   
      4130   301.84906     -6053.7839     -5993.8928      315.00501      27881.8        0.58987516   
      4140   303.14742     -6054.2457     -5994.0969      121.53707      27887.563      0.58696724   
      4150   303.43168     -6054.5156     -5994.3104      20.066664      27893.793      0.58374465   
      4160   302.40039     -6054.5387     -5994.5381     -82.578847      27900.056      0.58025619   
      4170   300.01187     -6054.2977     -5994.7711     -139.01111      27906.008      0.57663574   
      4180   296.86183     -6053.9019     -5995.0002     -179.53678      27911.434      0.57307634   
      4190   294.03302     -6053.5543     -5995.214      -210.40096      27916.199      0.56978504   
      4200   292.19168     -6053.3785     -5995.4035     -225.21978      27920.187      0.56695783   
      4210   291.60598     -6053.4232     -5995.5644     -243.62587      27923.338      0.56482334   
      4220   292.27507     -6053.6902     -5995.6986     -240.65621      27925.601      0.56358165   
      4230   293.81495     -6054.0996     -5995.8025     -258.6684       27926.956      0.56336576   
      4240   295.43243     -6054.5017     -5995.8837     -255.62497      27927.368      0.56419531   
      4250   296.20551     -6054.7163     -5995.9449     -218.11538      27926.862      0.56600435   
      4260   295.58587     -6054.6335     -5995.9851     -146.16242      27925.584      0.56862187   
      4270   293.73619     -6054.2812     -5995.9998     -55.627758      27923.809      0.57180825   
      4280   291.92317     -6053.9092     -5995.9874     -14.707359      27921.845      0.57527756   
      4290   291.10923     -6053.6964     -5995.9362      19.992622      27919.87       0.57876129   
      4300   291.53922     -6053.6935     -5995.8479      73.219582      27918.015      0.58212693   
      4310   292.63254     -6053.7872     -5995.7247      93.914674      27916.44       0.58540981   
      4320   293.62668     -6053.8286     -5995.5689      115.80264      27915.235      0.5887027    
      4330   293.86581     -6053.6971     -5995.39        147.41385      27914.478      0.59211453   
      4340   293.25086     -6053.3719     -5995.1868      174.92067      27914.266      0.59572826   
      4350   291.99664     -6052.8973     -5994.961       226.68611      27914.705      0.59962244   
      4360   290.354       -6052.3191     -5994.7087      228.02709      27915.952      0.60386343   
      4370   289.15146     -6051.7954     -5994.4236      178.09135      27918.001      0.60841355   
      4380   289.03731     -6051.453      -5994.1039      86.210943      27920.651      0.61315797   
      4390   290.69853     -6051.4281     -5993.7493      23.839027      27923.591      0.61794006   
      4400   293.86827     -6051.6757     -5993.368      -44.454597      27926.57       0.6226775    
      4410   297.46633     -6051.9932     -5992.9716     -56.246075      27929.361      0.62735728   
      4420   300.16711     -6052.1338     -5992.5763     -5.5465688      27931.896      0.63196151   
      4430   301.44893     -6052.0067     -5992.1949      97.813809      27934.369      0.63652533   
      4440   301.39341     -6051.6332     -5991.8324      262.61401      27937.185      0.64110072   
      4450   301.14401     -6051.2373     -5991.486       381.13374      27940.897      0.64571958   
      4460   301.791       -6051.0341     -5991.1544      500.7575       27945.953      0.65040386   
      4470   303.28282     -6051.0135     -5990.8379      563.31868      27952.743      0.65525223   
      4480   304.98065     -6051.0516     -5990.5391      556.09875      27961.483      0.66037707   
      4490   306.17313     -6051.0139     -5990.2648      484.57947      27972.105      0.66579274   
      4500   306.42329     -6050.8129     -5990.0141      376.90898      27984.318      0.67140084   
      4510   305.76687     -6050.4631     -5989.7946      283.02246      27997.72       0.67704245   
      4520   304.61148     -6050.0365     -5989.5972      105.06543      28011.903      0.68257177   
      4530   303.76972     -6049.6919     -5989.4196     -90.64861       28026.242      0.68778355   
      4540   303.7891      -6049.5337     -5989.2576     -265.87197      28040.03       0.69249785   
      4550   304.41784     -6049.5106     -5989.1098     -479.15797      28052.609      0.69658646   
      4560   305.01162     -6049.4982     -5988.9795     -671.12191      28063.23       0.69991247   
      4570   305.31248     -6049.4462     -5988.8678     -802.31955      28071.228      0.70236105   
      4580   305.79151     -6049.4531     -5988.7797     -884.49944      28076.152      0.70388075   
      4590   307.07375     -6049.6443     -5988.7165     -911.21786      28077.751      0.7044172    
      4600   309.15891     -6050.0229     -5988.6814     -915.38636      28075.979      0.70391544   
      4610   311.34006     -6050.4576     -5988.6833     -896.45046      28070.868      0.70234596   
      4620   312.62847     -6050.7627     -5988.7327     -823.02104      28062.564      0.69970393   
      4630   312.39365     -6050.8154     -5988.8321     -704.3315       28051.384      0.69604409   
      4640   310.30684     -6050.5507     -5988.9813     -518.85291      28037.845      0.69142138   
      4650   306.82006     -6050.0457     -5989.1682     -283.7845       28022.661      0.6859223    
      4660   303.19091     -6049.5355     -5989.3781     -106.7011       28006.694      0.67970896   
      4670   300.54379     -6049.2283     -5989.5961      83.806778      27990.675      0.67295395   
      4680   299.38597     -6049.2158     -5989.8134      250.78405      27975.283      0.66584942   
      4690   299.8493      -6049.5194     -5990.025       356.70625      27961.107      0.65859967   
      4700   301.44529     -6050.0479     -5990.2368      406.30003      27948.488      0.65137492   
      4710   303.5584      -6050.6869     -5990.4566      369.36228      27937.556      0.64427585   
      4720   305.62989     -6051.3333     -5990.6919      281.9313       27928.169      0.63732357   
      4730   306.93949     -6051.8518     -5990.9506      203.33917      27919.995      0.63044528   
      4740   306.70863     -6052.0939     -5991.2385      181.54641      27912.731      0.62359118   
      4750   304.64914     -6051.9921     -5991.5453      170.90962      27906.254      0.61673125   
      4760   301.27807     -6051.6412     -5991.8634      222.643        27900.54       0.60989583   
      4770   297.697       -6051.2428     -5992.1754      298.29037      27895.738      0.60313661   
      4780   295.15621     -6051.033      -5992.4697      398.14487      27892.111      0.59656582   
      4790   294.47293     -6051.1659     -5992.7382      456.3708       27889.974      0.59038937   
      4800   295.07576     -6051.5277     -5992.9805      505.40069      27889.537      0.58482439   
      4810   295.68638     -6051.8708     -5993.2024      547.6835       27890.953      0.58011274   
      4820   295.70315     -6052.0781     -5993.4064      529.35824      27894.314      0.57646467   
      4830   295.62382     -6052.2466     -5993.5906      492.71679      27899.554      0.57399747   
      4840   296.076       -6052.5059     -5993.7601      412.78726      27906.484      0.5727017    
      4850   297.26999     -6052.8977     -5993.9151      308.56335      27914.795      0.57247067   
      4860   298.67243     -6053.321      -5994.0602      161.32282      27924.078      0.57314681   
      4870   299.64192     -6053.6528     -5994.1996      61.360589      27933.823      0.57453515   
      4880   299.80125     -6053.8235     -5994.3386     -53.243267      27943.627      0.57644957   
      4890   298.80045     -6053.7605     -5994.4742     -160.94817      27953.089      0.57866047   
      4900   296.72485     -6053.476      -5994.6015     -241.68896      27961.827      0.58089263   
      4910   294.43408     -6053.135      -5994.7151     -275.72501      27969.551      0.58284312   
      4920   292.78518     -6052.8999     -5994.8071     -308.45984      27976.135      0.58433963   
      4930   291.97895     -6052.8065     -5994.8737     -366.66776      27981.46       0.58531633   
      4940   291.80039     -6052.8051     -5994.9077     -430.99585      27985.355      0.58573261   
      4950   291.8429      -6052.816      -5994.9102     -521.4974       27987.586      0.58559618   
      4960   291.84622     -6052.7904     -5994.8839     -574.06284      27987.887      0.58492435   
      4970   291.8248      -6052.7267     -5994.8245     -613.17395      27986.077      0.58374836   
      4980   291.94735     -6052.66       -5994.7335     -623.44528      27982.067      0.5821062    
      4990   292.30877     -6052.6102     -5994.612      -600.47021      27975.872      0.58006832   
      5000   293.04982     -6052.6036     -5994.4584     -556.95355      27967.597      0.57770683   
      5010   294.39458     -6052.6886     -5994.2765     -426.38274      27957.46       0.57507167   
      5020   296.42435     -6052.8838     -5994.069      -249.57632      27945.954      0.57225701   
      5030   299.09208     -6053.1881     -5993.844      -74.224179      27933.739      0.56938216   
      5040   301.73474     -6053.4803     -5993.6119      163.25665      27921.508      0.56655244   
      5050   303.79701     -6053.6649     -5993.3872      369.9684       27910.08       0.56393676   
      5060   305.00666     -6053.6924     -5993.1747      511.66119      27900.174      0.56165561   
      5070   305.14543     -6053.5294     -5992.9842      682.0078       27892.321      0.55974098   
      5080   304.46862     -6053.2277     -5992.8167      809.22423      27887.066      0.55825188   
      5090   303.24441     -6052.8387     -5992.6707      902.6437       27884.826      0.55728041   
      5100   301.8379      -6052.429      -5992.54        925.90684      27885.876      0.556931     
      5110   300.64641     -6052.0737     -5992.4212      913.36144      27890.28       0.5572734    
      5120   299.59034     -6051.7482     -5992.3052      872.52535      27897.949      0.55831706   
      5130   298.93505     -6051.5032     -5992.1902      747.91738      27908.656      0.56004515   
      5140   298.58463     -6051.3153     -5992.0718      610.35858      27921.934      0.56241676   
      5150   298.39356     -6051.1512     -5991.9457      410.33448      27937.228      0.5653567    
      5160   298.14415     -6050.9678     -5991.8117      248.835        27953.825      0.56870562   
      5170   297.40869     -6050.677      -5991.6669      92.48739       27971.101      0.57228991   
      5180   296.37749     -6050.3163     -5991.5107     -29.4284        27988.498      0.57588372   
      5190   295.83822     -6050.0361     -5991.3376     -138.82373      28005.544      0.57921733   
      5200   296.58314     -6049.9944     -5991.148      -321.4582       28021.803      0.58206342   
      5210   299.0107      -6050.2709     -5990.9429     -496.19368      28036.656      0.58417776   
      5220   302.3314      -6050.7188     -5990.7319     -669.16836      28049.458      0.58535471   
      5230   305.57532     -6051.1597     -5990.5291     -809.25975      28059.617      0.58543645   
      5240   307.87727     -6051.4351     -5990.3478     -942.3701       28066.632      0.58433089   
      5250   308.60574     -6051.4336     -5990.2018     -1037.9043      28070.07       0.58195807   
      5260   308.28877     -6051.2574     -5990.0885     -1032.6858      28069.653      0.57824177   
      5270   307.98017     -6051.1205     -5990.0128     -994.3513       28065.445      0.57317072   
      5280   308.2675      -6051.1351     -5989.9704     -927.2024       28057.658      0.5667863    
      5290   308.58888     -6051.1901     -5989.9616     -822.97004      28046.589      0.55922717   
      5300   308.10152     -6051.1198     -5989.988      -645.84323      28032.701      0.55073442   
      5310   306.73445     -6050.9062     -5990.0457     -459.99671      28016.659      0.54159828   
      5320   304.84717     -6050.6133     -5990.1272     -225.31995      27999.209      0.53212979   
      5330   302.70191     -6050.2874     -5990.227       53.330482      27981.258      0.52270151   
      5340   301.21796     -6050.1006     -5990.3346      289.97456      27963.792      0.51369323   
      5350   300.80817     -6050.1328     -5990.4482      452.43147      27947.65       0.50541199   
      5360   300.98449     -6050.287      -5990.5674      596.48531      27933.447      0.49809845   
      5370   301.15145     -6050.4448     -5990.6921      643.16809      27921.634      0.49190948   
      5380   301.07218     -6050.5635     -5990.8264      683.73639      27912.382      0.48684146   
      5390   300.65737     -6050.6239     -5990.9692      722.72791      27905.784      0.48282053   
      5400   299.9326      -6050.6283     -5991.1174      749.97634      27901.931      0.47976216   
      5410   299.27245     -6050.6499     -5991.27        687.6488       27900.833      0.47757672   
      5420   298.99335     -6050.7477     -5991.4231      622.90804      27902.244      0.47612418   
      5430   299.3825      -6050.9777     -5991.5759      537.49854      27905.881      0.47528569   
      5440   300.12818     -6051.2783     -5991.7286      479.70707      27911.438      0.47499352   
      5450   300.68212     -6051.5435     -5991.8838      427.28807      27918.667      0.47523427   
      5460   300.27855     -6051.6233     -5992.0437      348.97119      27927.328      0.47603404   
      5470   298.89572     -6051.5112     -5992.206       249.40754      27937.115      0.47737338   
      5480   297.5285      -6051.3999     -5992.366       120.84879      27947.662      0.47914242   
      5490   296.78651     -6051.4043     -5992.5176      3.7599563      27958.506      0.48111581   
      5500   296.78618     -6051.5442     -5992.6576     -95.248723      27969.217      0.48310377   
      5510   297.33164     -6051.7819     -5992.787      -221.9875       27979.425      0.48500514   
      5520   298.02842     -6052.04       -5992.9069     -364.01529      27988.665      0.48673413   
      5530   298.20277     -6052.188      -5993.0203     -510.47452      27996.453      0.48821474   
      5540   297.65989     -6052.1887     -5993.1287     -613.83738      28002.276      0.48934669   
      5550   296.85103     -6052.1305     -5993.231      -690.19526      28005.758      0.4900865    
      5560   296.3902      -6052.1338     -5993.3257     -778.77395      28006.642      0.49041674   
      5570   296.44638     -6052.2316     -5993.4124     -811.70522      28004.668      0.49029833   
      5580   296.52728     -6052.3235     -5993.4882     -812.61928      27999.75       0.48973417   
      5590   295.98021     -6052.2832     -5993.5565     -768.60289      27991.928      0.48870522   
      5600   294.94353     -6052.1334     -5993.6124     -657.95487      27981.384      0.48715939   
      5610   293.74754     -6051.9331     -5993.6494     -447.38191      27968.592      0.48511497   
      5620   292.90449     -6051.7786     -5993.6621     -194.21437      27954.346      0.48266273   
      5630   292.83948     -6051.7496     -5993.6461     -11.963939      27939.519      0.47992975   
      5640   293.64712     -6051.8588     -5993.595       253.61189      27924.878      0.47701585   
      5650   295.12857     -6052.0693     -5993.5116      473.98952      27911.324      0.47413288   
      5660   296.64245     -6052.2568     -5993.3987      692.47544      27899.676      0.47154024   
      5670   298.00992     -6052.3887     -5993.2592      847.96038      27890.672      0.46951787   
      5680   298.87632     -6052.3989     -5993.0976      932.73916      27884.837      0.46832294   
      5690   299.44038     -6052.3308     -5992.9176      936.85848      27882.439      0.46813063   
      5700   300.39461     -6052.3217     -5992.7191      830.45071      27883.459      0.46901432   
      5710   302.35357     -6052.4952     -5992.504       608.0749       27887.47       0.47089622   
      5720   305.12619     -6052.8201     -5992.2787      340.32386      27893.639      0.47360593   
      5730   307.98956     -6053.1632     -5992.0537      67.734322      27900.98       0.47692788   
      5740   310.02092     -6053.3558     -5991.8432     -159.82007      27908.505      0.48059699   
      5750   311.00506     -6053.3657     -5991.6579     -320.84974      27915.419      0.48434876   
      5760   311.07663     -6053.228      -5991.506      -451.21362      27921.105      0.48795326   
      5770   310.61244     -6053.0215     -5991.3915     -475.04889      27925.126      0.49121356   
      5780   310.05691     -6052.8311     -5991.3113     -410.26634      27927.402      0.49406629   
      5790   309.87341     -6052.7531     -5991.2697     -276.74066      27928.179      0.49655755   
      5800   310.19837     -6052.8149     -5991.2671     -133.73027      27927.945      0.4988422    
      5810   310.41448     -6052.8977     -5991.307       59.464235      27927.246      0.50112323   
      5820   309.45851     -6052.7981     -5991.3971      254.32219      27926.773      0.50366211   
      5830   306.73695     -6052.4015     -5991.5405      449.39653      27927.256      0.50669215   
      5840   302.55778     -6051.7628     -5991.731       641.8835       27929.387      0.510375     
      5850   297.64577     -6051.0139     -5991.9567      822.14139      27933.844      0.51480747   
      5860   292.86338     -6050.3079     -5992.1996      919.07606      27941.262      0.52004969   
      5870   289.09224     -6049.8018     -5992.4417      917.50393      27951.986      0.52606032   
      5880   286.5778      -6049.5249     -5992.6638      826.19602      27965.993      0.53269204   
      5890   285.29082     -6049.4579     -5992.8521      655.93836      27982.941      0.53971456   
      5900   285.65301     -6049.6765     -5992.9989      356.09575      28002.178      0.54681494   
      5910   287.68043     -6050.1797     -5993.0998      32.708866      28022.642      0.55359749   
      5920   290.65821     -6050.8297     -5993.159      -324.16397      28043.111      0.5597079    
      5930   293.36878     -6051.3911     -5993.1825     -687.42927      28062.281      0.56483123   
      5940   294.75829     -6051.6636     -5993.1793     -998.48989      28078.831      0.56865089   
      5950   294.84278     -6051.6562     -5993.1552     -1285.007       28091.597      0.5708485    
      5960   294.11038     -6051.4651     -5993.1094     -1465.8651      28099.574      0.5711573    
      5970   293.31831     -6051.2351     -5993.0366     -1528.0499      28102.113      0.56947239   
      5980   293.08924     -6051.0835     -5992.9304     -1553.7832      28098.968      0.56583505   
      5990   293.72482     -6051.0648     -5992.7856     -1444.2859      28090.118      0.56036442   
      6000   294.91782     -6051.1099     -5992.5939     -1267.55        28075.963      0.55334508   
      6010   296.35384     -6051.1567     -5992.3559     -987.05103      28057.223      0.54513616   
      6020   298.25762     -6051.2534     -5992.0748     -651.73266      28034.944      0.53616571   
      6030   300.38126     -6051.3545     -5991.7545     -272.74335      28010.398      0.5269362    
      6040   302.01141     -6051.334      -5991.4106      61.780448      27984.96       0.5179457    
      6050   303.06873     -6051.1948     -5991.0616      399.74675      27959.905      0.50956691   
      6060   304.13087     -6051.0656     -5990.7216      705.57936      27936.481      0.50212874   
      6070   305.38121     -6050.9956     -5990.4036      893.30227      27915.757      0.4958947    
      6080   306.58938     -6050.9531     -5990.1214      958.78164      27898.387      0.49096586   
      6090   307.96095     -6050.9865     -5989.8826      1016.3731      27884.646      0.48732948   
      6100   309.63097     -6051.1271     -5989.6919      963.78595      27874.651      0.48493633   
      6110   311.421       -6051.3442     -5989.5539      880.94509      27868.226      0.48367551   
      6120   313.20065     -6051.6149     -5989.4714      760.45694      27865.051      0.48342154   
      6130   314.9384      -6051.936      -5989.4477      688.15911      27864.693      0.48408851   
      6140   316.21447     -6052.2294     -5989.4879      645.75443      27866.857      0.48566055   
      6150   316.61192     -6052.4136     -5989.5932      610.26222      27871.379      0.48816029   
      6160   315.58469     -6052.3813     -5989.7648      592.8916       27878.115      0.4916249    
      6170   313.4103      -6052.1807     -5989.9956      586.62101      27887.006      0.49604471   
      6180   310.30873     -6051.8383     -5990.2686      565.29514      27898.024      0.50139908   
      6190   307.10079     -6051.5017     -5990.5685      458.73481      27911.072      0.50768732   
      6200   304.80203     -6051.3512     -5990.8741      299.23815      27925.769      0.51480065   
      6210   303.59273     -6051.4039     -5991.1668      118.09142      27941.543      0.52255996   
      6220   302.96084     -6051.5493     -5991.4375     -95.150202      27957.719      0.53078313   
      6230   302.49166     -6051.6995     -5991.6808     -290.8945       27973.524      0.53925689   
      6240   301.79594     -6051.776      -5991.8954     -503.09499      27988.231      0.54775688   
      6250   300.5982      -6051.7225     -5992.0795     -646.45304      28001.086      0.55602483   
      6260   298.87447     -6051.5361     -5992.2352     -755.75979      28011.528      0.56385747   
      6270   297.21932     -6051.3322     -5992.3596     -846.70331      28019.162      0.57104555   
      6280   296.0566      -6051.2003     -5992.4584     -902.78641      28023.666      0.5773965    
      6290   295.56202     -6051.1721     -5992.5284     -954.26001      28024.826      0.58278489   
      6300   295.80101     -6051.2655     -5992.5743     -969.13532      28022.466      0.58709655   
      6310   296.89823     -6051.5138     -5992.6049     -907.07401      28016.578      0.59026733   
      6320   298.90064     -6051.9283     -5992.6222     -874.78005      28007.339      0.59230064   
      6330   301.49529     -6052.4564     -5992.6354     -811.84913      27994.889      0.59319298   
      6340   303.52608     -6052.8798     -5992.6558     -684.19626      27979.5        0.5930103    
      6350   304.33956     -6053.075      -5992.6896     -512.6836       27961.631      0.59191321   
      6360   304.04801     -6053.0632     -5992.7358     -197.47927      27941.981      0.59010295   
      6370   302.88141     -6052.8896     -5992.7936      131.39268      27921.673      0.58788475   
      6380   301.00188     -6052.5787     -5992.8557      484.61737      27901.933      0.58556003   
      6390   298.38161     -6052.1206     -5992.9174      848.49689      27884.027      0.58341637   
      6400   295.73663     -6051.6482     -5992.9698      1116.0568      27869.221      0.58174985   
      6410   294.14502     -6051.3695     -5993.0069      1293.1797      27858.504      0.58077019   
      6420   294.32351     -6051.4222     -5993.0242      1372.5843      27852.512      0.58064236   
      6430   296.27033     -6051.8079     -5993.0236      1333.4211      27851.516      0.58151499   
      6440   299.12379     -6052.3652     -5993.0148      1196.6146      27855.38       0.58350193   
      6450   301.17707     -6052.7589     -5993.0011      988.96941      27863.594      0.58658133   
      6460   301.70808     -6052.8552     -5992.992       776.43729      27875.422      0.59057931   
      6470   300.7816      -6052.667      -5992.9876      514.03572      27890.048      0.59519549   
      6480   298.91402     -6052.2927     -5992.9839      272.3755       27906.534      0.60002622   
      6490   296.94861     -6051.8899     -5992.971       76.845063      27924.007      0.60469506   
      6500   295.37605     -6051.5486     -5992.9417     -100.02343      27941.729      0.60893437   
      6510   294.50514     -6051.3212     -5992.8871     -211.80367      27959.06       0.61260623   
      6520   294.14292     -6051.1622     -5992.8001     -245.86059      27975.621      0.61579386   
      6530   293.93459     -6050.9967     -5992.6759     -244.42722      27991.271      0.6186959    
      6540   293.92507     -6050.8228     -5992.5038     -236.37226      28005.996      0.62152236   
      6550   294.24643     -6050.6569     -5992.2742     -260.05609      28019.807      0.62443573   
      6560   295.05381     -6050.5258     -5991.9829     -319.59267      28032.606      0.62745412   
      6570   296.38606     -6050.4371     -5991.6299     -428.38393      28044.17       0.63048082   
      6580   298.27612     -6050.4034     -5991.2212     -540.82514      28054.11       0.63334581   
      6590   300.86509     -6050.4781     -5990.7822     -659.19884      28062.013      0.63584483   
      6600   304.1774      -6050.6935     -5990.3403     -796.40464      28067.448      0.63774128   
      6610   307.56902     -6050.9583     -5989.9322     -884.61182      28069.935      0.63881336   
      6620   310.42472     -6051.1772     -5989.5845     -894.35791      28069.171      0.6389496    
      6630   312.54557     -6051.3267     -5989.3131     -812.5044       28065.127      0.63818146   
      6640   313.88559     -6051.4014     -5989.122      -707.23422      28058.071      0.63665261   
      6650   314.52971     -6051.4131     -5989.0059     -578.9533       28048.41       0.63453566   
      6660   314.04247     -6051.2706     -5988.9601     -393.38772      28036.662      0.63206413   
      6670   312.20543     -6050.9194     -5988.9734     -205.18593      28023.49       0.62949383   
      6680   309.05465     -6050.3529     -5989.032       40.222749      28009.616      0.62703345   
      6690   305.45311     -6049.7256     -5989.1193      246.91678      27995.916      0.62489718   
      6700   302.55994     -6049.2532     -5989.2209      369.73482      27983.132      0.62318307   
      6710   300.98395     -6049.0466     -5989.3271      467.36494      27971.743      0.62186527   
      6720   300.78747     -6049.1118     -5989.4313      535.14924      27962.096      0.62091728   
      6730   301.60191     -6049.3773     -5989.5352      537.76662      27954.416      0.62032338   
      6740   302.6586      -6049.6941     -5989.6423      464.24488      27948.691      0.6200219    
      6750   303.69634     -6050.0142     -5989.7565      387.17981      27944.683      0.61989797   
      6760   304.43213     -6050.2885     -5989.8848      307.59551      27942.089      0.61980948   
      6770   304.75352     -6050.4943     -5990.0268      222.95175      27940.619      0.61963894   
      6780   304.48117     -6050.595      -5990.1815      119.7176       27939.968      0.6192697    
      6790   303.77789     -6050.6287     -5990.3548      9.8701167      27939.753      0.61859378   
      6800   303.1398      -6050.6851     -5990.5378     -49.666731      27939.596      0.61752756   
      6810   303.16175     -6050.8806     -5990.729      -104.41978      27939.259      0.61604215   
      6820   304.1202      -6051.2706     -5990.9288     -137.31927      27938.552      0.61417091   
      6830   305.78471     -6051.8123     -5991.1402     -167.85394      27937.346      0.61204937   
      6840   307.50721     -6052.3821     -5991.3682     -218.52585      27935.51       0.60980741   
      6850   308.40351     -6052.8058     -5991.6141     -218.49599      27932.89       0.60754471   
      6860   308.19511     -6053.0292     -5991.8789     -153.49828      27929.478      0.6053552    
      6870   306.68892     -6053.0043     -5992.1528     -21.793616      27925.521      0.60339488   
      6880   303.98657     -6052.7369     -5992.4216      107.22023      27921.478      0.6018188    
      6890   300.88533     -6052.3689     -5992.6689      278.06397      27917.848      0.60072662   
      6900   298.18564     -6052.0419     -5992.8776      389.68733      27915.217      0.60021      
      6910   296.37686     -6051.85       -5993.0446      440.54211      27914.004      0.60033181   
      6920   295.48298     -6051.7954     -5993.1674      451.19837      27914.411      0.60118934   
      6930   295.51102     -6051.8877     -5993.2541      409.37229      27916.461      0.60286177   
      6940   296.40617     -6052.1191     -5993.3079      341.07557      27920.007      0.60542609   
      6950   297.82742     -6052.4337     -5993.3405      252.82776      27924.807      0.6089542    
      6960   299.18375     -6052.7241     -5993.3618      170.03476      27930.554      0.61348671   
      6970   299.92251     -6052.8849     -5993.376       128.04232      27936.953      0.61906936   
      6980   299.82688     -6052.8787     -5993.3887      63.808546      27943.827      0.62566638   
      6990   299.31453     -6052.7889     -5993.4007     -22.713041      27950.947      0.63309336   
      7000   298.51439     -6052.6373     -5993.4078     -39.726105      27958.038      0.64105997   
      7010   297.44868     -6052.4275     -5993.4094     -53.210031      27965.008      0.64929984   
      7020   296.18813     -6052.1686     -5993.4006     -70.394404      27971.807      0.65758986   
      7030   295.1302      -6051.936      -5993.378      -164.45539      27978.339      0.66571732   
      7040   294.59706     -6051.7888     -5993.3365     -252.02892      27984.292      0.67340227   
      7050   294.74255     -6051.7592     -5993.278      -336.89087      27989.333      0.68040069   
      7060   295.44788     -6051.8196     -5993.1985     -478.53458      27993.134      0.68652383   
      7070   296.39741     -6051.9126     -5993.1031     -620.429        27995.187      0.69157735   
      7080   297.4559      -6052.0133     -5992.9938     -685.80815      27994.987      0.69541938   
      7090   298.57374     -6052.1147     -5992.8734     -733.6643       27992.253      0.69795112   
      7100   299.80561     -6052.2341     -5992.7484     -709.97133      27986.815      0.6991042    
      7110   300.87556     -6052.3195     -5992.6214     -627.41048      27978.735      0.69888705   
      7120   301.49689     -6052.3158     -5992.4945     -492.55485      27968.308      0.69742688   
      7130   301.51205     -6052.1906     -5992.3662     -282.40048      27956.063      0.69494873   
      7140   300.99445     -6051.9628     -5992.2412     -38.366546      27942.745      0.69173388   
      7150   300.21037     -6051.6782     -5992.1122      215.77914      27929.228      0.68808948   
      7160   299.47865     -6051.3988     -5991.978       424.06641      27916.419      0.68427052   
      7170   299.46177     -6051.2527     -5991.8352      581.42551      27905.101      0.68045731   
      7180   300.31497     -6051.2681     -5991.6813      617.09662      27895.816      0.67672982   
      7190   301.57989     -6051.3567     -5991.5189      638.36935      27888.757      0.6730866    
      7200   302.9072      -6051.4541     -5991.353       638.71187      27884.001      0.66954964   
      7210   304.25408     -6051.5537     -5991.1853      610.56725      27881.555      0.66608968   
      7220   305.61445     -6051.6588     -5991.0205      582.92151      27881.336      0.66262392   
      7230   306.72009     -6051.7181     -5990.8605      522.18789      27883.246      0.65916079   
      7240   307.38562     -6051.6984     -5990.7087      474.60429      27887.098      0.6557807    
      7250   307.80656     -6051.642      -5990.5687      405.52159      27892.707      0.65254483   
      7260   307.92894     -6051.5365     -5990.439       390.93271      27899.873      0.64948635   
      7270   307.3427      -6051.3014     -5990.3202      344.14558      27908.514      0.64659879   
      7280   305.86319     -6050.8997     -5990.212       332.05864      27918.511      0.64382311   
      7290   303.69799     -6050.3643     -5990.1062      334.49767      27929.823      0.64108159   
      7300   301.58347     -6049.8325     -5989.994       320.83334      27942.444      0.63828525   
      7310   300.58847     -6049.5044     -5989.8633      261.36519      27956.343      0.63533633   
      7320   301.26243     -6049.4806     -5989.7058      169.97204      27971.321      0.63214207   
      7330   303.24937     -6049.6864     -5989.5174      51.382257      27987.042      0.62868437   
      7340   305.70509     -6049.9607     -5989.3044     -100.58161      28003.048      0.62496931   
      7350   307.92005     -6050.1764     -5989.0806     -241.32225      28018.799      0.62099589   
      7360   309.43578     -6050.2544     -5988.8579     -382.5875       28033.778      0.61677109   
      7370   310.64187     -6050.2863     -5988.6505     -583.55756      28047.407      0.61224631   
      7380   312.16637     -6050.4045     -5988.4663     -701.69864      28058.989      0.6072903    
      7390   313.79266     -6050.584      -5988.323      -835.93206      28068.014      0.60187855   
      7400   314.69923     -6050.6678     -5988.227      -914.80456      28074.001      0.59601673   
      7410   314.18453     -6050.5276     -5988.1889     -949.88002      28076.629      0.58973175   
      7420   312.37258     -6050.191      -5988.2118     -945.74872      28075.749      0.58301608   
      7430   309.99717     -6049.7992     -5988.2913     -928.6721       28071.339      0.57585974   
      7440   307.93254     -6049.519      -5988.4208     -850.57812      28063.47       0.56827748   
      7450   306.37017     -6049.3813     -5988.5931     -741.83994      28052.41       0.56038046   
      7460   305.15426     -6049.3506     -5988.8036     -627.39898      28038.541      0.55230722   
      7470   304.04046     -6049.3729     -5989.0469     -485.71594      28022.279      0.54417796   
      7480   302.76927     -6049.3887     -5989.3149     -287.89538      28004.149      0.53606813   
      7490   301.56768     -6049.4374     -5989.602      -73.525528      27984.863      0.52809229   
      7500   300.70848     -6049.556      -5989.8912      147.8174       27965.228      0.5203824    
      7510   300.6279      -6049.8307     -5990.1818      336.86132      27946.048      0.51301102   
      7520   301.25594     -6050.2405     -5990.467       538.11143      27928.033      0.50607642   
      7530   302.29037     -6050.7235     -5990.7448      702.45223      27911.903      0.4997219    
      7540   303.81188     -6051.2977     -5991.0171      816.15046      27898.271      0.49410568   
      7550   305.47857     -6051.9009     -5991.2896      865.95553      27887.541      0.48937827   
[...]
     18200   1296.8179     -5723.517      -5466.2097     -9516.9299      44522.548      143.10569    
     18210   1279.4613     -5719.6135     -5465.7501     -9588.4442      44546.622      143.52914    
     18220   1281.2918     -5719.5421     -5465.3155     -9744.788       44565.384      143.87711    
     18230   1284.8508     -5719.8208     -5464.888      -9720.5524      44578.657      144.14352    
     18240   1279.9368     -5718.4252     -5464.4674     -9539.8756      44586.949      144.33078    
     18250   1273.8494     -5716.7937     -5464.0437     -9284.8049      44591.523      144.45287    
     18260   1268.874      -5715.3483     -5463.5855     -9145.2072      44593.719      144.52681    
     18270   1267.8575     -5714.629      -5463.0679     -9049.2909      44594.158      144.56402    
     18280   1271.9593     -5714.8612     -5462.4863     -9138.1632      44593.037      144.57282    
     18290   1278.8852     -5715.6006     -5461.8515     -9274.7267      44590.504      144.55907    
     18300   1281.3958     -5715.4285     -5461.1812     -9251.9029      44586.814      144.52743    
     18310   1281.1116     -5714.6733     -5460.4824     -9153.8798      44582.922      144.49238    
     18320   1288.8044     -5715.4841     -5459.7669     -9033.5043      44580.115      144.47362    
     18330   1295.793      -5716.1543     -5459.0504     -8794.5432      44579.609      144.4928     
     18340   1295.6006     -5715.4292     -5458.3635     -8521.7582      44582.252      144.56721    
     18350   1292.5686     -5714.1775     -5457.7134     -8146.5661      44588.365      144.7044     
     18360   1288.3025     -5712.7068     -5457.0891     -7697.9378      44598.269      144.90869    
     18370   1287.9338     -5712.0293     -5456.4848     -7296.0151      44612.908      145.19156    
     18380   1298.1351     -5713.4777     -5455.9091     -7164.5229      44633.543      145.57036    
     18390   1308.7627     -5715.0615     -5455.3843     -7222.9267      44660.706      146.05345    
     18400   1312.8055     -5715.4138     -5454.9344     -7343.2778      44693.599      146.62827    
     18410   1311.0615     -5714.6938     -5454.5605     -7430.698       44730.696      147.27061    
     18420   1312.3581     -5714.6411     -5454.2505     -7608.1337      44770.831      147.96308    
     18430   1331.685      -5718.2314     -5454.0061     -7968.574       44813.054      148.69302    
     18440   1342.2969     -5720.1874     -5453.8564     -8296.071       44856.297      149.44502    
     18450   1328.9344     -5717.488      -5453.8084     -8369.032       44899.593      150.20142    
     18460   1311.21       -5713.9746     -5453.8118     -8320.3281      44942.541      150.95045    
     18470   1303.6739     -5712.4684     -5453.8008     -8394.6838      44984.817      151.6829     
     18480   1302.9264     -5712.2666     -5453.7473     -8553.1539      45026.113      152.39294    
     18490   1301.7673     -5711.9418     -5453.6525     -8675.3332      45066.226      153.07876    
     18500   1299.3786     -5711.3251     -5453.5097     -8739.6574      45105.23       153.74403    
     18510   1301.6762     -5711.5847     -5453.3135     -8786.5123      45143.111      154.39026    
     18520   1303.3013     -5711.6682     -5453.0746     -8720.0627      45179.99       155.01913    
     18530   1297.736      -5710.285      -5452.7956     -8537.8079      45216.87       155.64624    
     18540   1286.7087     -5707.7607     -5452.4593     -8355.6486      45255.358      156.29912    
     18550   1285.9288     -5707.1785     -5452.0318     -8185.4027      45296.526      156.99849    
     18560   1297.1194     -5708.8594     -5451.4923     -8164.2924      45340.415      157.74853    
     18570   1304.7893     -5709.75       -5450.8611     -8198.3756      45386.256      158.53806    
     18580   1303.3226     -5708.7708     -5450.1729     -8195.6067      45433.376      159.35432    
     18590   1300.2653     -5707.4165     -5449.4253     -8274.7334      45481.748      160.19135    
     18600   1311.2177     -5708.7858     -5448.6214     -8580.5757      45531.52       161.04423    
     18610   1322.3881     -5710.1514     -5447.7706     -8930.5576      45582.16       161.90354    
     18620   1321.0936     -5709.0352     -5446.9113     -9078.3505      45632.733      162.75846    
     18630   1313.3642     -5706.6478     -5446.0576     -9055.6242      45682.641      163.60185    
     18640   1312.078      -5705.5305     -5445.1955     -8995.9988      45731.697      164.4313     
     18650   1317.0788     -5705.6492     -5444.3219     -8873.9423      45779.912      165.24824    
     18660   1319.7435     -5705.3027     -5443.4467     -8630.2603      45827.237      166.05616    
     18670   1319.6122     -5704.4165     -5442.5865     -8291.9187      45873.634      166.85908    
     18680   1323.9775     -5704.4528     -5441.7567     -8021.9159      45919.74       167.66795    
     18690   1341.1616     -5707.0748     -5440.9692     -7911.7837      45966.735      168.49901    
     18700   1363.2759     -5710.7593     -5440.2658     -7980.4319      46015.571      169.36598    
     18710   1374.6202     -5712.4453     -5439.701      -7928.451       46066.375      170.273      
     18720   1374.5172     -5712.022      -5439.2981     -7656.3635      46119.016      171.22102    
     18730   1367.8113     -5710.4436     -5439.0502     -7281.8457      46173.783      172.21578    
     18740   1356.844      -5708.1248     -5438.9075     -6957.8114      46231.401      173.26738    
     18750   1354.1196     -5707.5007     -5438.824      -6887.4596      46292.536      174.38379    
     18760   1365.7314     -5709.7507     -5438.7701     -7116.8084      46356.878      175.5569     
     18770   1375.3383     -5711.6506     -5438.7638     -7545.7325      46423.306      176.76556    
     18780   1373.7165     -5711.3866     -5438.8216     -7907.2945      46490.631      177.98679    
     18790   1362.7927     -5709.3278     -5438.9302     -8066.1121      46557.95       179.2016     
     18800   1357.4368     -5708.3928     -5439.0579     -8229.4168      46624.709      180.39731    
     18810   1356.8114     -5708.3767     -5439.1659     -8435.2756      46689.641      181.5526     
     18820   1352.8425     -5707.6765     -5439.2532     -8722.9691      46751.438      182.64777    
     18830   1351.492      -5707.4623     -5439.3069     -8987.9078      46809.163      183.67021    
     18840   1352.3679     -5707.6501     -5439.321      -9345.6155      46861.908      184.60927    
     18850   1347.9497     -5706.7577     -5439.3052     -9598.4501      46909.159      185.46364    
     18860   1336.5694     -5704.4377     -5439.2432     -9649.8646      46951.07       186.2424     
     18870   1326.2843     -5702.25       -5439.0962     -9637.0374      46988.027      186.95437    
     18880   1319.4452     -5700.6134     -5438.8166     -9536.2236      47019.737      187.59241    
     18890   1310.5199     -5698.4019     -5438.3759     -9391.1056      47045.649      188.14221    
     18900   1304.8345     -5696.64       -5437.7422     -9343.5334      47065.924      188.59999    
     18910   1315.6341     -5697.9247     -5436.884      -9436.6576      47081.152      188.97053    
     18920   1336.6973     -5701.0309     -5435.811      -9503.3271      47091.518      189.25503    
     18930   1345.2762     -5701.4993     -5434.5772     -9496.584       47096.935      189.45223    
     18940   1337.1583     -5698.5575     -5433.2461     -9261.1689      47097.156      189.55736    
     18950   1334.2545     -5696.5796     -5431.8444     -9066.7793      47092.503      189.57289    
     18960   1349.6994     -5698.2019     -5430.4022     -9145.6048      47083.687      189.50703    
     18970   1358.6999     -5698.5963     -5429.0108     -9133.8369      47071.303      189.36929    
     18980   1349.7938     -5695.582      -5427.7636     -8921.0196      47055.964      189.17391    
     18990   1337.4149     -5692.0397     -5426.6774     -8605.3131      47038.444      188.94052    
     19000   1331.4156     -5689.8926     -5425.7207     -8351.0256      47019.564      188.68826    
     19010   1332.9407     -5689.3323     -5424.8578     -8243.7705      46999.927      188.42956    
     19020   1337.4963     -5689.4399     -5424.0615     -8145.461       46980.089      188.17314    
     19030   1346.2192     -5690.4261     -5423.317      -8044.9513      46960.654      187.92789    
     19040   1346.8027     -5689.8307     -5422.6057     -7856.7865      46942.413      187.70557    
     19050   1335.1334     -5686.8091     -5421.8995     -7731.4761      46926.126      187.51698    
     19060   1333.5331     -5685.7361     -5421.144      -7713.1102      46912.234      187.36892    
     19070   1354.992      -5689.166      -5420.3162     -8008.273       46900.446      187.25866    
     19080   1380.4229     -5693.3481     -5419.4525     -8471.3103      46889.444      187.16671    
     19090   1397.2707     -5695.8538     -5418.6152     -8866.5891      46877.62       187.06496    
     19100   1403.7031     -5696.3694     -5417.8546     -9107.0355      46864.054      186.93266    
     19110   1395.6444     -5694.0901     -5417.1742     -9044.3765      46849.019      186.77115    
     19120   1389.5758     -5692.2422     -5416.5304     -9059.9148      46834.053      186.60754    
     19130   1395.6862     -5692.8219     -5415.8978     -9067.8635      46820.728      186.46873    
     19140   1397.9532     -5692.6472     -5415.2733     -9128.8563      46809.868      186.36632    
     19150   1392.9787     -5691.0557     -5414.6687     -9146.7555      46801.422      186.29816    
     19160   1382.4611     -5688.3516     -5414.0515     -9073.1102      46795.437      186.26642    
     19170   1376.0548     -5686.4209     -5413.3919     -9011.757       46791.834      186.27356    
     19180   1376.3844     -5685.7533     -5412.6589     -9022.1233      46789.602      186.30636    
     19190   1380.0619     -5685.6643     -5411.8403     -9074.1845      46787.02       186.33879    
     19200   1392.3264     -5687.205      -5410.9475     -9043.725       46782.675      186.34611    
     19210   1411.4713     -5690.0848     -5410.0287     -8961.855       46775.903      186.31212    
     19220   1420.1112     -5690.9011     -5409.1307     -8720.086       46766.938      186.23667    
     19230   1413.8146     -5688.8108     -5408.2897     -8359.0209      46756.735      186.13376    
     19240   1400.423      -5685.3538     -5407.4898     -8012.6139      46746.587      186.02447    
     19250   1397.0715     -5683.8831     -5406.6841     -7899.5134      46737.991      185.93421    
     19260   1408.3161     -5685.2834     -5405.8534     -7917.8685      46732.393      185.88931    
     19270   1414.9012     -5685.761      -5405.0243     -7904.9544      46730.173      185.90221    
     19280   1412.2576     -5684.4331     -5404.221      -7716.6298      46730.803      185.97055    
     19290   1408.1405     -5682.8254     -5403.4302     -7497.4122      46733.272      186.0769     
     19300   1408.7369     -5682.1567     -5402.6432     -7345.2973      46737.016      186.20542    
     19310   1408.7437     -5681.3591     -5401.8442     -7163.7626      46742.343      186.35636    
     19320   1411.4019     -5681.0815     -5401.0392     -7143.2213      46750.112      186.54255    
     19330   1415.7116     -5681.1299     -5400.2324     -7268.8227      46760.867      186.77627    
     19340   1422.8993     -5681.7579     -5399.4343     -7521.7054      46774.397      187.05964    
     19350   1428.9579     -5682.1827     -5398.657      -7792.6649      46789.778      187.38379    
     19360   1437.33       -5683.1147     -5397.9279     -7881.9619      46806.05       187.73712    
     19370   1442.9042     -5683.5637     -5397.2709     -7840.8719      46823.369      188.12312    
     19380   1433.9376     -5681.2104     -5396.6967     -7675.1472      46843.542      188.56843    
     19390   1421.9042     -5678.3053     -5396.1791     -7531.2234      46868.244      189.09607    
     19400   1421.1307     -5677.6384     -5395.6658     -7601.321       46897.444      189.70198    
     19410   1436.6431     -5680.1836     -5395.133      -7907.1886      46929.735      190.36243    
     19420   1449.9039     -5682.2988     -5394.6171     -8210.9346      46963.319      191.05059    
     19430   1451.4526     -5682.1545     -5394.1656     -8292.1873      46997.214      191.75175    
     19440   1445.5272     -5680.5989     -5393.7856     -8119.3112      47031.209      192.45877    
     19450   1441.7606     -5679.5266     -5393.4607     -8032.7737      47065.58       193.17146    
     19460   1441.6325     -5679.2062     -5393.1656     -7915.7624      47100.877      193.89621    
     19470   1439.7875     -5678.5697     -5392.8952     -7748.75        47138.285      194.65136    
     19480   1439.3872     -5678.2346     -5392.6396     -7705.0123      47179.25       195.46168    
     19490   1443.6246     -5678.8191     -5392.3833     -7700.7663      47224.278      196.33939    
     19500   1440.3073     -5677.897      -5392.1194     -7680.6591      47273.15       197.28689    
     19510   1431.7967     -5675.929      -5391.84       -7470.3331      47325.814      198.30698    
     19520   1430.8833     -5675.4166     -5391.5089     -7264.4099      47382.763      199.41057    
     19530   1436.835      -5676.1849     -5391.0963     -7174.6298      47444.335      200.60725    
     19540   1436.4547     -5675.6005     -5390.5873     -7038.2964      47510.72       201.90431    
     19550   1429.4236     -5673.5548     -5389.9367     -6945.2181      47581.776      203.3007     
     19560   1439.2689     -5674.6406     -5389.0691     -7139.8875      47656.65       204.77786    
     19570   1466.5777     -5678.9191     -5387.9291     -7555.3573      47733.462      206.29694    
     19580   1485.4434     -5681.2646     -5386.5314     -7982.7887      47809.676      207.80955    
     19590   1488.7118     -5680.3381     -5384.9564     -8356.712       47883.153      209.27831    
     19600   1485.5015     -5678.0065     -5383.2617     -8618.1943      47952.325      210.67838    
     19610   1488.4915     -5676.835      -5381.4969     -8861.6266      48016.447      211.99683    
     19620   1489.9205     -5675.3459     -5379.7244     -9100.7214      48075.306      213.22778    
     19630   1486.4457     -5672.9506     -5378.0185     -9183.7821      48128.683      214.36476    
     19640   1483.679      -5670.8104     -5376.4273     -9178.3661      48176.226      215.39707    
     19650   1486.6019     -5669.944      -5374.9809     -9320.1193      48217.678      216.31595    
     19660   1494.3693     -5670.2109     -5373.7067     -9402.431       48252.637      217.11412    
     19670   1502.6792     -5670.7914     -5372.6383     -9517.7017      48281.314      217.79873    
     19680   1501.5632     -5669.7257     -5371.7941     -9497.6718      48304.719      218.39126    
     19690   1502.4233     -5669.2683     -5371.166      -9460.2005      48324.457      218.92468    
     19700   1497.2371     -5667.802      -5370.7287     -9304.3111      48341.782      219.42078    
     19710   1478.6048     -5663.8041     -5370.4277     -8917.8023      48357.782      219.89098    
     19720   1479.6871     -5663.8066     -5370.2155     -8863.8054      48373.295      220.34223    
     19730   1477.4443     -5663.2009     -5370.0548     -8643.8073      48387.923      220.76802    
     19740   1468.0877     -5661.226      -5369.9363     -8295.2981      48401.945      221.17245    
     19750   1453.6141     -5658.2413     -5369.8235     -8049.0582      48416.031      221.56547    
     19760   1437.3944     -5654.8561     -5369.6564     -7862.4983      48430.625      221.95617    
     19770   1435.129      -5654.1383     -5369.3882     -7851.4725      48446.239      222.35842    
     19780   1445.4359     -5655.7998     -5369.0046     -7985.5536      48463.115      222.77901    
     19790   1454.6529     -5657.1489     -5368.525      -8170.0568      48481.472      223.22235    
     19800   1463.358      -5658.3314     -5367.9802     -8297.996       48501.467      223.69241    
     19810   1471.7628     -5659.4147     -5367.3959     -8321.263       48523.005      224.1906     
     19820   1480.2716     -5660.5012     -5366.7941     -8387.099       48545.624      224.71215    
     19830   1490.324      -5661.9016     -5366.2        -8613.6023      48568.661      225.24775    
     19840   1501.9695     -5663.6525     -5365.6402     -8761.0054      48591.521      225.7863     
     19850   1507.8155     -5664.3241     -5365.1519     -8865.9048      48613.942      226.31904    
     19860   1502.6858     -5662.9003     -5364.7459     -8853.9788      48635.833      226.84075    
     19870   1498.5855     -5661.7537     -5364.4128     -8954.2427      48657.4        227.35383    
     19880   1492.4086     -5660.2419     -5364.1267     -8787.9636      48679.411      227.87202    
     19890   1479.7273     -5657.4584     -5363.8593     -8565.7748      48703.276      228.42112    
     19900   1459.4318     -5653.1246     -5363.5525     -8239.7366      48729.903      229.02082    
     19910   1446.9782     -5650.2264     -5363.1252     -8042.7893      48759.842      229.68671    
     19920   1451.868      -5650.5773     -5362.5059     -8039.7957      48792.95       230.42021    
     19930   1457.7196     -5650.8673     -5361.6349     -7998.6192      48828.495      231.20214    
     19940   1459.396      -5650.0521     -5360.4871     -7909.0126      48866.371      232.01888    
     19950   1461.3734     -5648.9502     -5358.9928     -7743.1084      48906.772      232.86606    
     19960   1473.9118     -5649.5299     -5357.0847     -7628.6152      48949.98       233.75073    
     19970   1484.3449     -5649.2933     -5354.778      -7473.8187      48995.699      234.67817    
     19980   1494.9371     -5648.8359     -5352.219      -7446.8123      49043.443      235.64894    
     19990   1506.2308     -5648.5192     -5349.6614     -7453.3618      49092.875      236.65867    
     20000   1527.0618     -5650.3883     -5347.3974     -7615.4912      49143.908      237.70383    
Loop time of 5611.92 on 1 procs for 10000 steps with 1536 atoms

Performance: 0.077 ns/day, 311.773 hours/ns, 1.782 timesteps/s, 2.737 katom-step/s
98.1% CPU use with 1 MPI tasks x 1 OpenMP threads

MPI task timing breakdown:
Section |  min time  |  avg time  |  max time  |%varavg| %total
---------------------------------------------------------------
Pair    | 5398       | 5398       | 5398       |   0.0 | 96.19
Bond    | 0.039961   | 0.039961   | 0.039961   |   0.0 |  0.00
Neigh   | 3.1951     | 3.1951     | 3.1951     |   0.0 |  0.06
Comm    | 0.64898    | 0.64898    | 0.64898    |   0.0 |  0.01
Output  | 208.79     | 208.79     | 208.79     |   0.0 |  3.72
Modify  | 0.94414    | 0.94414    | 0.94414    |   0.0 |  0.02
Other   |            | 0.2732     |            |       |  0.00

Nlocal:           1536 ave        1536 max        1536 min
Histogram: 1 0 0 0 0 0 0 0 0 0
Nghost:           2941 ave        2941 max        2941 min
Histogram: 1 0 0 0 0 0 0 0 0 0
Neighs:              0 ave           0 max           0 min
Histogram: 1 0 0 0 0 0 0 0 0 0
FullNghs:        52228 ave       52228 max       52228 min
Histogram: 1 0 0 0 0 0 0 0 0 0

Total # of neighbors = 52228
Ave neighs/atom = 34.002604
Ave special neighs/atom = 0
Neighbor list builds = 987
Dangerous builds = 917
unfix           2

write_data      structure.ready.data
System init for write_data ...

write_restart   structure.ready
System init for write_restart ...
    
Total wall time: 3:48:30
