LAMMPS (29 Sep 2021 - Update 3)
OMP_NUM_THREADS environment is not set. Defaulting to 1 thread. (src/comm.cpp:98)
  using 1 OpenMP thread(s) per MPI task
units	metal
atom_style	full

read_data	mixed.data
Reading data file ...
  orthogonal box = (0.0000000 0.0000000 0.0000000) to (18.492711 18.368364 83.044081)
  2 by 1 by 8 MPI processor grid
  reading atoms ...
  864 atoms
Finding 1-2 1-3 1-4 neighbors ...
  special bond factors lj:    0        0        0       
  special bond factors coul:  0        0        0       
     0 = max # of 1-2 neighbors
     0 = max # of 1-3 neighbors
     0 = max # of 1-4 neighbors
     1 = max # of special neighbors
  special bonds CPU = 0.001 seconds
  read_data CPU = 0.023 seconds

pair_style	quip
pair_coeff	* * /ocean/projects/cts180021p/wuziqi/clease/mint-PD/PhaseDiagram-Clease/Liquid/GAP_potential/gap_LiKCl.xml "Potential xml_label=GAP_2021_9_27_0_1_17_37_618" 17 19 3

neighbor	0.3 bin
neigh_modify	delay 10

timestep	0.001
compute	msd all msd
thermo_style	custom step temp pe etotal press vol c_msd[4]
thermo	10
dump	1 all custom 10 xyz-mix.dump type id x y z
dump	2 all custom 10 force-mix.dump type id fx fy fz

fix     1 all nve
run     2000
Neighbor list info ...
  update every 1 steps, delay 10 steps, check yes
  max neighbors/atom: 2000, page size: 100000
  master list distance cutoff = 6.22
  ghost atom cutoff = 6.22
  binsize = 3.11, bins = 6 6 27
  1 neighbor lists, perpetual/occasional/extra = 1 0 0
  (1) pair quip, perpetual
      attributes: full, newton on
      pair build: full/bin
      stencil: full/bin/3d
      bin: standard
Per MPI rank memory allocation (min/avg/max) = 8.888 | 8.895 | 8.900 Mbytes
Step Temp PotEng TotEng Press Volume c_msd[4] 
       0            0   -7973.6696   -7973.6696   -2874.2394    28208.484            0 
      10    41.278351   -7978.2784   -7973.6737   -2959.4518    28208.484 0.00023887099 
      20    117.01377   -7986.7312   -7973.6782   -2971.9336    28208.484 0.0029537371 
      30    174.81925   -7993.1785   -7973.6771   -2824.2466    28208.484  0.010160551 
      40    218.44962    -7998.045   -7973.6766   -2720.6333    28208.484  0.020641735 
      50    256.00476   -8002.2349   -7973.6771   -2700.3711    28208.484  0.032489043 
      60    281.23595   -8005.0509   -7973.6786   -2720.3164    28208.484  0.045481137 
      70    279.84796   -8004.8936   -7973.6762   -2497.2427    28208.484  0.060875411 
      80    275.57271   -8004.4166   -7973.6761   -2346.6282    28208.484  0.078472831 
      90    275.14134   -8004.3684    -7973.676   -2375.5075    28208.484  0.097756432 
     100    277.97329   -8004.6843   -7973.6759   -2450.2098    28208.484   0.11838341 
     110    284.32121   -8005.3929   -7973.6764   -2585.3887    28208.484    0.1397563 
     120    288.42818   -8005.8514   -7973.6768   -2555.7238    28208.484   0.16133553 
     130    287.27066   -8005.7216   -7973.6761   -2379.8786    28208.484   0.18293983 
     140    286.58177   -8005.6454   -7973.6767   -2199.4073    28208.484   0.20440576 
     150    283.09159    -8005.256   -7973.6767   -2058.8623    28208.484   0.22545748 
     160    281.87093     -8005.12   -7973.6769   -2002.9487    28208.484   0.24504756 
     170    281.00839    -8005.024   -7973.6771   -2057.3307    28208.484   0.26222423 
     180    282.68046     -8005.21   -7973.6765   -2118.7926    28208.484   0.27648184 
     190    291.53832   -8006.1995   -7973.6779   -2237.0667    28208.484   0.28923786 
     200    293.64302   -8006.4325   -7973.6762   -2373.3356    28208.484   0.30372277 
     210    298.64228   -8006.9936   -7973.6796   -2435.1957    28208.484   0.32052492 
     220    292.65421   -8006.3221   -7973.6761   -2273.8456    28208.484   0.33666335 
     230    296.18967   -8006.7198   -7973.6794   -2277.4624    28208.484   0.34931106 
     240    282.07352   -8005.1401   -7973.6743   -2198.7147    28208.484   0.36070053 
     250    293.47873    -8006.417    -7973.679   -2346.9356    28208.484   0.37209929 
     260    294.86866   -8006.5718   -7973.6788   -2406.0825    28208.484   0.38456478 
     270    292.66954   -8006.3399   -7973.6921   -2371.6679    28208.484   0.39632792 
     280    288.22645   -8005.8424   -7973.6903   -2343.9303    28208.484   0.40740341 
     290    280.03766   -8004.9272   -7973.6886   -2399.6918    28208.484   0.41930862 
     300    280.42672   -8004.9707   -7973.6886   -2493.7264    28208.484   0.43203295 
     310    287.66524   -8005.7795     -7973.69   -2540.7382    28208.484   0.44617059 
     320    287.59248   -8005.7709   -7973.6895   -2479.6365    28208.484   0.46153129 
     330    287.30367   -8005.7384   -7973.6892   -2430.7941    28208.484   0.47558463 
     340      291.107   -8006.1632   -7973.6897   -2433.3574    28208.484   0.48761679 
     350    290.07985   -8006.0486   -7973.6898   -2407.8749    28208.484   0.49931209 
     360    283.46216   -8005.3096    -7973.689    -2324.857    28208.484   0.51138392 
     370    283.31611   -8005.2933    -7973.689   -2223.9029    28208.484   0.52363749 
     380    293.81781   -8006.4657   -7973.6899   -2201.7975    28208.484   0.53571675 
     390    300.79692   -8007.2454   -7973.6911   -2203.1603    28208.484   0.54763687 
     400    296.63974     -8006.78   -7973.6894   -2207.2978    28208.484   0.55946952 
     410     295.9675   -8006.7055   -7973.6899    -2389.454    28208.484   0.57119336 
     420    296.34311   -8006.7466   -7973.6891   -2528.2941    28208.484   0.58115249 
     430    302.08464   -8007.3879   -7973.6899   -2546.6384    28208.484   0.58802692 
     440    300.89773   -8007.2566    -7973.691   -2408.1467    28208.484   0.59313659 
     450    295.75798   -8006.6815   -7973.6893   -2201.4544    28208.484   0.59704421 
     460    298.71554   -8007.0127   -7973.6905   -2097.6901    28208.484   0.60034051 
     470    293.57038   -8006.4367   -7973.6885   -1853.8963    28208.484   0.60455383 
     480    299.68957   -8007.1205   -7973.6897   -1687.1392    28208.484   0.60898733 
     490    304.28303    -8007.634   -7973.6908   -1569.5251    28208.484   0.61372446 
     500    297.76534   -8006.9049   -7973.6887   -1520.9163    28208.484   0.61909997 
     510     298.0343    -8006.936   -7973.6898   -1578.3555    28208.484     0.624484 
     520    298.51386   -8006.9892   -7973.6895   -1617.2528    28208.484   0.63055005 
     530    299.67651    -8007.119   -7973.6896   -1583.6011    28208.484   0.63765456 
     540    301.93935   -8007.3714   -7973.6896    -1486.536    28208.484   0.64551302 
     550    304.04909   -8007.6074   -7973.6903   -1392.2763    28208.484    0.6536082 
     560    304.32541   -8007.6381   -7973.6901   -1287.1967    28208.484   0.66116979 
     570    303.65289   -8007.5627   -7973.6898   -1155.3607    28208.484   0.66831766 
     580    306.61685   -8007.8931   -7973.6895   -1197.3354    28208.484   0.67540713 
     590    314.13334   -8008.7329   -7973.6909   -1349.2051    28208.484   0.68183493 
     600    314.58012   -8008.7816   -7973.6897   -1383.1623    28208.484   0.68848067 
     610    313.36382   -8008.6461   -7973.6899   -1339.6031    28208.484   0.69624527 
     620     312.9428   -8008.5985   -7973.6893   -1300.0364    28208.484   0.70606469 
     630    317.72028    -8009.132   -7973.6899   -1341.7477    28208.484   0.71807814 
     640    322.57063   -8009.6733   -7973.6901   -1410.5145    28208.484   0.73069429 
     650    323.60168   -8009.7886   -7973.6903   -1540.2113    28208.484   0.74223138 
     660    318.39172   -8009.2068   -7973.6897   -1568.6259    28208.484   0.75263353 
     670    316.27474   -8008.9702   -7973.6892   -1586.0839    28208.484    0.7619451 
     680    320.95534   -8009.4935   -7973.6904   -1558.4885    28208.484   0.77150239 
     690    319.85933   -8009.3708     -7973.69    -1459.468    28208.484   0.78296875 
     700    315.81982   -8008.9199   -7973.6897   -1330.2989    28208.484   0.79605918 
     710    316.18394   -8008.9601   -7973.6893   -1285.6029    28208.484   0.80930055 
     720    321.99795   -8009.6098   -7973.6904   -1374.2337    28208.484   0.82124899 
     730    320.60154   -8009.4538   -7973.6902   -1440.5044    28208.484   0.83277534 
     740    316.58517   -8009.0043   -7973.6888   -1452.0725    28208.484    0.8439361 
     750    321.27163   -8009.5293    -7973.691   -1655.1798    28208.484     0.854338 
     760    314.38368   -8008.7598   -7973.6899   -1838.5562    28208.484   0.86584884 
     770     305.9368   -8007.8166   -7973.6889   -1999.9526    28208.484   0.87941766 
     780    305.71483   -8007.7927   -7973.6897   -2140.7584    28208.484   0.89394007 
     790    305.84031   -8007.8065   -7973.6896   -2209.2571    28208.484   0.90782838 
     800    306.48205   -8007.8784   -7973.6899   -2275.1918    28208.484   0.92026204 
     810    304.33355   -8007.6388   -7973.6899   -2343.4421    28208.484   0.93178116 
     820    297.82924   -8006.9125   -7973.6892   -2314.2529    28208.484    0.9431626 
     830    296.11711   -8006.7216   -7973.6893   -2340.1192    28208.484   0.95457823 
     840    299.50491   -8007.0998   -7973.6896   -2406.4366    28208.484   0.96506277 
     850    304.52466   -8007.6597   -7973.6895   -2460.7845    28208.484   0.97329313 
     860     310.8399   -8008.3649   -7973.6902   -2449.0401    28208.484   0.97916609 
     870    310.67413   -8008.3459   -7973.6897   -2327.6881    28208.484   0.98350092 
     880    309.42712   -8008.2065   -7973.6894   -2225.4629    28208.484   0.98651824 
     890    311.26126   -8008.4116   -7973.6899    -2248.854    28208.484   0.98981853 
     900    313.26109   -8008.6341   -7973.6893   -2271.1415    28208.484     0.995508 
     910    320.18937   -8009.4082   -7973.6906   -2399.0494    28208.484    1.0049166 
     920    319.06768   -8009.2826   -7973.6901    -2517.896    28208.484    1.0179539 
     930    311.48412   -8008.4358   -7973.6893   -2630.8665    28208.484    1.0322955 
     940    307.33364   -8007.9728   -7973.6893   -2692.4224    28208.484    1.0452919 
     950    306.79072   -8007.9125   -7973.6895   -2690.0291    28208.484    1.0559933 
     960    307.40028   -8007.9805   -7973.6895    -2685.778    28208.484    1.0648912 
     970    308.12458   -8008.0613   -7973.6895   -2650.3957    28208.484    1.0729687 
     980    308.40186   -8008.0924   -7973.6897   -2580.8757    28208.484    1.0808973 
     990    307.35297   -8007.9752   -7973.6895    -2481.356    28208.484    1.0887898 
    1000    307.21435     -8007.96   -7973.6898   -2353.6684    28208.484    1.0961224 
    1010    306.76152   -8007.9091   -7973.6894   -2248.7956    28208.484    1.1027335 
    1020    309.26646    -8008.189   -7973.6898   -2286.0041    28208.484    1.1099454 
    1030    310.25342   -8008.2989   -7973.6897   -2305.1256    28208.484    1.1183111 
    1040    307.62812   -8008.0062   -7973.6898    -2294.831    28208.484    1.1271276 
    1050    300.85261   -8007.2498   -7973.6892   -2274.7356    28208.484    1.1353455 
    1060    298.03491   -8006.9356   -7973.6894   -2274.0022    28208.484    1.1412949 
    1070     298.1827   -8006.9525   -7973.6898   -2240.2755    28208.484    1.1449307 
    1080    298.32389   -8006.9674   -7973.6889   -2186.0158    28208.484    1.1478628 
    1090    304.12167   -8007.6156   -7973.6903   -2224.5843    28208.484    1.1507358 
    1100    303.21342   -8007.5135   -7973.6896   -2273.1413    28208.484    1.1542182 
    1110    302.55349   -8007.4391   -7973.6888   -2350.8777    28208.484    1.1583885 
    1120    311.89752   -8008.4827   -7973.6901   -2437.4889    28208.484     1.162828 
    1130    317.78566     -8009.14   -7973.6905   -2446.8483    28208.484     1.167408 
    1140    311.56568   -8008.4454   -7973.6898   -2410.0182    28208.484    1.1717043 
    1150    303.07264   -8007.4971   -7973.6889   -2380.3816    28208.484    1.1751291 
    1160    303.70308   -8007.5677   -7973.6892    -2470.872    28208.484    1.1775178 
    1170    310.51899   -8008.3284   -7973.6895   -2617.7569    28208.484    1.1788381 
    1180    316.91994   -8009.0426   -7973.6898   -2682.3818    28208.484    1.1790698 
    1190    320.34041   -8009.4241   -7973.6896   -2666.8258    28208.484    1.1789053 
    1200    321.06279   -8009.5055   -7973.6905   -2603.0061    28208.484    1.1796194 
    1210    314.26027   -8008.7456   -7973.6894   -2485.4053    28208.484    1.1821764 
    1220    309.32884    -8008.196   -7973.6899    -2464.998    28208.484    1.1865082 
    1230    306.19371   -8007.8458   -7973.6895   -2530.8384    28208.484    1.1911967 
    1240    306.63151   -8007.8948   -7973.6896   -2616.4378    28208.484    1.1944331 
    1250    309.06475   -8008.1663   -7973.6897   -2607.8093    28208.484    1.1957913 
    1260    312.48643   -8008.5482   -7973.6898    -2462.899    28208.484    1.1957707 
    1270    312.94072   -8008.5995   -7973.6905   -2234.5909    28208.484    1.1949586 
    1280    309.44145   -8008.2076   -7973.6889   -2027.1289    28208.484    1.1941489 
    1290    314.87458   -8008.8149   -7973.6902   -1974.2087    28208.484    1.1943163 
    1300    319.36818   -8009.3159   -7973.6899   -1982.4404    28208.484     1.195877 
    1310    321.84143   -8009.5922   -7973.6903   -1943.5386    28208.484    1.1987306 
    1320    321.73486     -8009.58     -7973.69    -1845.706    28208.484    1.2036004 
    1330    320.53672   -8009.4466   -7973.6902   -1700.8294    28208.484    1.2106875 
    1340    314.45984   -8008.7682   -7973.6898   -1509.1942    28208.484    1.2186301 
    1350    308.88407   -8008.1459   -7973.6894   -1443.5528    28208.484    1.2257175 
    1360    308.85021   -8008.1421   -7973.6894   -1546.3935    28208.484    1.2310073 
    1370    314.64585   -8008.7893   -7973.6901   -1721.3694    28208.484     1.234708 
    1380    316.29012   -8008.9734   -7973.6908   -1817.9195    28208.484    1.2377498 
    1390    307.32275   -8007.9718   -7973.6895   -1803.5548    28208.484    1.2409119 
    1400    301.76471   -8007.3515   -7973.6892   -1859.1426    28208.484    1.2443267 
    1410    303.86241   -8007.5861   -7973.6897   -1936.9087    28208.484    1.2481193 
    1420    306.88628   -8007.9231   -7973.6894   -1917.1497    28208.484    1.2526965 
    1430    311.21927   -8008.4068   -7973.6898   -1887.7633    28208.484    1.2583105 
    1440    313.42496   -8008.6528   -7973.6898   -1851.4527    28208.484    1.2642026 
    1450     313.3569   -8008.6451   -7973.6897   -1798.7574    28208.484     1.269636 
    1460    313.21275   -8008.6295   -7973.6901   -1825.1156    28208.484    1.2754342 
    1470    309.64761   -8008.2313   -7973.6896   -1804.0626    28208.484    1.2823313 
    1480    309.40126   -8008.2029   -7973.6887   -1783.0935    28208.484    1.2890305 
    1490    320.42565   -8009.4341   -7973.6901   -1893.3186    28208.484    1.2938055 
    1500    328.10175   -8010.2905   -7973.6903   -1974.4184    28208.484    1.2976917 
    1510    327.81197   -8010.2577   -7973.6898    -1937.058    28208.484    1.3022885 
    1520     324.2243   -8009.8576   -7973.6899   -1828.5619    28208.484    1.3070588 
    1530    318.99753   -8009.2739   -7973.6893   -1744.3097    28208.484    1.3111416 
    1540    315.99968   -8008.9401   -7973.6899   -1679.5222    28208.484    1.3147163 
    1550    311.82694   -8008.4737   -7973.6889   -1676.3191    28208.484     1.318865 
    1560    315.99733   -8008.9396   -7973.6896   -1782.1266    28208.484    1.3245612 
    1570    321.70035   -8009.5765   -7973.6904   -1943.6277    28208.484    1.3315419 
    1580    318.91113   -8009.2648   -7973.6898   -1980.5418    28208.484     1.338424 
    1590    316.40503   -8008.9842   -7973.6888   -1871.1257    28208.484    1.3448929 
    1600    323.69059   -8009.7984   -7973.6903   -1863.2593    28208.484    1.3517889 
    1610    324.55521    -8009.895   -7973.6903   -1926.3043    28208.484    1.3589892 
    1620    317.22283   -8009.0757    -7973.689    -2033.451    28208.484    1.3640281 
    1630    315.56944   -8008.8917   -7973.6895   -2189.5743    28208.484    1.3650114 
    1640          316   -8008.9396   -7973.6894   -2246.5115    28208.484     1.363698 
    1650     317.3618   -8009.0917   -7973.6895   -2167.3771    28208.484    1.3628757 
    1660    317.92845   -8009.1553   -7973.6899   -2101.0814    28208.484    1.3639966 
    1670    314.61233   -8008.7852   -7973.6897   -2010.9785    28208.484    1.3669961 
    1680    312.18324   -8008.5133   -7973.6888   -2055.2147    28208.484     1.371293 
    1690    317.45918   -8009.1028   -7973.6897    -2191.224    28208.484    1.3761955 
    1700    321.08797   -8009.5076   -7973.6898   -2266.1824    28208.484    1.3813209 
    1710    322.36089   -8009.6492   -7973.6893   -2262.0514    28208.484    1.3861808 
    1720    325.18317   -8009.9643   -7973.6896   -2258.3202    28208.484    1.3904451 
    1730    326.15411   -8010.0728   -7973.6898    -2317.316    28208.484     1.394947 
    1740     323.8725   -8009.8181   -7973.6896   -2287.8062    28208.484    1.4007384 
    1750    320.41839   -8009.4325   -7973.6894   -2200.4994    28208.484    1.4075406 
    1760     319.2517   -8009.3028   -7973.6898   -2148.7833    28208.484     1.414045 
    1770    317.70647   -8009.1306     -7973.69    -2060.265    28208.484    1.4199919 
    1780    313.91842   -8008.7076   -7973.6895   -1900.1987    28208.484    1.4259827 
    1790    313.00692   -8008.6058   -7973.6894   -1752.6987    28208.484    1.4322179 
    1800     316.3606   -8008.9805     -7973.69   -1656.4741    28208.484    1.4376798 
    1810    317.06323    -8009.059   -7973.6901   -1611.9912    28208.484    1.4414287 
    1820    314.75826    -8008.801   -7973.6892    -1594.078    28208.484    1.4434919 
    1830    319.39788   -8009.3191   -7973.6898   -1580.2478    28208.484    1.4448335 
    1840    326.94741   -8010.1618   -7973.6903   -1586.0007    28208.484    1.4478206 
    1850     328.2751   -8010.3099   -7973.6903   -1510.9657    28208.484    1.4534245 
    1860    325.54844   -8010.0044    -7973.689   -1434.8489    28208.484    1.4597334 
    1870    330.22766   -8010.5276   -7973.6902   -1485.8246    28208.484    1.4649668 
    1880    331.47708   -8010.6665   -7973.6897   -1548.2944    28208.484    1.4702024 
    1890    330.21474   -8010.5256   -7973.6896   -1516.0861    28208.484    1.4764703 
    1900    331.58833   -8010.6782    -7973.689   -1442.8287    28208.484    1.4834549 
    1910    337.92691   -8011.3872    -7973.691   -1475.0881    28208.484    1.4904186 
    1920     332.3277   -8010.7614   -7973.6897   -1417.3686    28208.484    1.4973123 
    1930    326.40875   -8010.1005   -7973.6891    -1294.946    28208.484    1.5028962 
    1940    327.61985   -8010.2367   -7973.6902   -1344.4187    28208.484    1.5071937 
    1950    326.33555   -8010.0933   -7973.6901   -1454.2005    28208.484    1.5117741 
    1960    320.98412   -8009.4961   -7973.6898    -1539.947    28208.484    1.5179832 
    1970    316.38994    -8008.983   -7973.6892   -1494.5471    28208.484    1.5266599 
    1980    318.66568   -8009.2379   -7973.6903    -1430.619    28208.484     1.537506 
    1990    319.09324   -8009.2848   -7973.6895   -1383.3475    28208.484     1.548395 
    2000    324.20331   -8009.8559   -7973.6905   -1553.3118    28208.484     1.556546 
Loop time of 1551.07 on 16 procs for 2000 steps with 864 atoms

Performance: 0.111 ns/day, 215.426 hours/ns, 1.289 timesteps/s
98.3% CPU use with 16 MPI tasks x 1 OpenMP threads

MPI task timing breakdown:
Section |  min time  |  avg time  |  max time  |%varavg| %total
---------------------------------------------------------------
Pair    | 1167.4     | 1396.4     | 1531.1     | 285.5 | 90.03
Bond    | 0.00019097 | 0.0007249  | 0.0016346  |   0.0 |  0.00
Neigh   | 0.020515   | 0.024317   | 0.028862   |   1.7 |  0.00
Comm    | 19.728     | 150.2      | 382.34     | 858.7 |  9.68
Output  | 0.16945    | 4.3253     | 12.578     | 197.3 |  0.28
Modify  | 0.010117   | 0.011662   | 0.01601    |   1.2 |  0.00
Other   |            | 0.07386    |            |       |  0.00

Nlocal:        54.0000 ave          63 max          48 min
Histogram: 5 0 1 2 2 1 1 2 0 2
Nghost:        409.688 ave         449 max         386 min
Histogram: 3 3 1 3 2 1 1 0 0 2
Neighs:         0.00000 ave           0 max           0 min
Histogram: 16 0 0 0 0 0 0 0 0 0
FullNghs:      1604.62 ave        2106 max        1301 min
Histogram: 5 0 2 2 2 0 2 1 1 1

Total # of neighbors = 25674
Ave neighs/atom = 29.715278
Ave special neighs/atom = 0.0000000
Neighbor list builds = 199
Dangerous builds = 198
unfix   1

velocity    all create 1200.0 1312343 dist gaussian
fix     2 all npt temp 1200.0 1200.0 $(100.0*dt) aniso 0.0 1.01325 $(1000.0*dt)
fix     2 all npt temp 1200.0 1200.0 0.10000000000000000555 aniso 0.0 1.01325 $(1000.0*dt)
fix     2 all npt temp 1200.0 1200.0 0.10000000000000000555 aniso 0.0 1.01325 1
run     3000
Per MPI rank memory allocation (min/avg/max) = 8.893 | 8.897 | 8.900 Mbytes
Step Temp PotEng TotEng Press Volume c_msd[4] 
    2000         1200   -8009.8559   -7875.9941    2145.9756    28208.484     1.556546 
    2010     1111.376   -7999.9444   -7875.9687    2634.5799    28210.358    1.5636262 
    2020    969.85137   -7983.9709   -7875.7825    3371.6352    28216.662    1.5797072 
    2030     867.8554   -7972.0617   -7875.2511    3935.3317    28228.581    1.5985028 
    2040    797.33509   -7963.2275   -7874.2836    4248.5931    28247.057    1.6204608 
    2050    761.90756   -7957.9147   -7872.9228     4169.604    28272.629    1.6475158 
    2060    757.29777   -7955.8513   -7871.3735    3623.9477    28305.176    1.6798496 
    2070    757.55362   -7954.4228   -7869.9166    2827.1573    28343.856    1.7161513 
    2080    771.95847   -7954.7017   -7868.5886    1840.5261    28387.346     1.754343 
    2090    763.82085   -7952.4515   -7867.2462    1322.3227    28434.111    1.7944866 
    2100    749.08915   -7949.3659   -7865.8039    1166.7101    28483.247    1.8363439 
    2110    735.27478   -7946.2327   -7864.2117    1308.0121    28534.474    1.8774117 
    2120    740.07104    -7945.048    -7862.492    1408.4404    28587.947    1.9147166 
    2130    750.84157   -7944.4217   -7860.6642    1410.5424     28643.81    1.9481179 
    2140    762.05264    -7943.784   -7858.7759    1268.0108    28702.027    1.9775609 
    2150    792.22049   -7945.1786   -7856.8052    786.86558     28762.26    2.0035608 
    2160    807.49354    -7944.819   -7854.7419    338.59944    28823.688    2.0306163 
    2170    823.91676   -7944.5239   -7852.6148   -106.93977    28885.454     2.062163 
    2180     844.8045   -7944.6566   -7850.4174    -369.2984    28946.759     2.098618 
    2190    848.31452   -7942.8044   -7848.1736   -451.93038    29007.063    2.1385451 
    2200    843.06312    -7939.966    -7845.921   -546.88086    29066.124    2.1782325 
    2210    855.95616    -7939.114   -7843.6308    -708.4201    29123.711    2.2143549 
    2220    855.76299   -7936.7567   -7841.2951   -603.66888    29179.551    2.2468239 
    2230    848.28264   -7933.5905   -7838.9633   -408.34787    29233.764    2.2759453 
    2240    854.89255   -7931.9799   -7836.6153   -540.80922    29286.582    2.3022576 
    2250    867.80867   -7931.0249   -7834.2196   -569.51504    29337.822    2.3287727 
    2260    874.09709   -7929.3072   -7831.8004   -412.93144    29387.427    2.3580823 
    2270    895.29854   -7929.2258   -7829.3539   -582.80205    29435.564    2.3907978 
    2280    915.57588   -7928.9882   -7826.8543   -795.61379    29481.981    2.4280767 
    2290     926.2907   -7927.6683   -7824.3392   -795.17063    29526.339    2.4703251 
    2300    934.55695   -7926.0774   -7821.8262   -604.52269    29568.628    2.5163937 
    2310    946.01392   -7924.8455   -7819.3162   -231.84088    29609.208    2.5641877 
    2320    940.68785   -7921.7536   -7816.8185    313.42228     29648.78    2.6125423 
    2330    966.07154   -7922.0984   -7814.3316    332.85194    29688.218    2.6592827 
    2340     1010.947   -7924.5341   -7811.7614   -44.912917    29727.564    2.7044763 
    2350    1022.1457   -7923.2152   -7809.1933   -138.94041    29766.241    2.7502321 
    2360     1037.537   -7922.4014   -7806.6626   -331.33056        29804    2.7972425 
    2370    1041.7624   -7920.3745   -7804.1644   -424.69553    29840.539    2.8489228 
    2380    1031.7582    -7916.805   -7801.7108   -283.16219    29875.725    2.9062803 
    2390    1042.3843   -7915.5633   -7799.2838   -294.19598    29909.771    2.9664468 
    2400    1061.1242   -7915.2056   -7796.8356   -506.90813     29942.65     3.028228 
    2410    1065.4459   -7913.2489   -7794.3968   -580.63493    29974.055    3.0931681 
    2420    1076.7702   -7912.1031   -7791.9878   -649.58562    30003.851    3.1600125 
    2430    1088.7613   -7911.0476   -7789.5946   -572.70865    30031.955    3.2255868 
    2440    1104.1628   -7910.4023   -7787.2312   -552.78896      30058.5    3.2841814 
    2450    1129.9041   -7910.9295    -7784.887   -603.77792    30083.545    3.3347828 
    2460    1125.5694   -7908.1575   -7782.5986    -425.4832     30107.07    3.3843164 
    2470    1099.3492   -7903.0377   -7780.4036    18.142643    30129.446    3.4355128 
    2480    1081.9686   -7898.9472    -7778.252    425.08964     30151.46    3.4879161 
    2490    1084.7688   -7897.0972   -7776.0896    678.91496    30173.893    3.5430283 
    2500    1096.2199   -7896.1704   -7773.8854    597.54897    30197.195    3.6031535 
    2510    1107.0973   -7895.1661   -7771.6677    270.17551    30221.208    3.6695091 
    2520    1115.0955   -7893.8346    -7769.444   -145.58541    30245.339    3.7392572 
    2530    1139.4211    -7894.333   -7767.2288   -524.20096    30268.799    3.8078782 
    2540    1153.9362   -7893.7593    -7765.036   -427.53001    30290.978    3.8742022 
    2550    1163.4566   -7892.6946   -7762.9093    -117.0009    30312.025    3.9400575 
    2560    1167.4899   -7891.0977   -7760.8625    156.18684    30332.531    4.0046459 
    2570    1187.5599   -7891.3573   -7758.8832    180.62215    30352.986    4.0660025 
    2580    1178.8577   -7888.4819   -7756.9786    202.14724     30373.49    4.1251371 
    2590    1191.3635   -7888.0589   -7755.1605   -4.4719839    30394.031    4.1823242 
    2600    1208.6706   -7888.2213   -7753.3923   -185.48585    30414.277    4.2391453 
    2610    1205.5575   -7886.1968   -7751.7151   -240.85367    30433.895    4.2973797 
    2620    1209.0678   -7885.0072   -7750.1339   -213.82461    30452.797    4.3575963 
    2630    1223.1961   -7885.0688   -7748.6195   -345.00792    30470.992    4.4194131 
    2640    1226.8587   -7884.0469    -7747.189   -470.67573    30488.271    4.4846341 
    2650    1211.8205   -7881.0406   -7745.8602   -491.93626    30504.434    4.5545075 
    2660    1208.8699    -7879.462   -7744.6107   -780.36302     30519.38    4.6254823 
    2670    1206.1145   -7877.9503   -7743.4064   -1146.4149    30532.609    4.6955817 
    2680    1197.7447   -7875.8582    -7742.248   -1176.2531    30543.501    4.7623507 
    2690    1196.0718   -7874.5359   -7741.1123   -939.70179    30552.005    4.8189428 
    2700    1233.5472   -7877.5985   -7739.9945   -603.41286    30558.598    4.8613774 
    2710      1245.09   -7877.8192   -7738.9276   -253.53119    30563.961    4.9001524 
    2720    1255.2798   -7878.0104    -7737.982   -301.07195    30568.697    4.9467391 
    2730    1248.1621   -7876.3949   -7737.1605   -546.68579    30572.776    5.0020668 
    2740    1242.0383   -7875.0161   -7736.4649   -1042.1865    30575.703    5.0591703 
    2750    1248.1383   -7875.1068   -7735.8751   -1322.8408    30576.615    5.1123339 
    2760    1237.4234   -7873.4255   -7735.3891   -915.55549    30575.065     5.161531 
    2770    1234.8502   -7872.7449   -7734.9955   -174.19758    30571.817    5.2084292 
    2780    1237.8089   -7872.7623   -7734.6828    448.80956    30568.251    5.2562285 
    2790    1222.0883   -7870.7732   -7734.4474    819.15284    30565.565    5.3040205 
    2800    1212.6997   -7869.5486   -7734.2701    718.95413     30564.42    5.3495493 
    2810    1195.6962   -7867.4924   -7734.1107     656.7618    30564.711    5.3918674 
    2820    1211.2795   -7869.0766   -7733.9566    318.55035    30566.229    5.4306887 
    2830    1218.6313   -7869.7564   -7733.8162   -228.33896    30568.314    5.4699535 
    2840    1195.0259   -7867.0113   -7733.7044   -473.00916    30570.004    5.5133972 
    2850    1195.7359   -7866.9812    -7733.595   -599.98527    30570.776    5.5595883 
    2860    1198.8069   -7867.2046   -7733.4759   -514.72077    30570.423    5.6051069 
    2870    1184.2201    -7865.444   -7733.3425   -343.88625    30569.118    5.6477483 
    2880    1196.3126   -7866.6505      -7733.2   -601.59735     30567.08    5.6842703 
    2890    1184.9587   -7865.2116   -7733.0277    -758.0881     30563.94     5.716925 
    2900    1210.5839    -7867.885   -7732.8426   -1139.8104    30559.312     5.747654 
    2910    1242.2884   -7871.2598   -7732.6807   -1329.2227    30552.546    5.7791176 
    2920    1250.5567   -7872.1111   -7732.6096   -1140.0955    30543.328    5.8134042 
    2930    1252.8715    -7872.417   -7732.6573    -681.0516    30532.032    5.8513676 
    2940    1239.6431   -7871.1054   -7732.8214   -216.93595    30519.507     5.895529 
    2950    1221.8259   -7869.3683   -7733.0717   -12.694406    30506.615    5.9455427 
    2960     1221.018   -7869.5844    -7733.378   -57.122411    30493.752    5.9978644 
    2970    1219.8264   -7869.8044   -7733.7309   -66.536537     30480.91    6.0480578 
    2980    1218.5622   -7870.0678   -7734.1354   -218.68209    30468.008    6.0918361 
    2990    1210.3145   -7869.5945   -7734.5821   -317.65525    30454.799    6.1244911 
    3000    1189.8595     -7867.78   -7735.0493   -383.63575    30441.073    6.1460105 
    3010    1169.9545   -7865.9958   -7735.4856   -396.64507    30426.714    6.1643407 
    3020      1158.73   -7865.1086   -7735.8506   -331.14144    30411.713    6.1864965 
    3030    1149.0731   -7864.3006   -7736.1197   -240.29681    30396.185    6.2120363 
    3040    1156.9591   -7865.3361   -7736.2756   -226.64732    30380.304    6.2348585 
    3050    1181.6558     -7868.15   -7736.3345   -197.27635    30364.106    6.2539497 
    3060    1204.7307    -7870.737   -7736.3475   -99.256594    30347.659    6.2704317 
    3070    1214.5838   -7871.8567   -7736.3681   -38.500058    30331.138    6.2861283 
    3080    1209.3268   -7871.3214   -7736.4192    188.04464    30314.706    6.3029045 
    3090    1197.7825   -7870.1033   -7736.4888     521.6726    30298.773    6.3238421 
    3100    1188.0922   -7869.0876   -7736.5541    732.27425     30283.93    6.3506437 
    3110    1194.1608   -7869.8097   -7736.5992    703.42667    30270.557    6.3851588 
    3120    1211.2774   -7871.7645   -7736.6447    565.97747    30258.612    6.4281161 
    3130    1225.4769   -7873.4292   -7736.7254    385.85422    30247.826    6.4754824 
    3140    1225.9886   -7873.6213   -7736.8604    404.01779    30237.894    6.5225241 
    3150    1223.5441   -7873.5456   -7737.0574    531.43023    30228.825    6.5643373 
    3160    1218.0625   -7873.1881   -7737.3114    722.45652    30220.838    6.6027406 
    3170    1200.9508   -7871.5748   -7737.6069    1051.1896    30214.318    6.6428999 
    3180    1183.9242   -7869.9673   -7737.8988    1332.3702    30209.845    6.6889669 
    3190    1193.5424   -7871.3116   -7738.1702    1193.3874    30207.859    6.7439747 
    3200    1195.1681    -7871.751   -7738.4282    1010.8754    30208.168    6.8041821 
    3210    1194.7798   -7871.9552   -7738.6757    959.18554    30210.433    6.8635628 
    3220    1200.2711   -7872.7962   -7738.9042    899.14981    30214.519    6.9186226 
    3230    1217.4753   -7874.9506   -7739.1394    951.19681    30220.313    6.9706668 
    3240    1221.4289   -7875.6592    -7739.407    1199.3847     30227.94    7.0269615 
    3250    1215.4626   -7875.3116   -7739.7249    1369.6593    30237.809    7.0870919 
    3260     1198.488   -7873.7669   -7740.0738    1440.5366    30250.231    7.1494865 
    3270    1184.4246   -7872.5426   -7740.4182    1349.1969    30265.338    7.2170432 
    3280    1176.9341   -7872.0126   -7740.7238    1046.5062    30282.913    7.2863336 
    3290    1171.3533    -7871.639   -7740.9728    706.50068    30302.403    7.3530319 
    3300    1180.1895   -7872.8147   -7741.1628    179.43463    30323.113    7.4169739 
    3310    1194.2262   -7874.5318    -7741.314   -393.74025    30344.042    7.4798151 
    3320    1179.6256   -7873.0263   -7741.4373   -491.11669    30364.185    7.5436725 
    3330    1165.1267   -7871.4895   -7741.5179   -349.46767    30383.295    7.6109255 
    3340    1168.9973   -7871.9327   -7741.5292   -132.76176     30401.63    7.6832359 
    3350    1177.4288   -7872.8197   -7741.4757    107.75337    30419.603    7.7594063 
    3360    1186.5797   -7873.7415   -7741.3768    155.18641    30437.657    7.8352759 
    3370    1193.7601   -7874.4079   -7741.2421   -119.00095    30455.847    7.9088696 
    3380    1195.0745   -7874.3985   -7741.0861   -188.48617    30473.749    7.9819803 
    3390    1191.2392   -7873.8046     -7740.92   -209.79623    30491.198    8.0570516 
    3400    1183.9733   -7872.8094   -7740.7354   -307.19653     30508.13    8.1325049 
    3410    1186.2908   -7872.8581   -7740.5255   -457.49733    30524.349    8.2079831 
    3420    1179.4351   -7871.8467   -7740.2789   -602.47382    30539.584    8.2857708 
    3430    1178.6322   -7871.4619   -7739.9837   -1022.9163     30553.51     8.367134 
    3440    1199.0868   -7873.4003   -7739.6404   -1497.1129    30565.369    8.4552794 
    3450    1216.0294   -7874.9397   -7739.2898   -1528.7968    30574.327    8.5498789 
    3460    1208.7916   -7873.8127   -7738.9702    -1205.923    30580.334    8.6462373 
    3470    1194.0356   -7871.8692   -7738.6727   -968.26932    30583.935    8.7378038 
    3480    1177.6518   -7869.7298   -7738.3609   -515.17661    30585.681    8.8199646 
    3490    1169.5622   -7868.4669   -7738.0005   -245.31244    30586.382    8.8944663 
    3500    1172.0406     -7868.32   -7737.5771   -171.51775    30586.567    8.9668172 
    3510    1172.6873   -7867.9113   -7737.0962   -123.52405    30586.421    9.0431037 
    3520    1164.5761    -7866.469   -7736.5588   -113.89149    30586.038    9.1269785 
    3530    1147.2952   -7863.9333   -7735.9508   -24.854737    30585.466    9.2147483 
    3540    1163.3477   -7865.0197   -7735.2465    -57.70457    30584.844    9.2988362 
    3550    1195.4344   -7867.8016   -7734.4491    -181.9015    30584.106    9.3778969 
    3560     1219.308   -7869.6461   -7733.6305   -144.05154    30583.053    9.4534122 
    3570     1211.017   -7867.9334   -7732.8426    133.76824     30581.79    9.5242155 
    3580    1215.5487   -7867.6895   -7732.0932    30.895591    30580.748    9.5890324 
    3590    1248.4992   -7870.6597   -7731.3877   -696.45015    30579.662    9.6496722 
    3600    1227.5896   -7867.6994   -7730.7599   -916.85948    30577.332    9.7122569 
    3610    1211.4041   -7865.3483   -7730.2144   -866.46629    30573.262    9.7775583 
    3620    1207.2563   -7864.3715   -7729.7002   -415.46916    30567.612    9.8441753 
    3630    1203.2855   -7863.4354   -7729.2071    302.52782    30561.231    9.9158119 
    3640    1211.5113   -7863.8683   -7728.7224    671.57873    30555.411    9.9999793 
    3650    1232.6124     -7865.77   -7728.2702     799.3421    30550.889    10.090954 
    3660    1227.8454   -7864.8408   -7727.8728    1129.0092    30548.001       10.177 
    3670    1232.9423   -7865.0832   -7727.5467    1186.1576    30547.274    10.252004 
    3680    1242.7783   -7865.9213   -7727.2875    906.72867     30548.82    10.321678 
    3690     1260.609   -7867.7539   -7727.1311    582.96174    30552.131    10.387578 
    3700    1258.7762   -7867.5266   -7727.1082    612.23644    30556.646    10.451444 
    3710    1251.3806    -7866.822   -7727.2286    664.74131    30562.333    10.519304 
    3720    1255.3095   -7867.5122   -7727.4805    829.75657    30569.344    10.589181 
    3730    1259.6447   -7868.3821   -7727.8669    709.06582    30577.898    10.659159 
    3740    1254.1392   -7868.2946   -7728.3935    675.34644     30587.84    10.731419 
    3750    1228.5376   -7866.0752     -7729.03     1023.443    30599.167    10.806129 
    3760    1206.0036     -7864.25   -7729.7184    1171.7823     30612.43    10.882569 
    3770     1200.862   -7864.3651   -7730.4071     1080.397    30627.938    10.958822 
    3780    1223.4051   -7867.5823   -7731.1096    386.85193    30645.412    11.039157 
    3790    1228.8293   -7868.9189   -7731.8412   -380.88875    30663.603    11.126889 
    3800    1231.7011   -7870.0285   -7732.6304   -1053.3703    30681.013    11.220406 
    3810     1212.584   -7868.7328   -7733.4672   -1427.1678    30696.368    11.316485 
    3820    1189.2616   -7866.9666   -7734.3027   -1518.9949    30708.946    11.406576 
    3830    1184.3769   -7867.2236   -7735.1046   -1626.9795    30718.499    11.483362 
    3840    1177.3926   -7867.1926   -7735.8526   -1700.8859    30724.834    11.548137 
    3850    1187.3257   -7869.0042   -7736.5563   -1567.3837    30727.841    11.606553 
    3860    1190.7552   -7870.0614   -7737.2309   -1140.3735    30727.811     11.66403 
    3870    1181.0445   -7869.6188   -7737.8715    -844.5637    30725.513    11.720217 
    3880     1185.305   -7870.6976    -7738.475   -822.65534    30721.504    11.771874 
    3890    1194.4301   -7872.2889   -7739.0485   -850.73808    30715.869    11.820538 
    3900     1197.045   -7873.1364   -7739.6042   -717.57998    30708.591    11.862551 
    3910    1195.0736    -7873.459   -7740.1467   -286.41528    30699.971    11.893357 
    3920    1188.3439   -7873.2334   -7740.6719    81.999275    30690.789    11.914081 
    3930     1174.721   -7872.2073   -7741.1654    242.18988    30681.757    11.934212 
    3940    1169.8723   -7872.0962   -7741.5952    202.23398    30673.185    11.962454 
    3950    1204.7677   -7876.3779   -7741.9842    146.95585    30665.009    11.996976 
    3960    1220.0381   -7878.4809   -7742.3838    250.10396     30657.15    12.030525 
    3970    1211.0076   -7877.9117    -7742.822    416.51353    30649.802    12.063672 
    3980    1192.2765   -7876.2833   -7743.2831    483.08807    30643.262    12.099935 
    3990    1160.6526   -7873.1817   -7743.7092    543.16809    30637.693    12.140086 
    4000    1153.7871   -7872.7649   -7744.0582    266.32322    30633.125    12.186055 
    4010     1146.473   -7872.1931   -7744.3024     29.14672    30629.091    12.236946 
    4020    1159.4482   -7873.7813   -7744.4431   -252.22059    30625.106    12.290543 
    4030    1181.2558   -7876.2717   -7744.5008   -891.41692    30620.569    12.343984 
    4040     1196.289   -7877.9719   -7744.5241   -1619.7329    30614.264    12.395266 
    4050    1201.2093   -7878.5408    -7744.544    -1974.361    30604.837    12.443365 
    4060     1198.667    -7878.287   -7744.5739   -1924.9655    30591.578    12.489609 
    4070    1177.1486   -7875.9085   -7744.5958   -1330.9295    30574.624    12.538321 
    4080    1144.1108   -7872.1856   -7744.5583   -492.61833    30555.066    12.588802 
    4090    1131.0782   -7870.5745   -7744.4011    204.01534    30534.474    12.635547 
    4100    1152.1255   -7872.6111   -7744.0898    531.29355    30514.181    12.674804 
    4110    1190.1286   -7876.4264   -7743.6658    514.28047    30494.811    12.705827 
    4120    1203.2826   -7877.4245   -7743.1965    352.41217    30476.362    12.731965 
    4130    1208.1921   -7877.5037   -7742.7281    231.25691    30458.562    12.759283 
    4140    1221.8985   -7878.5851   -7742.2804    8.4953957    30441.136    12.792929 
    4150    1229.8351   -7879.0686   -7741.8786   -163.91229    30423.685    12.834861 
    4160    1212.0486   -7876.7359     -7741.53   -85.424314     30405.91    12.886522 
    4170    1226.5387   -7878.0509   -7741.2286   -152.79573     30387.88    12.943643 
    4180    1219.8346    -7877.044   -7740.9696   -29.257662    30369.537    13.005179 
    4190    1190.6932   -7873.5709   -7740.7472    139.92867    30351.078    13.066824 
    4200    1166.8222   -7870.6728    -7740.512    177.08322    30332.791    13.122658 
    4210    1157.0823    -7869.279   -7740.2047    378.38882    30314.818    13.170859 
    4220    1177.9928   -7871.2129    -7739.806    490.67692    30297.477    13.215437 
    4230    1213.2907   -7874.6969   -7739.3525    492.56321    30280.986    13.263019 
    4240    1217.5946   -7874.7249   -7738.9004     676.8652    30265.409    13.310145 
    4250    1220.9596   -7874.6846   -7738.4847    963.33508    30251.101    13.348553 
    4260    1231.4303   -7875.4859    -7738.118    696.47144    30238.461    13.380215 
    4270    1186.1829   -7870.1132   -7737.7928    754.32726    30227.193    13.409653 
    4280    1181.9826   -7869.3177   -7737.4658    620.92129    30217.281     13.42812 
    4290    1189.1008   -7869.7372   -7737.0912    610.64784    30208.538    13.441027 
    4300    1186.4368   -7869.0288     -7736.68    932.35777    30200.992    13.461247 
    4310    1206.7353   -7870.8548   -7736.2416    1052.9235    30195.155    13.498088 
    4320    1229.0057   -7872.9041   -7735.8067    877.25803    30191.254    13.555597 
    4330    1239.0733   -7873.6482   -7735.4277    674.90703    30189.017    13.629497 
    4340    1238.5314     -7873.29     -7735.13    533.21945    30188.088     13.70613 
    4350    1262.9094   -7875.8058   -7734.9264   -33.058289    30188.094    13.772494 
    4360    1268.0778   -7876.3189   -7734.8629   -447.68868    30188.085     13.83304 
    4370     1239.875   -7873.2501   -7734.9402   -439.80394    30187.317    13.891086 
    4380    1240.5708   -7873.5232   -7735.1357   -263.72697    30185.717    13.947141 
    4390    1217.5547   -7871.2319   -7735.4118    326.98364    30183.682    14.006682 
    4400    1208.8108    -7870.588   -7735.7433    510.06857    30182.188    14.073687 
    4410    1214.7514   -7871.6186   -7736.1113    250.59432    30181.579    14.151011 
    4420    1208.4171    -7871.321   -7736.5203   -6.5235294    30181.451    14.234366 
    4430    1190.9936   -7869.8055   -7736.9484    -103.1495    30181.349     14.32013 
    4440     1199.136   -7871.1452   -7737.3797    -211.5423    30181.041    14.402893 
    4450    1217.9886   -7873.7002   -7737.8317   -28.545222    30180.398     14.48156 
    4460    1216.9513   -7874.0912   -7738.3384    475.78202    30179.751    14.561052 
    4470    1204.2669   -7873.2233   -7738.8855    887.01491    30179.999    14.641292 
    4480    1221.1234   -7875.6926   -7739.4744    875.54171    30181.871    14.720532 
    4490    1216.5003    -7875.806   -7740.1036    940.75075    30185.453    14.802413 
    4500    1212.8838   -7876.0578   -7740.7587    1199.4853      30190.9    14.887652 
    4510    1229.4186   -7878.5917   -7741.4482    1278.2327     30198.62     14.97554 
    4520    1237.1892   -7880.2054   -7742.1951    1158.6281     30208.79    15.068086 
    4530    1232.1663    -7880.463    -7743.013    903.46276    30221.181    15.163234 
    4540    1227.8556   -7880.8537   -7743.8846    566.27692    30235.329    15.252501 
    4550    1217.8559   -7880.6306   -7744.7769    50.796199    30250.559    15.334314 
    4560    1211.0009    -7880.751    -7745.662   -370.84167    30265.905    15.411866 
    4570    1191.3316   -7879.4002   -7746.5053    -565.5167    30280.583    15.492143 
    4580    1152.9073   -7875.8485     -7747.24   -656.84109     30294.18    15.585341 
    4590    1134.8033   -7874.4023   -7747.8133   -751.24478    30306.491     15.69789 
    4600    1131.0393   -7874.3755   -7748.2064   -527.64213    30317.405    15.827533 
    4610     1138.405   -7875.4317   -7748.4409   -306.72555    30327.281    15.960997 
    4620    1138.1854   -7875.5116   -7748.5453   -194.97981    30336.535    16.085925 
    4630    1141.0712   -7875.8235   -7748.5353   -170.33587    30345.378    16.201221 
    4640    1147.0101   -7876.3532   -7748.4025   -495.99034    30353.799    16.312795 
    4650    1162.1667   -7877.8022   -7748.1607   -959.72583    30361.203    16.422623 
    4660    1170.2171   -7878.3719   -7747.8324   -1014.9137    30366.796    16.524184 
    4670    1181.2716   -7879.2097   -7747.4371   -875.61997    30370.449    16.608368 
    4680    1199.9117   -7880.8484   -7746.9964   -912.61292    30372.359    16.675116 
    4690    1194.4884    -7879.783    -7746.536   -691.16119    30372.576    16.737668 
    4700    1182.2975   -7877.9491    -7746.062   -647.87214    30371.425    16.806343 
    4710    1180.7557   -7877.2686   -7745.5536   -696.89234    30369.027    16.882915 
    4720    1179.4166    -7876.565   -7744.9993    -597.5758     30365.34    16.962448 
    4730    1174.9419    -7875.463   -7744.3965   -208.51405    30360.606    17.039071 
    4740    1178.7867   -7875.2291   -7743.7336   -6.1503991    30355.486    17.106924 
    4750    1197.2255   -7876.5666   -7743.0143    -111.7509    30350.366    17.168613 
    4760    1185.4997   -7874.5147   -7742.2704   -72.755095    30345.134    17.232988 
    4770    1180.7172   -7873.2406   -7741.5299   -99.254011    30339.807    17.299137 
    4780    1189.9698   -7873.5158   -7740.7729   -133.79669    30334.369    17.365642 
    4790    1184.3068   -7872.1358   -7740.0245    76.605793    30328.779    17.437426 
    4800    1156.8524   -7868.3388   -7739.2902    498.75978    30323.453     17.51421 
    4810    1163.5157   -7868.3328   -7738.5409    331.88544    30319.043    17.586863 
    4820    1176.2515    -7868.981   -7737.7683    149.59921     30315.33    17.652492 
    4830    1187.1813   -7869.4479    -7737.016    27.696346    30311.971    17.717447 
    4840    1211.3345   -7871.4573   -7736.3311   -374.50841    30308.654    17.786261 
    4850    1232.3595   -7873.2217   -7735.7501   -453.46926    30304.743    17.860949 
    4860    1254.1557    -7875.218    -7735.315   -492.65775    30300.018    17.939021 
    4870    1242.1978   -7873.6143   -7735.0452   -276.79127    30294.472    18.022373 
    4880    1233.2849   -7872.4939   -7734.9191    14.445971     30288.48     18.10633 
    4890    1210.3853   -7869.8887   -7734.8684    392.50372    30282.632    18.188956 
    4900     1211.557   -7870.0115   -7734.8605    377.99605    30277.528    18.271479 
    4910    1217.5331   -7870.6912   -7734.8735    453.55372    30273.246    18.356995 
    4920    1227.5119   -7871.8603   -7734.9295    646.69587    30269.903    18.446834 
    4930    1213.0922   -7870.3519   -7735.0297    848.34295    30267.828    18.537871 
    4940    1209.3767   -7870.0679   -7735.1601    1024.5567    30267.407    18.628842 
    4950    1227.5851   -7872.2492   -7735.3102    903.41394     30268.89    18.727873 
    4960     1226.425   -7872.3132   -7735.5036    698.20263     30272.08      18.8437 
    4970    1213.0514    -7871.061   -7735.7433    642.55269    30276.605    18.970723 
    4980     1200.728   -7869.9421    -7735.999    710.39654    30282.344    19.098036 
    4990    1186.1806   -7868.5606   -7736.2404    983.83787    30289.417    19.223829 
    5000    1190.8749   -7869.2949    -7736.451    1203.0253    30298.299    19.350638 
Loop time of 2379.59 on 16 procs for 3000 steps with 864 atoms

Performance: 0.109 ns/day, 220.333 hours/ns, 1.261 timesteps/s
98.4% CPU use with 16 MPI tasks x 1 OpenMP threads

MPI task timing breakdown:
Section |  min time  |  avg time  |  max time  |%varavg| %total
---------------------------------------------------------------
Pair    | 2113.2     | 2242.4     | 2325       | 117.4 | 94.23
Bond    | 0.00031567 | 0.00085975 | 0.0016081  |   0.0 |  0.00
Neigh   | 0.030578   | 0.033573   | 0.036003   |   0.7 |  0.00
Comm    | 29.793     | 116.34     | 243.1      | 523.6 |  4.89
Output  | 0.18496    | 0.18911    | 0.25012    |   3.6 |  0.01
Modify  | 11.486     | 20.649     | 24.511     |  88.2 |  0.87
Other   |            | 0.01648    |            |       |  0.00

Nlocal:        54.0000 ave          61 max          48 min
Histogram: 4 0 0 3 4 0 1 0 1 3
Nghost:        390.500 ave         410 max         363 min
Histogram: 1 1 1 0 4 1 2 2 2 2
Neighs:         0.00000 ave           0 max           0 min
Histogram: 16 0 0 0 0 0 0 0 0 0
FullNghs:      1505.62 ave        1818 max        1217 min
Histogram: 2 2 1 1 2 4 0 0 2 2

Total # of neighbors = 24090
Ave neighs/atom = 27.881944
Ave special neighs/atom = 0.0000000
Neighbor list builds = 300
Dangerous builds = 300
unfix   2

fix     3 all npt temp 1200.0 1200.0 $(100.0*dt) aniso 1.01325 1.01325 $(1000.0*dt)
fix     3 all npt temp 1200.0 1200.0 0.10000000000000000555 aniso 1.01325 1.01325 $(1000.0*dt)
fix     3 all npt temp 1200.0 1200.0 0.10000000000000000555 aniso 1.01325 1.01325 1
run     20000
Per MPI rank memory allocation (min/avg/max) = 8.897 | 8.899 | 8.901 Mbytes
Step Temp PotEng TotEng Press Volume c_msd[4] 
    5000    1190.8749   -7869.2949    -7736.451    1203.0253    30298.299    19.350638 
    5010    1200.4905   -7870.3632   -7736.4467     1211.166    30299.475    19.432675 
    5020    1214.0155   -7871.8706   -7736.4453     891.6331    30302.937    19.522731 
    5030    1244.9526   -7875.3614    -7736.485    535.34386    30308.139    19.617938 
    5040    1254.1252   -7876.5232   -7736.6236    287.34067    30314.387     19.70789 
    5050    1240.2083   -7875.2408   -7736.8937    558.76696    30321.301    19.784494 
    5060    1217.0195   -7873.0208   -7737.2604    1012.9767    30329.344    19.850113 
    5070    1224.6857   -7874.3261   -7737.7106    979.52959    30339.265    19.913669 
    5080    1200.2098   -7872.1083   -7738.2231     795.2158    30351.099     19.98012 
    5090    1183.2955   -7870.7648   -7738.7664    422.18183     30364.47      20.0484 
    5100    1191.0674   -7872.1878   -7739.3225    109.97378    30378.723    20.120564 
    5110    1182.1303   -7871.7636   -7739.8951    174.70628    30393.301    20.193185 
    5120    1178.9084   -7871.9865   -7740.4775    580.90901    30408.333    20.252838 
    5130    1190.1789   -7873.8444   -7741.0781    653.50908    30424.484    20.300264 
    5140    1183.5051   -7873.7292   -7741.7074    501.22225    30441.945     20.34983 
    5150    1160.7811   -7871.8295   -7742.3427    85.167901    30460.393    20.402713 
    5160    1147.6784   -7870.9718   -7742.9466   -209.72948    30479.119    20.449131 
    5170    1149.3705   -7871.7195   -7743.5055   -333.38741    30497.553    20.487022 
    5180    1135.7653    -7870.705   -7744.0087   -238.25807    30515.465    20.520757 
    5190    1126.0035    -7870.042   -7744.4346   -7.6877646    30533.029    20.549067 
    5200     1125.832   -7870.3455   -7744.7573    61.372079    30550.641    20.569516 
    5210      1132.44   -7871.2908   -7744.9654   -133.19081     30568.42    20.586234 
    5220    1151.9084   -7873.5519   -7745.0548   -590.46422    30585.978    20.602713 
    5230    1176.5536   -7876.2795   -7745.0332   -964.70537    30602.486    20.625995 
    5240    1208.3157   -7879.7376   -7744.9482   -1200.3264    30617.175    20.659119 
    5250    1208.6644   -7879.6568   -7744.8285    -991.9609    30629.654    20.700013 
    5260      1223.93   -7881.2375   -7744.7062   -955.33268    30640.187    20.740438 
    5270    1220.2899   -7880.7109   -7744.5858    -870.9303    30648.892    20.771306 
    5280    1207.7022   -7879.2102   -7744.4892    -817.6319    30655.897    20.791253 
    5290    1186.8599   -7876.7945   -7744.3984    -686.1597    30661.336    20.809662 
    5300    1170.8288   -7874.8893   -7744.2815   -608.62675    30665.422    20.828836 
    5310    1161.6092   -7873.6715   -7744.0922   -405.64838    30668.343     20.85016 
    5320     1171.605   -7874.4917   -7743.7974   -57.030444    30670.506    20.877698 
    5330    1189.9554   -7876.1345   -7743.3932   -37.739387    30672.476    20.909864 
    5340    1190.7446   -7875.7284    -7742.899   -148.66251    30674.363    20.948396 
    5350    1193.5144   -7875.4712   -7742.3329   -377.76619    30675.949    20.985229 
    5360    1195.2929   -7875.0543   -7741.7176   -511.36052    30676.823    21.011363 
    5370    1205.2056   -7875.5195    -7741.077     -747.131    30676.662    21.033803 
    5380    1202.7705   -7874.5831   -7740.4122   -657.09512    30675.106    21.062293 
    5390    1218.8536   -7875.6982   -7739.7332   -543.18941    30672.263     21.09552 
    5400    1203.1003   -7873.2592   -7739.0516   -325.87824     30668.39     21.12888 
    5410    1181.2006   -7870.1399   -7738.3752   -235.88711    30663.885    21.168191 
    5420    1190.9884   -7870.5225    -7737.666   -643.30055    30658.866      21.2205 
    5430     1194.677   -7870.1916   -7736.9236   -881.06802     30652.67    21.283208 
    5440     1219.232   -7872.1851   -7736.1779   -1124.2287    30644.773    21.348204 
    5450    1227.7908   -7872.4373   -7735.4754   -1135.9129    30634.788    21.406482 
    5460    1221.9001   -7871.1563   -7734.8515   -1201.5492    30622.658    21.453597 
    5470    1219.1373   -7870.3014   -7734.3048   -1209.2869    30608.308    21.492278 
    5480    1206.0066   -7868.3464   -7733.8145   -1055.3402    30591.773    21.522351 
    5490    1215.2273   -7868.9292   -7733.3688   -967.06433    30573.356     21.54551 
    5500    1227.5257   -7869.8989   -7732.9666   -983.75565    30553.233     21.56868 
    5510    1225.6499   -7869.3453   -7732.6222   -1027.1738    30531.417    21.595694 
    5520    1211.5623   -7867.4863   -7732.3347   -1173.2886    30507.829    21.624151 
    5530    1199.8154   -7865.9235   -7732.0823   -1273.8663    30482.257    21.653639 
    5540    1189.4023   -7864.4984   -7731.8188   -1312.0743    30454.549    21.678647 
    5550    1216.2749   -7867.2212   -7731.5439   -1468.5216    30424.631    21.687505 
    5560    1222.2504   -7867.6217   -7731.2778   -1366.4502    30392.337    21.680774 
    5570    1226.8772   -7867.9183   -7731.0583   -1008.5397    30357.904    21.660119 
    5580    1230.8658   -7868.1906   -7730.8857   -688.07383    30322.012    21.625928 
    5590    1263.2997   -7871.7144   -7730.7914   -453.87905    30285.296    21.580386 
    5600    1277.3395   -7873.3192     -7730.83    22.614915    30248.288    21.533796 
    5610    1257.8898   -7871.3545    -7731.035    767.57098    30211.932    21.491522 
    5620    1255.9084   -7871.5027   -7731.4043    994.24712    30177.482    21.452907 
    5630    1248.1079   -7871.1825   -7731.9542     1035.952    30145.414    21.420736 
    5640    1227.4726    -7869.595   -7732.6685    1047.5966    30115.796    21.393122 
    5650    1215.9854   -7869.1731   -7733.5281    811.92298    30088.557    21.373365 
    5660    1205.5121   -7868.9775   -7734.5008    673.11943    30063.278    21.369633 
    5670    1202.4394   -7869.6916   -7735.5577    846.29202    30039.706      21.3872 
    5680    1187.7738   -7869.1375   -7736.6395    1207.5587    30018.117    21.422422 
    5690    1190.8825   -7870.5561   -7737.7114    1158.8614    29999.029    21.462645 
    5700    1193.2056   -7871.8429   -7738.7391    926.45187    29982.371    21.498217 
    5710    1195.6106   -7873.0703   -7739.6982    548.59848    29967.657    21.529378 
    5720     1197.282   -7874.1305   -7740.5719    366.99066    29954.224    21.556752 
    5730    1195.5147   -7874.7085    -7741.347     214.2294    29941.656    21.578939 
    5740    1188.1577   -7874.5429   -7742.0022    316.93366    29929.712    21.597218 
    5750    1189.6033   -7875.2435   -7742.5415    411.53558    29918.502     21.61884 
    5760    1191.4847   -7875.8832   -7742.9712    490.75218    29908.229    21.643285 
    5770    1207.5816   -7878.0438   -7743.3363    349.04508    29898.953    21.659145 
    5780    1187.4281   -7876.1028   -7743.6434    499.62002    29890.514    21.668665 
    5790    1168.4993   -7874.2207   -7743.8729    351.02015    29883.063    21.682433 
    5800    1185.9376   -7876.3182   -7744.0251    133.11715    29876.355    21.714919 
    5810    1169.6908   -7874.5941   -7744.1134    324.78226    29870.049    21.760214 
    5820    1139.6767   -7871.2626     -7744.13    679.29843    29864.445    21.797066 
    5830    1117.2237   -7868.6557   -7744.0277    1184.6654     29860.22    21.818626 
    5840     1117.516   -7868.4354   -7743.7748    1461.4267    29858.213     21.83256 
    5850    1162.5227   -7873.0709   -7743.3897    1395.3153    29858.894    21.849476 
    5860    1181.6589   -7874.7431   -7742.9273    1314.9353    29862.176    21.879357 
    5870     1201.015   -7876.4409   -7742.4658    906.37654    29867.804     21.91918 
    5880    1196.7996   -7875.5277   -7742.0229    727.58132    29875.118     21.96267 
    5890    1202.8473   -7875.7952   -7741.6158    893.23932    29883.769     22.01006 
    5900    1199.6026   -7875.0535    -7741.236    1406.7816    29894.065    22.066322 
    5910    1198.4253   -7874.5728   -7740.8866    1562.4694    29906.807    22.130068 
    5920    1213.1379   -7875.8748   -7740.5475    1306.0739    29922.261    22.188139 
    5930    1245.3059   -7879.1638   -7740.2481     961.8577    29939.961    22.244407 
    5940    1254.6842   -7880.0055   -7740.0435    1099.1529    29959.361    22.310976 
    5950    1249.4624    -7879.361   -7739.9816    1424.1311    29980.632    22.391605 
    5960    1230.2891   -7877.2799   -7740.0393    1600.5018    30004.314    22.488899 
    5970     1202.649   -7874.3165   -7740.1592    1303.8739    30030.637    22.596348 
    5980    1182.8068   -7872.2226   -7740.2787    879.41374    30059.087    22.701543 
    5990    1167.6014   -7870.5786   -7740.3309    672.57595    30088.903    22.795393 
    6000    1175.3227   -7871.4334   -7740.3244    610.28857    30119.646     22.87968 
    6010    1155.4254   -7869.1333   -7740.2439    607.10043    30151.176    22.960937 
    6020    1151.2755   -7868.5038   -7740.0773    306.14794    30183.406    23.034863 
    6030    1162.8748   -7869.5049   -7739.7844   -370.54814     30215.75     23.09274 
    6040    1181.2296   -7871.1424   -7739.3745   -902.05671    30246.985     23.13803 
    6050    1181.0276   -7870.6263   -7738.8809   -845.77485    30276.192    23.185754 
    6060    1199.7951   -7872.1548   -7738.3159   -635.14478    30303.435    23.249689 
    6070    1212.5553   -7872.9429   -7737.6806   -400.28168    30329.111    23.333673 
    6080    1203.2474   -7871.2248   -7737.0007   -207.67148    30353.678    23.429162 
    6090    1195.7998   -7869.6553    -7736.262   -118.60146    30377.508    23.515945 
    6100    1201.1986   -7869.4269   -7735.4314   -133.98269    30400.777    23.581154 
    6110    1203.9914   -7868.8099   -7734.5028   -106.56888    30423.493     23.63092 
    6120    1229.1283   -7870.6026   -7733.4915   -146.17515    30445.689    23.677638 
    6130     1264.528   -7873.5029   -7732.4429   -98.951236    30467.332    23.724172 
    6140    1287.0182   -7875.0304   -7731.4616   -7.0878782    30488.527     23.76837 
    6150    1305.4789   -7876.2659   -7730.6378   -208.59204    30509.369    23.815215 
    6160    1272.5896   -7871.9794   -7730.0201   -263.97359    30529.549    23.870471 
    6170    1245.5125   -7868.5167   -7729.5779   -286.07553    30548.954     23.92464 
    6180    1230.7827   -7866.5265   -7729.2308   -183.00304    30567.597    23.975732 
    6190    1227.2123    -7865.843   -7728.9456   -138.85323    30585.625    24.029829 
    6200    1228.0625   -7865.6962    -7728.704    -196.4655    30603.138    24.086932 
    6210    1246.0143   -7867.5036   -7728.5088   -825.01775    30619.943    24.144285 
    6220    1253.6319   -7868.2315    -7728.387   -1436.0779    30634.957    24.206881 
    6230    1257.0742   -7868.6141   -7728.3856   -1750.1256    30647.039    24.272586 
    6240    1252.2115   -7868.2175   -7728.5314   -1923.6778    30655.575    24.324436 
    6250    1241.2132   -7867.3159   -7728.8567   -1832.8768    30660.286    24.355648 
    6260    1219.1044    -7865.362   -7729.3691   -1319.7374    30661.446    24.375607 
    6270    1193.5403    -7863.196   -7730.0548   -953.70497    30659.984    24.386496 
    6280    1192.1656   -7863.8866   -7730.8987   -871.90802    30656.637    24.378364 
    6290    1195.2276   -7865.2501   -7731.9207   -751.81864    30651.639    24.366083 
    6300    1176.4058   -7864.3148    -7733.085   -457.62934    30645.267    24.366807 
    6310    1173.8277   -7865.2636   -7734.3214   -387.32525    30638.043    24.379485 
    6320    1196.4012   -7869.0486   -7735.5882   -322.34943    30630.151    24.394094 
    6330    1215.3797   -7872.4468   -7736.8694   -383.08581    30621.705    24.407565 
    6340    1218.3596   -7874.0546   -7738.1447   -612.07406    30612.584    24.427339 
    6350    1202.8591   -7873.5232   -7739.3424   -779.47525    30602.396    24.454619 
    6360    1193.3234   -7873.5265   -7740.4095   -992.72745    30590.785    24.488012 
    6370    1181.4393   -7873.1089   -7741.3175    -988.1436    30577.415    24.518193 
    6380    1170.9851   -7872.6854   -7742.0602   -782.74626    30562.311    24.527095 
    6390    1167.6087   -7872.8885     -7742.64   -446.15543    30545.875    24.504897 
    6400      1162.22   -7872.7296   -7743.0822   -180.31467    30528.733    24.462752 
    6410    1141.5293   -7870.7227   -7743.3834   -17.836462    30511.426     24.42664 
    6420    1143.4078    -7871.093   -7743.5441   -232.08815    30494.212    24.411291 
    6430    1152.4058   -7872.1258   -7743.5732   -333.10271    30476.769    24.415414 
    6440    1174.8098   -7874.5592   -7743.5074   -138.43947    30458.928    24.428791 
    6450    1201.4942   -7877.4129   -7743.3844    41.628682    30441.022     24.44295 
    6460    1207.7763   -7877.9859   -7743.2566    290.13126    30423.418    24.448352 
    6470    1202.0726   -7877.2347   -7743.1417    538.96014    30406.574    24.430399 
    6480    1206.3286   -7877.6103   -7743.0425    639.46575     30390.92    24.396283 
    6490    1194.8864   -7876.2434   -7742.9521    757.45168    30376.663    24.363839 
    6500    1183.4855   -7874.8734   -7742.8538    520.30853    30363.933    24.340984 
    6510    1171.4523    -7873.397   -7742.7197    207.87413    30352.318    24.333002 
    6520    1178.5488   -7874.0001   -7742.5312    117.34501    30341.258    24.331469 
    6530     1194.366   -7875.5211   -7742.2878    3.4878224    30330.528    24.321691 
    6540    1190.6319   -7874.8299   -7742.0131   -152.13074    30319.906    24.301444 
    6550    1182.9731   -7873.6697   -7741.7073   -178.06036    30309.118    24.279376 
    6560     1169.781   -7871.8339   -7741.3431    -203.9408    30298.064    24.265132 
    6570    1164.2977   -7870.7726   -7740.8935    64.124307    30286.771    24.259474 
    6580     1179.501   -7871.9067   -7740.3316    372.24712    30275.722    24.260865 
    6590    1218.6401   -7875.6228   -7739.6816     403.8258    30265.428    24.266609 
    6600    1240.3556   -7877.3706   -7739.0071     416.4214    30255.994    24.266273 
    6610    1244.8652    -7877.248   -7738.3814    470.17725    30247.435     24.25533 
    6620     1241.032   -7876.2692   -7737.8303    525.24508    30239.838     24.24425 
    6630    1233.4021   -7874.9313   -7737.3434    448.24408    30233.292    24.247191 
    6640    1252.3931   -7876.6259   -7736.9195    240.54484    30227.623    24.266426 
    6650    1263.4865   -7877.5259   -7736.5821    428.78246    30222.529    24.297574 
    6660    1247.7669   -7875.5513    -7736.361    874.21534    30218.338    24.335178 
    6670    1249.8217   -7875.6622   -7736.2427    1096.4439    30215.807    24.380476 
    6680    1270.6289   -7877.9743   -7736.2337    1173.3103    30215.366     24.43621 
    6690    1276.9813   -7878.8477   -7736.3985    1218.8101    30217.163    24.500057 
    6700    1249.5085   -7876.1553   -7736.7707     1242.307    30221.276    24.571273 
    6710    1221.2608   -7873.5597   -7737.3263    981.09989    30227.692    24.654247 
    6720    1196.5916   -7871.4909   -7738.0093    579.60385    30235.946    24.750012 
    6730     1182.962   -7870.7513   -7738.7901    337.14251     30245.32     24.85136 
    6740     1181.217   -7871.4136    -7739.647    6.0147902    30255.291    24.950134 
    6750    1187.8987   -7873.0902   -7740.5783   -290.90089    30265.253    25.041476 
    6760    1182.5491   -7873.4926   -7741.5775   -510.18382    30274.647    25.123832 
    6770    1158.8907   -7871.8718   -7742.5958   -473.17407    30283.094    25.201834 
    6780    1133.2531   -7869.9662   -7743.5501    -312.8877    30290.642    25.276548 
    6790    1119.5404   -7869.2511   -7744.3647   -398.78116    30297.539    25.334485 
    6800    1127.7563   -7870.8177   -7745.0147   -666.95574    30303.635    25.366369 
    6810    1151.2504   -7873.9385   -7745.5147   -894.37029    30308.451    25.372237 
    6820    1179.2069   -7877.4692   -7745.9269   -781.17141    30311.613    25.360965 
    6830    1181.8597   -7878.1236   -7746.2854   -512.53116    30313.312    25.349266 
    6840    1180.8535   -7878.3326   -7746.6066   -334.51667    30314.019    25.350512 
    6850    1178.8157   -7878.3902   -7746.8915   -323.16064     30314.06    25.374296 
    6860    1160.1786   -7876.5413   -7747.1216   -278.28731    30313.499    25.424641 
    6870    1150.1596    -7875.575   -7747.2729   -90.561732    30312.439    25.493463 
    6880    1148.8169   -7875.4737   -7747.3215    87.509583    30311.206     25.56462 
    6890    1146.2912   -7875.1268   -7747.2563    287.28493    30310.153    25.625458 
    6900    1154.4308   -7875.8539   -7747.0754    304.52716    30309.632    25.673619 
    6910    1156.8335   -7875.8167   -7746.7702    313.09007    30309.709    25.713352 
    6920     1175.575   -7877.4744   -7746.3373    400.18183    30310.421    25.748299 
    6930    1225.6883   -7882.5253   -7745.7979     348.1433    30311.884    25.783063 
    6940    1229.1684   -7882.3227   -7745.2071    525.66998    30314.067    25.822372 
    6950    1194.6389   -7877.8732   -7744.6095    1025.8285    30317.341    25.867255 
    6960    1165.0863   -7873.8887   -7743.9215     1101.253    30322.549    25.915037 
    6970    1182.3989   -7874.9567   -7743.0583    633.23646    30329.812     25.96445 
    6980    1182.0295   -7873.8565   -7741.9994     395.2659    30338.361     26.02552 
    6990    1171.0629   -7871.4009    -7740.767    571.36144    30347.789    26.105284 
    7000    1185.5893   -7871.6456   -7739.3913    587.30735    30358.314    26.202484 
    7010    1186.5178    -7870.289   -7737.9311    578.71124    30370.027    26.309972 
    7020    1216.4942    -7872.218   -7736.5162    290.79854    30382.852    26.417329 
    7030    1238.9115   -7873.4592   -7735.2568   -108.46659    30396.279    26.524151 
    7040    1244.4429   -7873.0858   -7734.2663   -251.80141    30409.604    26.638185 
    7050    1254.5644   -7873.5046   -7733.5561   -205.51005    30422.531    26.759588 
    7060    1262.2591   -7873.9043   -7733.0974    -73.70472    30435.129    26.887407 
    7070    1277.6148   -7875.3849    -7732.865   -100.22372      30447.6    27.023018 
    7080    1292.0544   -7876.9587   -7732.8281   -289.60646    30459.916    27.163085 
    7090    1313.6877   -7879.5592   -7733.0154   -501.21177    30471.709    27.303873 
    7100    1285.9514    -7876.869   -7733.4192   -325.97986    30482.652    27.439751 
    7110    1241.2995   -7872.4324   -7733.9636   -175.74778        30493    27.566093 
    7120    1204.7697   -7868.9193   -7734.5255   -371.30176    30503.007    27.685623 
    7130    1196.9484   -7868.5624    -7735.041   -936.23161    30512.266     27.80781 
    7140    1205.4958   -7869.9818   -7735.5069   -1480.9487    30519.751    27.933497 
    7150    1215.1251   -7871.5088   -7735.9598   -2090.4424    30524.352    28.052805 
    7160    1211.5268   -7871.5733   -7736.4257   -2224.3257    30524.986    28.150768 
    7170    1196.5238   -7870.3694   -7736.8954   -2038.3312    30521.342    28.226978 
    7180    1168.7428   -7867.6964   -7737.3214   -1818.2677    30513.716    28.293376 
    7190    1168.5546   -7868.0271   -7737.6731   -1543.3952    30502.543    28.353926 
    7200      1177.51   -7869.3032   -7737.9502   -1114.3129    30488.372    28.410006 
    7210    1192.0672   -7871.1469     -7738.17   -756.23639    30472.017    28.465192 
    7220    1223.4491    -7874.867   -7738.3894   -739.15337     30454.12    28.523332 
    7230    1235.0115   -7876.4377   -7738.6703   -659.51776    30434.807    28.584292 
    7240     1224.524   -7875.6279   -7739.0304   -604.29559    30414.216    28.638763 
    7250     1219.198     -7875.45   -7739.4466   -501.12833    30392.482    28.683372 
    7260    1242.2087   -7878.4949   -7739.9247   -305.67311    30369.827    28.728431 
    7270     1254.027   -7880.3755   -7740.4869    21.886893     30346.67    28.776958 
    7280    1255.2764   -7881.2043   -7741.1764   -41.105889    30323.546     28.82149 
    7290    1245.6375   -7880.9603   -7742.0076   -346.54893    30300.374    28.860936 
    7300    1212.7213   -7878.1905   -7742.9097   -225.59158    30276.736    28.901632 
    7310    1206.2679   -7878.3808   -7743.8198   -304.75299     30252.74    28.943174 
    7320    1207.9987   -7879.4717   -7744.7176   -309.55316    30228.318    28.984822 
    7330    1195.1394   -7878.8888   -7745.5692    11.478275    30203.535    29.030443 
    7340    1189.4022    -7879.014   -7746.3344    139.95522    30178.911    29.080504 
    7350    1179.9492   -7878.6336   -7747.0085    262.01799    30154.736    29.128827 
    7360    1163.3379    -7877.332   -7747.5599    465.73257    30131.276     29.16984 
    7370    1158.2067   -7877.1658   -7747.9661    656.45467    30108.909    29.199479 
    7380     1167.915    -7878.525   -7748.2423    608.84207    30087.953    29.214938 
    7390    1167.3184   -7878.6453   -7748.4292    640.29703    30068.386      29.2228 
    7400     1136.393   -7875.2799   -7748.5136     956.5383    30050.294    29.232219 
    7410    1142.7801   -7875.9461   -7748.4673    941.28644    30034.148    29.241493 
    7420    1167.7604    -7878.568   -7748.3025    907.13026    30019.969    29.247445 
    7430      1185.03   -7880.2684   -7748.0765    890.97299    30007.673    29.244873 
    7440    1185.1917   -7880.0445   -7747.8345    900.19177    29997.204    29.227253 
    7450    1155.4252   -7876.4615   -7747.5721    1224.5659    29988.604    29.205127 
    7460    1136.7532   -7874.0513   -7747.2448    1538.5349    29982.415    29.199807 
    7470    1141.3016   -7874.1366   -7746.8227    1524.8071     29979.15    29.226213 
    7480    1148.9407   -7874.4768   -7746.3107    1244.8997    29978.745    29.285159 
    7490    1154.4025   -7874.5064    -7745.731    968.75461    29980.678    29.370131 
    7500    1167.5624   -7875.3501   -7745.1067    687.42952    29984.397    29.471329 
    7510    1183.4222   -7876.4798   -7744.4672    669.87592    29989.414    29.569889 
    7520    1193.2977   -7876.9719   -7743.8577    626.71407    29995.598    29.646287 
    7530    1200.0133   -7877.1654   -7743.3021     655.9777    30002.893    29.699867 
    7540     1208.823   -7877.6584   -7742.8124    834.65073    30011.334    29.739372 
    7550     1206.189    -7876.952   -7742.3998    1259.9983    30021.259    29.779942 
    7560    1181.6041   -7873.8595   -7742.0498    1665.3608     30033.39    29.834867 
    7570    1165.1863   -7871.7014   -7741.7231     1832.152    30048.434    29.904949 
    7580    1188.2548   -7873.9339   -7741.3822    1312.8164    30066.575     29.97888 
    7590    1198.8052   -7874.7645    -7741.036    910.02045    30086.948    30.057504 
    7600    1199.3143   -7874.5128   -7740.7275    776.33177    30108.763    30.145753 
    7610    1188.2402   -7872.9997   -7740.4497    759.94204    30131.721    30.241879 
    7620    1154.6088   -7868.9773   -7740.1789    912.99604    30155.773     30.33385 
    7630    1134.2452   -7866.3801   -7739.8533    912.57486    30181.145    30.417808 
    7640    1154.3987   -7868.2204   -7739.4455     602.1759    30207.775    30.510428 
    7650    1169.0802   -7869.3748   -7738.9622    376.82063    30235.121    30.609913 
    7660    1196.2904   -7871.9034   -7738.4554     49.73344    30262.699    30.695971 
    7670    1226.4517   -7874.7829   -7737.9704   -513.26401    30289.853    30.763526 
    7680    1230.9639   -7874.8755   -7737.5597   -819.44734    30315.598    30.824172 
    7690    1226.7561   -7874.0968   -7737.2503   -913.39347    30339.345    30.886714 
    7700    1218.7939   -7872.9835   -7737.0252   -801.63127    30360.937    30.963719 
    7710    1189.3357   -7869.5262    -7736.854   -250.68167    30380.672     31.06082 
    7720    1167.2186    -7866.888    -7736.683    182.34375    30399.528    31.160678 
    7730    1183.4973   -7868.4883   -7736.4674    89.836898     30418.27    31.251076 
    7740    1197.9801   -7869.8499   -7736.2135   -167.51363    30436.802    31.343631 
    7750    1214.0454   -7871.3947   -7735.9662   -290.80743    30454.668    31.443648 
    7760    1222.6839   -7872.1483   -7735.7561    38.672611    30471.691    31.547552 
    7770    1230.1399   -7872.8358   -7735.6118    327.12425    30488.425    31.656391 
    7780     1228.786    -7872.608    -7735.535    356.99117    30505.412    31.775665 
    7790    1211.6523   -7870.6844   -7735.5228    270.88498    30522.712    31.909763 
    7800    1183.0969   -7867.5077   -7735.5315      303.751    30540.193    32.048965 
    7810    1189.6312    -7868.222   -7735.5169    310.78552    30557.876    32.174625 
    7820    1208.1835   -7870.2566   -7735.4819    347.31646    30575.774    32.282662 
    7830    1211.8034   -7870.6363   -7735.4578    272.99303    30593.942    32.390152 
    7840    1216.8638   -7871.2011   -7735.4581   -50.675501    30612.198    32.509892 
    7850    1219.0697    -7871.482    -7735.493   -549.31786    30629.895    32.646468 
    7860    1219.3387   -7871.5856   -7735.5665   -890.55207    30646.153    32.791733 
    7870    1228.8115    -7872.775   -7735.6992    -1012.301    30660.341    32.934571 
    7880    1241.6354   -7874.4353    -7735.929   -932.52064     30672.26    33.059701 
    7890    1234.4694   -7874.0025   -7736.2956   -612.18032    30682.151    33.158172 
    7900    1213.9942   -7872.2274   -7736.8046   -446.26003    30690.617     33.22585 
    7910    1205.9576   -7871.9861   -7737.4597   -648.14491    30697.944    33.270074 
    7920    1178.2329    -7869.675   -7738.2413   -750.74787    30703.871    33.312968 
    7930    1183.8235   -7871.2067   -7739.1494    -1055.274    30708.154    33.366491 
    7940    1192.8527   -7873.2624   -7740.1979   -1320.6175    30710.282    33.435625 
    7950    1184.5946   -7873.5383    -7741.395   -1260.2638    30709.851    33.519142 
    7960    1159.0051   -7871.9491   -7742.6604   -1318.6935    30706.958    33.608517 
    7970    1145.6018   -7871.6881   -7743.8945   -1389.5847    30701.583    33.696477 
    7980    1141.4663   -7872.3534   -7745.0211     -1294.27    30693.673    33.777316 
    7990    1145.1616   -7873.7461   -7746.0016   -1227.7789     30683.46    33.843184 
    8000     1136.977    -7873.647   -7746.8155   -1211.6845    30671.125    33.898721 
    8010     1126.995   -7873.1512   -7747.4332   -1119.5472    30656.782    33.950208 
    8020    1140.8872   -7875.1386   -7747.8709   -1142.0188    30640.631    33.996613 
    8030    1140.1825   -7875.3369   -7748.1478   -1012.1314    30622.746    34.042279 
    8040    1153.4842   -7876.9617   -7748.2888   -1089.9963     30603.34    34.086207 
    8050    1175.7711   -7879.4836   -7748.3246   -1178.5998    30582.354    34.124656 
    8060    1190.5592   -7881.1134   -7748.3047   -1088.5714    30559.709    34.156003 
    8070     1195.332   -7881.6118   -7748.2707   -1000.6202    30535.595    34.181585 
    8080    1173.5597   -7879.1265   -7748.2141   -749.36063    30510.281    34.207553 
    8090    1173.2338   -7878.9885   -7748.1125   -608.96924    30484.225    34.243921 
    8100    1192.8466   -7881.0266   -7747.9627   -633.03144    30457.701    34.302599 
    8110    1197.0717   -7881.3266   -7747.7914    -584.0746    30430.747    34.381679 
    8120    1196.4444   -7881.0917   -7747.6265   -822.03621    30403.389    34.466992 
    8130    1192.1224   -7880.4403   -7747.4572   -1261.2564    30375.228    34.556142 
    8140    1178.6333   -7878.7624   -7747.2841   -1562.1835     30345.49    34.646623 
    8150     1153.327   -7875.7164   -7747.0611   -1230.5778    30313.758    34.730177 
    8160    1160.4375   -7876.1922   -7746.7436   -846.50865    30280.613    34.797894 
    8170    1162.7801   -7876.0232   -7746.3133   -622.34466    30246.791     34.85033 
    8180    1153.2461   -7874.4259   -7745.7796   -395.68067    30212.772    34.892474 
    8190    1149.3752   -7873.3366   -7745.1221   -182.74879    30178.993    34.924193 
    8200    1188.2386    -7876.893   -7744.3432   -274.32446    30145.798    34.951051 
    8210    1217.7196   -7879.3359   -7743.4975   -427.46238    30113.042     34.99251 
    8220    1211.2787   -7877.7914   -7742.6714   -542.43147    30080.441    35.052299 
    8230    1214.4412   -7877.3678    -7741.895   -504.77173    30047.796    35.115872 
    8240    1195.2294   -7874.4872   -7741.1576   -23.820412    30015.227    35.175428 
    8250    1160.5743   -7869.9047   -7740.4409    508.26071    29983.543    35.222885 
    8260    1157.6107   -7868.8352    -7739.702    713.91438    29953.645    35.250098 
    8270    1176.2962   -7870.1571   -7738.9395    690.27012     29925.87    35.267193 
    8280     1173.838   -7869.1455   -7738.2021    786.01629    29900.163    35.287515 
    8290    1193.9123   -7870.7205   -7737.5378    1007.9566    29876.622    35.310662 
    8300    1212.7601   -7872.2539   -7736.9687    1416.1477    29855.611     35.33317 
    8310     1214.507   -7872.0177   -7736.5376    1739.3028    29837.752    35.351163 
    8320    1223.2196   -7872.7007   -7736.2487    1741.0473    29823.501    35.362127 
    8330    1217.2926   -7871.8582   -7736.0674    1886.2673    29812.868    35.377324 
    8340    1234.3931   -7873.6789   -7735.9805    2059.2437    29805.978    35.408084 
    8350    1248.7826   -7875.2861   -7735.9825    2273.1081    29803.063    35.454825 
    8360    1257.8078   -7876.4108   -7736.1005    2074.2937    29804.325    35.516098 
    8370    1227.9516   -7873.2917   -7736.3118    1889.6262    29809.392     35.59175 
    8380     1217.264   -7872.3575   -7736.5699    1772.7759    29817.842    35.673324 
    8390    1210.6396   -7871.8876   -7736.8389    1711.4728    29829.399    35.765608 
    8400       1199.1    -7870.868   -7737.1066    1675.9107    29843.906    35.866528 
    8410     1225.068   -7874.0366   -7737.3784    1343.0546    29861.196    35.967189 
    8420    1233.8262   -7875.3272   -7737.6921    1189.5887    29880.691    36.075659 
    8430    1214.9231   -7873.5903   -7738.0638    1200.0556    29902.076    36.190835 
    8440    1217.5844   -7874.2933   -7738.4699    678.10057    29925.223    36.303166 
    8450    1222.7926   -7875.3139   -7738.9095    56.071179    29949.223    36.419094 
    8460     1191.254   -7872.2582    -7739.372    115.24296    29973.056    36.551014 
    8470    1175.1267   -7870.8932   -7739.8061     117.8564    29996.692    36.695664 
[...]
   22890    1168.9883   -7873.8187   -7743.4163    58.700843    29924.477    125.69206 
   22900    1151.6276   -7871.1635   -7742.6977   -136.56284     29935.64    125.72417 
   22910    1146.6177   -7869.8535   -7741.9465   -256.01902    29946.369    125.77988 
   22920    1155.5432   -7870.0582   -7741.1556   -434.67215    29956.415    125.83233 
   22930    1171.3361    -7871.001   -7740.3367   -756.14048    29965.441    125.84736 
   22940     1183.514   -7871.5408    -7739.518   -900.98515    29972.929    125.81855 
   22950    1183.8544     -7870.79   -7738.7293   -703.03552     29978.65    125.78414 
   22960    1153.5188   -7866.6457   -7737.9689    105.89729    29983.083    125.78967 
   22970    1169.0166   -7867.6109   -7737.2053    496.61941    29987.548    125.84409 
   22980    1205.0664   -7870.8515   -7736.4245    640.97958    29992.854     125.9435 
   22990     1227.107   -7872.5807   -7735.6951    846.91872    29999.293    126.09088 
   23000     1226.738   -7871.9158   -7735.0713    1199.0265    30007.244    126.26857 
   23010    1229.0401   -7871.6629   -7734.5616    1513.1618     30017.33    126.46501 
   23020    1244.8026   -7873.0129   -7734.1532    1517.9815    30030.066    126.67274 
   23030    1275.1796   -7876.1192    -7733.871    1422.2108    30045.474    126.88211 
   23040    1272.0101   -7875.6533   -7733.7586    1361.0036     30063.36    127.08242 
   23050    1269.6758   -7875.4571   -7733.8228     1080.289    30083.528    127.28465 
   23060    1262.0123   -7874.8238   -7734.0444    863.72653    30105.514    127.49413 
   23070     1256.142   -7874.5325   -7734.4079    552.53761    30128.852    127.69691 
   23080    1234.0726   -7872.5514   -7734.8887    390.35956    30152.991    127.87766 
   23090    1204.8483   -7869.8412   -7735.4386    433.91372    30177.628    128.03823 
   23100    1191.8693   -7868.9531   -7735.9983     488.6572    30202.836    128.20653 
   23110    1194.3023   -7869.7727   -7736.5465     180.2682    30228.659     128.4082 
   23120    1195.1289   -7870.3914    -7737.073   -191.98539    30254.555    128.63964 
   23130    1207.4971   -7872.2854   -7737.5872   -274.75293    30279.875    128.88096 
   23140    1223.7354   -7874.6396   -7738.1301   -341.63257    30304.407    129.10425 
   23150    1208.9835   -7873.5787   -7738.7148   -183.39472    30328.119    129.29473 
   23160    1181.2537   -7871.0755   -7739.3049   -410.88836    30351.186    129.45835 
   23170    1169.2107    -7870.273   -7739.8458   -670.63987    30373.245    129.60324 
   23180    1172.4567   -7871.1068   -7740.3175   -690.95497    30393.868    129.76253 
   23190    1190.9932   -7873.6001    -7740.743   -878.78047    30412.955    129.96305 
   23200    1191.7743   -7874.0846   -7741.1404   -986.30173    30430.203    130.18401 
   23210    1173.3205   -7872.3992   -7741.5135   -734.78177    30445.486    130.38699 
   23220    1152.4446   -7870.3842   -7741.8273   -516.69811     30459.22    130.55922 
   23230    1153.6913   -7870.7458   -7742.0498   -503.69041    30471.817    130.69818 
   23240    1164.1447   -7872.0453   -7742.1832   -346.15706    30483.384    130.81559 
   23250    1167.8459   -7872.5122   -7742.2372   -172.18259    30494.198    130.92198 
   23260    1179.9619   -7873.8524   -7742.2259    -179.3912    30504.568    131.02258 
   23270    1196.8068   -7875.6748   -7742.1692   -231.12058     30514.51    131.12521 
   23280    1207.8692   -7876.8384   -7742.0988   -170.84632    30523.972    131.23936 
   23290    1189.9373   -7874.7708   -7742.0315    38.708866     30533.08    131.37166 
   23300    1175.1909   -7873.0285   -7741.9342  -0.48498494    30542.167     131.4892 
   23310    1179.6044   -7873.3542   -7741.7676   -196.95103    30551.187    131.59183 
   23320    1187.2076   -7873.9512   -7741.5164    -387.6084     30559.79    131.70884 
   23330    1201.3901   -7875.1977   -7741.1808   -799.44441    30567.557    131.85322 
   23340    1207.0107   -7875.4135   -7740.7696    -1249.826    30573.725    132.01126 
   23350    1198.3395   -7873.9574   -7740.2808   -1576.4401    30577.457    132.14874 
   23360    1191.6845   -7872.6217   -7739.6875   -1711.1906     30578.14    132.26364 
   23370    1187.4842   -7871.4203   -7738.9547   -1692.2528    30575.506    132.36046 
   23380    1185.3328   -7870.2868   -7738.0612   -1504.3477    30569.618    132.42443 
   23390    1185.8492    -7869.279   -7736.9957   -1134.1797    30560.877    132.46525 
   23400    1212.4731   -7871.0528   -7735.7996   -1029.3517    30549.907    132.50794 
   23410    1233.1138   -7872.1124   -7734.5567   -1003.5683    30536.973    132.56468 
   23420    1210.4729   -7868.4069   -7733.3769   -709.97116    30522.205    132.61233 
   23430     1189.775   -7865.0158   -7732.2946   -402.43952    30506.143    132.63229 
   23440    1214.7304   -7866.7851   -7731.2801   -420.73026    30489.315     132.6303 
   23450    1226.6918    -7867.197   -7730.3577   -174.03402    30471.816    132.62455 
   23460    1235.0032   -7867.3442   -7729.5777    70.116892    30454.037     132.6117 
   23470     1250.198   -7868.4143   -7728.9529     199.4198    30436.437    132.57357 
   23480    1243.5301   -7867.2063   -7728.4886    409.46296    30419.304    132.51298 
   23490    1255.7051   -7868.2529   -7728.1771     303.5534    30402.976    132.45402 
   23500    1263.1805   -7868.9214   -7728.0118    127.16606    30387.309    132.41239 
   23510    1256.5809   -7868.1654    -7727.992    367.77746    30372.043    132.39411 
   23520    1247.3707   -7867.2419   -7728.0958    722.06515    30357.557    132.39986 
   23530    1231.6872   -7865.7008   -7728.3043     683.7672    30344.448     132.4429 
   23540    1214.3965   -7864.0418   -7728.5741    328.39811    30332.672    132.53264 
   23550    1234.4295   -7866.5956   -7728.8931   -131.11994     30321.54    132.64245 
   23560    1237.1747    -7867.288   -7729.2793    -275.5018    30310.245    132.74883 
   23570    1204.4799   -7864.0863   -7729.7248    62.581189     30298.54    132.83988 
   23580    1197.7033   -7863.7818   -7730.1762    431.18664    30287.007    132.90939 
   23590    1222.6849   -7867.0281   -7730.6358    564.72102    30276.289    132.95824 
   23600    1235.3224   -7868.9583   -7731.1562    776.52022    30266.729    132.98822 
   23610    1235.2342   -7869.5414   -7731.7492    703.70759    30258.647    132.99949 
   23620    1237.0011   -7870.4132   -7732.4239    464.00738    30251.921    132.99436 
   23630    1228.2563   -7870.1854   -7733.1715    294.60056    30246.133    132.98645 
   23640    1218.3859   -7869.8765   -7733.9637    325.73271     30240.98    132.97343 
   23650    1221.3159   -7871.0128   -7734.7732    585.91357    30236.517    132.95249 
   23660    1235.8191   -7873.4547   -7735.5972    741.40271    30233.157    132.91278 
   23670    1242.9288   -7875.1099   -7736.4593    977.90256     30231.25    132.86321 
   23680    1227.7206   -7874.2885   -7737.3344     1176.075    30231.215    132.83761 
   23690    1214.9271   -7873.7116   -7738.1847    1061.8863    30233.378    132.85697 
   23700    1192.9759   -7872.0205   -7738.9422    946.62359    30237.598    132.91592 
   23710    1185.5281     -7871.83   -7739.5826     800.8748    30243.618    133.00717 
   23720    1164.2772   -7869.9437   -7740.0669     778.4362    30251.194    133.11684 
   23730    1173.8173   -7871.3554   -7740.4143    618.90638    30260.226    133.21901 
   23740    1189.9622   -7873.3927   -7740.6506    366.38744    30270.419    133.31596 
   23750    1210.5661   -7875.8717   -7740.8312    319.91099    30281.337    133.43626 
   23760    1215.8844   -7876.6339   -7741.0002    506.81121    30292.904    133.58493 
   23770    1210.5529   -7876.2217   -7741.1827    583.09712    30305.418    133.74277 
   23780    1191.8939   -7874.3143   -7741.3567    565.10562    30319.041    133.89593 
   23790    1186.0378   -7873.8028   -7741.4985    514.48232    30333.748    134.04195 
   23800      1188.91   -7874.2208   -7741.5961    545.31232    30349.472    134.18786 
   23810    1193.4486   -7874.7954   -7741.6644    431.19412    30366.227    134.33386 
   23820    1178.9094    -7873.228   -7741.7189    219.39482    30383.784    134.48078 
   23830    1123.4797   -7867.0284   -7741.7026    472.40174    30401.861    134.63485 
   23840    1141.2069   -7868.8697   -7741.5663    398.37629    30420.778    134.80024 
   23850    1187.4759   -7873.7712   -7741.3064    328.07391    30440.475    134.98305 
   23860    1185.3375   -7873.2258   -7740.9996    583.94226    30460.867    135.18034 
   23870    1197.8329   -7874.3016   -7740.6815    566.39706    30482.335    135.36401 
   23880    1218.1979   -7876.2501   -7740.3583     504.6834    30504.908    135.52107 
   23890    1231.7556   -7877.4768   -7740.0726     534.8609     30528.51    135.65778 
   23900    1249.6902   -7879.2711   -7739.8663     332.9686    30553.127    135.79525 
   23910    1233.0333   -7877.2985   -7739.7518     333.0633     30578.48    135.96615 
   23920    1243.4178   -7878.4402   -7739.7351    184.16798    30604.494    136.19158 
   23930    1245.1842   -7878.7092   -7739.8071     118.9968    30630.929     136.4669 
   23940    1242.3446   -7878.5726   -7739.9872   -1.0910053    30657.622    136.74579 
   23950    1231.5317   -7877.6449   -7740.2657    -91.31894    30684.359    136.98972 
   23960    1224.0534   -7877.1835   -7740.6385   -138.84334    30710.937    137.17879 
   23970     1206.732   -7875.6981   -7741.0853   -67.952955    30737.296    137.33426 
   23980    1190.1682   -7874.3478   -7741.5828   -216.60079    30763.514    137.49841 
   23990    1179.4486   -7873.6652   -7742.0959   -536.53054     30789.32    137.68979 
   24000    1164.7692   -7872.5353   -7742.6035   -574.40981    30814.168    137.90251 
   24010    1160.2316    -7872.517   -7743.0915    -712.1261    30837.884    138.12257 
   24020    1164.2734    -7873.425   -7743.5485   -866.80125    30860.231    138.33127 
   24030    1176.7225   -7875.2623   -7743.9971   -1220.2027    30880.839    138.51151 
   24040    1167.1611   -7874.6512   -7744.4526   -1336.1235    30899.093    138.65412 
   24050    1142.9419   -7872.3981   -7744.9012   -1098.8203    30914.773    138.76507 
   24060    1141.7731   -7872.6715    -7745.305   -1087.0223    30928.237    138.86187 
   24070    1155.8164   -7874.5915   -7745.6584   -1229.6736    30939.542    138.95378 
   24080    1161.8632   -7875.5929   -7745.9854   -1358.6638     30948.41    139.05762 
   24090    1148.4369   -7874.3924   -7746.2825   -1480.8657    30954.585    139.18072 
   24100     1140.123   -7873.7099   -7746.5275   -1586.1597     30957.82    139.29382 
   24110    1137.3989   -7873.5636   -7746.6851    -1412.337    30957.939    139.37499 
   24120    1147.6489   -7874.7558   -7746.7338   -1165.7089    30955.234     139.4157 
   24130    1155.4988    -7875.564   -7746.6664   -1006.7331    30950.162    139.41458 
   24140    1156.2083   -7875.4519   -7746.4751   -912.11612    30943.054    139.38536 
   24150    1171.5895   -7876.8506    -7746.158   -976.36722     30934.07    139.34009 
   24160    1166.7034   -7875.8645   -7745.7169   -929.34309    30923.119    139.28584 
   24170    1169.9763   -7875.6643   -7745.1517   -895.19137    30910.269     139.2282 
   24180    1186.1354   -7876.7728   -7744.4576   -970.46651    30895.561    139.18081 
   24190    1181.5546   -7875.4717   -7743.6675   -870.51885    30878.874    139.17546 
   24200    1176.5207   -7874.0458   -7742.8032   -878.21954    30860.362    139.21993 
   24210    1168.4201   -7872.2039   -7741.8649   -1106.9255    30839.995    139.26724 
   24220    1161.2511   -7870.4104   -7740.8711   -1280.5676    30817.343    139.27171 
   24230    1174.2985   -7870.8241   -7739.8293   -1282.5971    30792.088    139.22761 
   24240    1199.8731   -7872.6229   -7738.7752   -1182.0829    30764.196    139.14952 
   24250    1204.8229   -7872.1797   -7737.7799    -869.9893    30733.885    139.04988 
   24260    1203.3962   -7871.1213   -7736.8807   -362.20671    30701.769    138.93138 
   24270    1212.4008   -7871.3142    -7736.069    218.93693    30668.826    138.80303 
   24280     1226.555   -7872.1798   -7735.3558    519.03169    30636.117    138.68906 
   24290    1222.8477   -7871.1627   -7734.7522    651.92041    30604.276    138.60675 
   24300    1225.6027   -7870.9779   -7734.2601    475.17396     30573.51    138.54711 
   24310    1220.9764   -7870.0616   -7733.8599    469.65614    30543.593    138.49326 
   24320    1212.0638    -7868.741   -7733.5334    551.41234     30514.49    138.44491 
   24330     1218.848   -7869.2206   -7733.2563    621.58796    30486.335    138.38987 
   24340    1234.3563   -7870.7258   -7733.0315    664.14122    30459.272    138.32203 
   24350    1242.0025   -7871.4284   -7732.8812    773.24435    30433.413    138.27437 
   24360    1254.4271   -7872.7714   -7732.8382     785.8855     30408.92     138.2797 
   24370    1240.9014   -7871.3306   -7732.9062    893.07205     30385.86    138.31582 
   24380    1231.2367   -7870.4203    -7733.074    945.03665    30364.402    138.32928 
   24390    1211.2253   -7868.4201   -7733.3061    1182.7901    30344.712    138.28687 
   24400    1208.7493   -7868.4072   -7733.5694    1278.2406    30327.171    138.17346 
   24410    1220.5581    -7870.029   -7733.8739    1231.8108    30311.989    138.03297 
   24420    1197.0452   -7867.7503   -7734.2181    1231.2101    30299.121    137.92327 
   24430    1192.9658   -7867.6553   -7734.5782    969.74917    30288.509      137.847 
   24440    1194.8174   -7868.2262   -7734.9425    740.69656    30279.714    137.78867 
   24450    1186.3862   -7867.6424   -7735.2992    597.07249    30272.309    137.75483 
   24460    1205.8941   -7870.1825   -7735.6632    301.56585     30265.97    137.74449 
   24470    1219.0004   -7872.0369   -7736.0556    358.87797    30260.253    137.73704 
   24480    1231.2563   -7873.8765    -7736.528    560.18533    30255.212    137.73379 
   24490    1222.8348   -7873.4977   -7737.0887    965.85969    30251.269    137.75666 
   24500    1216.2613   -7873.4187   -7737.7429    995.19865    30249.076    137.82535 
   24510    1225.5754   -7875.2024   -7738.4876    857.28612    30248.774     137.9468 
   24520    1231.1862   -7876.6833   -7739.3426    783.39246    30250.149    138.09955 
   24530    1229.5234   -7877.4786   -7740.3234      715.472    30253.045    138.26685 
   24540    1192.9556   -7874.4418   -7741.3658    858.95559     30257.42    138.44649 
   24550    1169.3422    -7872.824   -7742.3822    535.70361    30263.408    138.61318 
   24560     1144.633   -7870.9597   -7743.2741    90.289249    30270.492    138.73266 
   24570    1153.4012   -7872.6726    -7744.009   -378.60021    30277.822    138.78675 
   24580    1171.7064   -7875.3112   -7744.6056   -516.50114     30284.57    138.76984 
   24590    1170.0737   -7875.6154   -7745.0919   -362.58492    30290.451    138.70665 
   24600    1162.4788   -7875.1462   -7745.4699   -104.75112    30295.717    138.63321 
   24610    1163.7811   -7875.5595    -7745.738    274.50501    30300.867    138.57539 
   24620    1170.2269   -7876.4527   -7745.9121    416.50944     30306.58      138.555 
   24630      1157.77   -7875.1504   -7745.9994    350.89006    30313.158    138.56425 
   24640    1161.8849   -7875.6067   -7745.9967    131.97017    30320.476    138.57316 
   24650    1199.3371   -7879.7137   -7745.9258   -63.053268    30328.156    138.58102 
   24660    1230.4444   -7883.1169    -7745.859   -200.08938    30335.843    138.60813 
   24670    1224.7351   -7882.4817   -7745.8607   -340.34191    30343.239    138.64951 
   24680    1178.9941   -7877.4184   -7745.8998   -98.046364    30350.165    138.69546 
   24690    1172.9485   -7876.7523   -7745.9081    18.541591    30356.988    138.74562 
   24700    1208.9186   -7880.7377    -7745.881   -98.330918    30363.909    138.80381 
   24710    1210.8519    -7880.932   -7745.8596    63.686703     30370.82      138.871 
   24720    1203.2045   -7880.0869   -7745.8676    97.325954    30377.944    138.95166 
   24730    1184.2669   -7877.9833   -7745.8766    6.8047274    30385.371    139.04666 
   24740    1166.9527   -7876.0301   -7745.8548   -4.1601648     30392.95    139.14252 
   24750     1165.049   -7875.7344   -7745.7714    -130.4977    30400.614    139.24461 
   24760    1166.5364   -7875.7488   -7745.6199   -385.92477    30408.116    139.36012 
   24770    1177.1863   -7876.7241   -7745.4072   -454.89578    30415.011     139.4798 
   24780    1209.4903     -7880.09   -7745.1695   -284.40697    30421.166    139.58672 
   24790    1223.1489   -7881.4124   -7744.9683    127.49094    30426.903    139.67782 
   24800    1214.3379   -7880.3011   -7744.8399    459.89872    30432.969    139.77327 
   24810     1186.873   -7877.1472   -7744.7498    676.81597    30440.025    139.86689 
   24820     1183.334   -7876.6555   -7744.6528      642.424    30448.472    139.94206 
   24830    1192.0269   -7877.5027   -7744.5303    356.03347    30458.256    140.01841 
   24840    1189.5262   -7877.0911   -7744.3977    256.67833    30468.928    140.11804 
   24850    1194.4054   -7877.5015   -7744.2638    152.63693    30480.263    140.22964 
   24860     1196.506   -7877.6038   -7744.1317    55.694966    30492.062    140.33548 
   24870    1192.6008   -7877.0384    -7744.002    209.75251    30504.191    140.44533 
   24880    1188.6545   -7876.4649   -7743.8687    439.13939     30516.91    140.57443 
   24890    1171.3761   -7874.3694   -7743.7006     842.3091    30530.721    140.71895 
   24900    1169.7279    -7873.974   -7743.4891    1154.1451    30546.342    140.86113 
   24910    1160.8593   -7872.7195   -7743.2239    1433.2687    30564.438    140.98425 
   24920    1172.2961   -7873.6886   -7742.9172    1340.5339    30585.539    141.08432 
   24930    1188.3001    -7875.138   -7742.5814    994.38119    30609.511    141.16968 
   24940    1185.8009   -7874.5154   -7742.2375     777.4448    30635.779    141.26294 
   24950     1174.076   -7872.8604   -7741.8904    607.60234    30663.911     141.4052 
   24960    1160.5586   -7870.9846   -7741.5226    682.41758     30693.64    141.62326 
   24970    1174.8532   -7872.1722   -7741.1155    633.02751     30725.04    141.89328 
   24980    1179.0266   -7872.1958   -7740.6736    698.63949     30758.07    142.17582 
   24990    1178.0843   -7871.6468   -7740.2297    689.80061     30792.81    142.44394 
   25000    1185.8389   -7872.0662   -7739.7841    527.54765    30829.228    142.68135 
Loop time of 15828.9 on 16 procs for 20000 steps with 864 atoms

Performance: 0.109 ns/day, 219.845 hours/ns, 1.264 timesteps/s
98.4% CPU use with 16 MPI tasks x 1 OpenMP threads

MPI task timing breakdown:
Section |  min time  |  avg time  |  max time  |%varavg| %total
---------------------------------------------------------------
Pair    | 14416      | 14901      | 15332      | 238.9 | 94.14
Bond    | 0.00193    | 0.0062127  | 0.014319   |   3.8 |  0.00
Neigh   | 0.20962    | 0.2237     | 0.23372    |   1.5 |  0.00
Comm    | 374.71     | 791.36     | 1290.7     | 994.7 |  5.00
Output  | 1.2661     | 1.2957     | 1.7312     |   9.9 |  0.01
Modify  | 76.524     | 135.3      | 211.07     | 451.2 |  0.85
Other   |            | 0.1055     |            |       |  0.00

Nlocal:        54.0000 ave          61 max          48 min
Histogram: 1 0 2 6 1 2 1 1 0 2
Nghost:        387.500 ave         409 max         354 min
Histogram: 1 1 0 1 2 2 1 3 4 1
Neighs:         0.00000 ave           0 max           0 min
Histogram: 16 0 0 0 0 0 0 0 0 0
FullNghs:      1475.62 ave        1752 max        1244 min
Histogram: 1 1 4 1 3 2 1 1 0 2

Total # of neighbors = 23610
Ave neighs/atom = 27.326389
Ave special neighs/atom = 0.0000000
Neighbor list builds = 2000
Dangerous builds = 2000
unfix   3
                
Total wall time: 5:29:25
