LAMMPS (29 Sep 2021 - Update 3)
OMP_NUM_THREADS environment is not set. Defaulting to 1 thread. (src/comm.cpp:98)
  using 1 OpenMP thread(s) per MPI task
Reading data file ...
  orthogonal box = (0.0000000 0.0000000 0.0000000) to (15.969932 15.719106 81.083077)
  2 by 1 by 8 MPI processor grid
  reading atoms ...
  864 atoms
Finding 1-2 1-3 1-4 neighbors ...
  special bond factors lj:    0        0        0       
  special bond factors coul:  0        0        0       
     0 = max # of 1-2 neighbors
     0 = max # of 1-3 neighbors
     0 = max # of 1-4 neighbors
     1 = max # of special neighbors
  special bonds CPU = 0.004 seconds
  read_data CPU = 0.044 seconds
Neighbor list info ...
  update every 1 steps, delay 10 steps, check yes
  max neighbors/atom: 2000, page size: 100000
  master list distance cutoff = 6.22
  ghost atom cutoff = 6.22
  binsize = 3.11, bins = 6 6 27
  1 neighbor lists, perpetual/occasional/extra = 1 0 0
  (1) pair quip, perpetual
      attributes: full, newton on
      pair build: full/bin
      stencil: full/bin/3d
      bin: standard
Setting up Verlet run ...
  Unit style    : metal
  Current step  : 0
  Time step     : 0.001
Per MPI rank memory allocation (min/avg/max) = 8.888 | 8.903 | 8.913 Mbytes
Step Temp PotEng TotEng Press Volume c_msd[4] 
       0            0   -6930.8241   -6930.8241   -4495.9065    20354.533            0 
      10    65.904237   -6938.1841   -6930.8324   -5379.5912    20354.533 0.0005000384 
      20    168.73131   -6949.6632    -6930.841   -6364.5261    20354.533 0.0061479459 
      30    200.57733   -6953.2127    -6930.838   -5696.6671    20354.533  0.020662009 
      40    199.55606   -6953.0935   -6930.8327   -4580.1506    20354.533   0.03833664 
      50    226.88579   -6956.1474   -6930.8379   -4419.7801    20354.533  0.051806208 
      60    238.47957   -6957.4392   -6930.8365   -4645.7272    20354.533  0.061424452 
      70    236.06355   -6957.1692   -6930.8359    -4807.043    20354.533  0.069853138 
      80    232.99362   -6956.8259   -6930.8351    -5036.908    20354.533  0.079308594 
      90    234.23747   -6956.9654   -6930.8358   -5260.6038    20354.533  0.090830495 
     100    232.00556   -6956.7159   -6930.8353   -5208.0306    20354.533   0.10432197 
     110    232.79067   -6956.8033   -6930.8352   -5031.3164    20354.533   0.11840709 
     120    238.30149    -6957.419   -6930.8361   -4942.2097    20354.533   0.13201584 
     130    238.74514   -6957.4687   -6930.8363   -4988.8033    20354.533   0.14538478 
     140    232.54984   -6956.7771   -6930.8358   -4942.4536    20354.533   0.15867927 
     150    225.40044   -6955.9792   -6930.8355   -4787.8719    20354.533   0.17110203 
     160    224.38726   -6955.8659   -6930.8352   -4620.0724    20354.533    0.1817825 
     170    231.86358   -6956.7009   -6930.8362   -4442.3359    20354.533   0.19072597 
     180    237.58036   -6957.3391   -6930.8366   -4192.2572    20354.533   0.19889867 
     190    235.69365   -6957.1279    -6930.836   -3927.7806    20354.533   0.20710191 
     200    234.44619   -6956.9885   -6930.8356   -3773.8119    20354.533   0.21513007 
     210    236.73114   -6957.2437    -6930.836   -3777.5502    20354.533   0.22305549 
     220    238.14425   -6957.4012   -6930.8359   -3899.9101    20354.533    0.2315521 
     230     238.4388   -6957.4341   -6930.8359   -4006.5782    20354.533   0.24098695 
     240    239.23886    -6957.523   -6930.8356   -3984.7528    20354.533   0.25141959 
     250     242.0724   -6957.8401   -6930.8366   -3793.3442    20354.533   0.26265129 
     260       239.05   -6957.5024    -6930.836   -3540.3897    20354.533   0.27417391 
     270    235.84511    -6957.145   -6930.8361   -3272.6541    20354.533   0.28493922 
     280    231.62838   -6956.6748   -6930.8363   -2948.2435    20354.533   0.29437431 
     290    226.51317   -6956.1028    -6930.835   -2633.8875    20354.533   0.30220439 
     300    232.88912   -6956.8151    -6930.836   -2478.1682    20354.533   0.30835486 
     310    239.65399   -6957.5709   -6930.8371   -2317.7128    20354.533   0.31386348 
     320    236.98534   -6957.2718   -6930.8357   -2020.1819    20354.533   0.31985126 
     330    235.73864   -6957.1329   -6930.8359   -1957.4113    20354.533   0.32664959 
     340    236.09186   -6957.1723   -6930.8359   -2003.6376    20354.533   0.33435107 
     350    237.19352   -6957.2955   -6930.8363   -2145.8328    20354.533   0.34289663 
     360     235.6501   -6957.1226   -6930.8355   -2186.0282    20354.533   0.35153924 
     370      237.245   -6957.3009   -6930.8359   -2246.4379    20354.533   0.35886165 
     380     239.0727   -6957.5047   -6930.8358   -2396.5837    20354.533   0.36451066 
     390    241.64207   -6957.7913   -6930.8358   -2701.0958    20354.533   0.36907283 
     400    244.68963   -6958.1321   -6930.8366    -3058.184    20354.533   0.37340775 
     410    240.84575   -6957.7024   -6930.8357   -3233.9135    20354.533   0.37836011 
     420    237.91038    -6957.375   -6930.8357   -3296.1667    20354.533    0.3837999 
     430    237.53548   -6957.3335    -6930.836     -3297.92    20354.533   0.38923076 
     440    236.65311   -6957.2351   -6930.8361   -3132.9159    20354.533   0.39408345 
     450    236.54722   -6957.2227   -6930.8355   -2838.3736    20354.533   0.39819744 
     460    240.22636   -6957.6339   -6930.8363   -2750.9298    20354.533   0.40204023 
     470    240.52465   -6957.6669    -6930.836   -2995.4918    20354.533   0.40599969 
     480    237.66852   -6957.3482   -6930.8359   -3342.9489    20354.533   0.40967234 
     490     233.8587   -6956.9231   -6930.8358   -3484.3142    20354.533   0.41268728 
     500    232.08796   -6956.7258   -6930.8361   -3205.4816    20354.533   0.41521326 
     510    230.70203   -6956.5715   -6930.8364   -2716.5526    20354.533   0.41731564 
     520    228.05602   -6956.2759   -6930.8359   -2363.5724    20354.533   0.41870774 
     530    227.97164    -6956.267   -6930.8365   -2215.6832    20354.533   0.41939371 
     540    224.82248   -6955.9152   -6930.8359   -2142.5726    20354.533   0.41965215 
     550    224.12424   -6955.8368   -6930.8354   -2230.4398    20354.533   0.41896539 
     560    230.14975   -6956.5094   -6930.8358   -2549.6413    20354.533   0.41694428 
     570    236.18881   -6957.1833   -6930.8361   -2919.3179    20354.533   0.41431605 
     580    239.11248   -6957.5092   -6930.8358   -3311.7801    20354.533   0.41218239 
     590    240.41038    -6957.654   -6930.8359   -3417.9605    20354.533   0.41128732 
     600     241.9108   -6957.8213   -6930.8358   -3319.9933    20354.533   0.41181297 
     610    244.71998   -6958.1355   -6930.8366   -3218.6172    20354.533   0.41378595 
     620     241.0794   -6957.7291   -6930.8363   -3147.9995    20354.533   0.41727735 
     630    235.50013   -6957.1059   -6930.8355   -3135.0665    20354.533   0.42154918 
     640    235.11112   -6957.0634   -6930.8364   -3257.6948    20354.533   0.42544554 
     650    231.17765   -6956.6238   -6930.8356   -3363.2824    20354.533   0.42831027 
     660    230.96587      -6956.6   -6930.8354    -3278.616    20354.533   0.42962018 
     670    236.71051   -6957.2418   -6930.8364   -3057.6575    20354.533   0.43008462 
     680    237.89077   -6957.3735   -6930.8365   -2729.6334    20354.533   0.43147958 
     690    233.77068   -6956.9134    -6930.836   -2455.8007    20354.533   0.43467882 
     700    232.73214   -6956.7972   -6930.8356   -2458.1317    20354.533   0.43896836 
     710     238.6713   -6957.4612    -6930.837     -2772.14    20354.533   0.44306523 
     720    238.40713   -6957.4307    -6930.836    -2807.083    20354.533   0.44626276 
     730     240.4682   -6957.6606    -6930.836   -2649.5036    20354.533   0.44805059 
     740    245.36669   -6958.2082   -6930.8372   -2598.8991    20354.533   0.44927166 
     750    241.62154   -6957.7892    -6930.836   -2531.0184    20354.533   0.45180545 
     760    240.83361   -6957.7015   -6930.8361   -2663.8574    20354.533   0.45609454 
     770    242.81641   -6957.9232   -6930.8366   -2904.7405    20354.533   0.46149917 
     780    240.55873   -6957.6716   -6930.8369   -3011.4883    20354.533   0.46731331 
     790    234.48344    -6956.992    -6930.835   -2984.9723    20354.533   0.47270083 
     800    241.36903   -6957.7616   -6930.8365   -3043.6074    20354.533   0.47702973 
     810    248.02611   -6958.5044   -6930.8367   -3212.7271    20354.533   0.48113406 
     820    247.07524   -6958.3983   -6930.8367   -3298.0857    20354.533   0.48604281 
     830    241.62282   -6957.7892   -6930.8358   -3451.0521    20354.533   0.49200069 
     840    241.09937   -6957.7309   -6930.8359   -3767.5583    20354.533    0.4980224 
     850    243.86884   -6958.0407   -6930.8367   -3969.0277    20354.533   0.50315689 
     860    240.67295   -6957.6839   -6930.8364   -3878.9651    20354.533   0.50749313 
     870    234.88256   -6957.0377   -6930.8362   -3705.4216    20354.533   0.51123394 
     880     230.9712   -6956.6008   -6930.8356   -3732.8653    20354.533   0.51418617 
     890    234.71187   -6957.0191   -6930.8366   -3903.3458    20354.533   0.51649556 
     900    236.69755   -6957.2408   -6930.8368   -4096.5729    20354.533   0.51925856 
     910    234.14135   -6956.9543   -6930.8355   -4214.9524    20354.533   0.52270274 
     920     239.2214   -6957.5215    -6930.836    -4371.806    20354.533    0.5260843 
     930    246.23434   -6958.3046   -6930.8368   -4388.3174    20354.533   0.52947161 
     940    244.93011   -6958.1585   -6930.8361    -4140.633    20354.533    0.5331014 
     950    244.54566   -6958.1146   -6930.8351   -3874.4856    20354.533   0.53608506 
     960     253.5944   -6959.1267   -6930.8378   -3771.8165    20354.533   0.53803089 
     970     248.3829   -6958.5442   -6930.8367   -3524.3442    20354.533   0.53986141 
     980    238.35135   -6957.4243   -6930.8358   -3260.4338    20354.533   0.54101785 
     990    236.50322   -6957.2181   -6930.8358   -3175.8957    20354.533   0.54134372 
    1000    241.19481   -6957.7423   -6930.8367   -3304.4267    20354.533   0.54225539 
    1010    241.95562   -6957.8272   -6930.8367   -3391.2596    20354.533   0.54502288 
    1020    240.16869   -6957.6269   -6930.8357   -3447.0496    20354.533   0.54930268 
    1030    245.53617   -6958.2267   -6930.8368   -3456.4918    20354.533   0.55419445 
    1040    247.77076    -6958.476   -6930.8368   -3298.5887    20354.533   0.55950896 
    1050     244.2442   -6958.0816   -6930.8358   -3136.4369    20354.533   0.56417367 
    1060    244.98518   -6958.1647   -6930.8363    -3248.508    20354.533   0.56688242 
    1070    245.91228   -6958.2687   -6930.8368   -3519.1406    20354.533   0.56812185 
    1080    243.86214    -6958.039   -6930.8358   -3692.2455    20354.533   0.56934968 
    1090    246.84293   -6958.3726   -6930.8369   -3906.5524    20354.533   0.57178329 
    1100      244.881   -6958.1533   -6930.8365   -4089.2355    20354.533   0.57651628 
    1110    240.43499   -6957.6569    -6930.836   -4077.0823    20354.533    0.5832495 
    1120    237.92872   -6957.3775   -6930.8362   -4003.4461    20354.533   0.59023617 
    1130    236.51172   -6957.2189   -6930.8357   -4042.4172    20354.533   0.59550452 
    1140    238.96444   -6957.4936   -6930.8368   -4040.0227    20354.533   0.59831056 
    1150    235.78148   -6957.1379   -6930.8361   -3879.2914    20354.533   0.59921996 
    1160    234.20341   -6956.9615   -6930.8358   -3837.8249    20354.533    0.5985221 
    1170    240.41902   -6957.6544   -6930.8353    -3935.141    20354.533   0.59722217 
    1180    255.54411   -6959.3435   -6930.8372     -4092.55    20354.533   0.59743217 
    1190    258.99242   -6959.7285   -6930.8375   -4046.2257    20354.533    0.6011544 
    1200    248.88394   -6958.5986   -6930.8352   -3714.2841    20354.533   0.60762836 
    1210    248.47025   -6958.5542    -6930.837   -3470.6197    20354.533   0.61448368 
    1220    244.95446   -6958.1613   -6930.8363   -3177.7538    20354.533   0.62050251 
    1230     241.8534   -6957.8153   -6930.8362   -3046.6572    20354.533   0.62473384 
    1240    239.93171   -6957.6017    -6930.837   -2953.8402    20354.533   0.62763822 
    1250    233.26136   -6956.8559   -6930.8352   -2777.3686    20354.533   0.63038166 
    1260    237.93988   -6957.3787   -6930.8361   -2775.1391    20354.533    0.6330371 
    1270    246.35675   -6958.3182   -6930.8368   -2888.4422    20354.533   0.63643977 
    1280    248.45813   -6958.5525   -6930.8366   -2920.0425    20354.533   0.64183599 
    1290    245.47675   -6958.2198   -6930.8365   -2685.1116    20354.533   0.64908358 
    1300    241.63357   -6957.7906    -6930.836   -2354.7632    20354.533   0.65669456 
    1310    242.43427   -6957.8804   -6930.8365   -2080.8148    20354.533   0.66291632 
    1320    245.28186   -6958.1979   -6930.8364   -1915.3295    20354.533    0.6669735 
    1330    248.60459   -6958.5691   -6930.8369   -2012.6907    20354.533   0.66938419 
    1340    247.35187   -6958.4291   -6930.8367   -2148.5782    20354.533   0.67162517 
    1350    244.12194   -6958.0683   -6930.8361   -1975.6824    20354.533   0.67460298 
    1360    246.17117   -6958.2975   -6930.8367   -1695.7314    20354.533   0.67795806 
    1370    247.81913   -6958.4815   -6930.8369   -1406.6961    20354.533   0.68155459 
    1380    246.54204   -6958.3387   -6930.8366   -1365.9532    20354.533   0.68550067 
    1390    245.37096   -6958.2083   -6930.8368   -1609.7263    20354.533   0.68946972 
    1400    243.36629   -6957.9841   -6930.8362   -2040.6718    20354.533   0.69316197 
    1410    243.94371   -6958.0489   -6930.8367    -2492.182    20354.533   0.69632692 
    1420    241.91407   -6957.8222   -6930.8364   -2641.5513    20354.533   0.69908731 
    1430    240.29252    -6957.641   -6930.8361   -2738.6597    20354.533   0.70169952 
    1440    243.00906   -6957.9446   -6930.8366   -2920.7186    20354.533   0.70454594 
    1450    244.25454   -6958.0838   -6930.8369   -3048.4377    20354.533   0.70795341 
    1460    242.09952    -6957.843   -6930.8364   -2976.5792    20354.533   0.71130224 
    1470    243.45842   -6957.9943   -6930.8362   -3081.8274    20354.533    0.7132231 
    1480    250.70065   -6958.8033   -6930.8373   -3338.8349    20354.533   0.71370178 
    1490    252.18388   -6958.9685    -6930.837   -3376.1382    20354.533    0.7144344 
    1500    251.43885   -6958.8853   -6930.8369   -3315.8008    20354.533   0.71637247 
    1510    251.24938    -6958.864   -6930.8368   -3301.7557    20354.533   0.71942223 
    1520    249.70733   -6958.6922    -6930.837   -3282.0336    20354.533   0.72323431 
    1530    244.44696   -6958.1054    -6930.837   -3302.2244    20354.533   0.72763008 
    1540    236.75683   -6957.2464   -6930.8358   -3274.9713    20354.533    0.7323608 
    1550    237.57971   -6957.3389   -6930.8365   -3428.4116    20354.533   0.73683196 
    1560    241.15015   -6957.7371   -6930.8364   -3593.4236    20354.533   0.74115804 
    1570    245.97302   -6958.2754   -6930.8368   -3733.6516    20354.533   0.74547586 
    1580    248.38573   -6958.5448    -6930.837   -3697.1233    20354.533   0.74963233 
    1590    246.86432   -6958.3746   -6930.8366   -3466.8015    20354.533   0.75351214 
    1600     247.7118   -6958.4687    -6930.836   -3388.9239    20354.533   0.75677589 
    1610    253.82537   -6959.1519   -6930.8373    -3531.034    20354.533   0.75955216 
    1620    251.92871   -6958.9401   -6930.8371   -3648.0728    20354.533   0.76294914 
    1630    244.66821   -6958.1291    -6930.836   -3657.5504    20354.533   0.76703359 
    1640    244.28177   -6958.0866   -6930.8366   -3671.0399    20354.533   0.77099433 
    1650    244.83575   -6958.1483   -6930.8365   -3788.3144    20354.533   0.77508445 
    1660    246.40424   -6958.3232   -6930.8364    -3813.853    20354.533   0.77989624 
    1670     250.2724    -6958.755   -6930.8367   -3565.9239    20354.533   0.78529205 
    1680    252.16532   -6958.9666   -6930.8372   -3320.4462    20354.533   0.79034429 
    1690    248.06278   -6958.5083   -6930.8366    -3241.467    20354.533   0.79410211 
    1700    246.18953   -6958.2989   -6930.8361   -3435.3007    20354.533   0.79613512 
    1710    251.37963   -6958.8788   -6930.8371   -3765.1983    20354.533   0.79697816 
    1720    252.49637   -6959.0036   -6930.8373   -4015.6546    20354.533   0.79809077 
    1730    246.19105   -6958.2991   -6930.8361   -4012.8085    20354.533   0.80001418 
    1740    244.72061   -6958.1349   -6930.8359   -3836.2711    20354.533   0.80174398 
    1750    250.77886   -6958.8116   -6930.8368   -3664.5304    20354.533   0.80300604 
    1760    253.23106   -6959.0851   -6930.8368   -3574.9487    20354.533   0.80474848 
    1770     250.9182   -6958.8268   -6930.8365   -3643.0638    20354.533   0.80759401 
    1780    248.19059    -6958.522   -6930.8359    -3925.933    20354.533   0.81194222 
    1790    251.50586   -6958.8923   -6930.8365   -4358.7518    20354.533   0.81788965 
    1800    254.74644   -6959.2547   -6930.8373   -4555.0094    20354.533   0.82537267 
    1810    250.83969   -6958.8178   -6930.8362   -4276.5786    20354.533   0.83331392 
    1820     251.8855   -6958.9345   -6930.8362   -4012.9598    20354.533   0.83972246 
    1830      255.594   -6959.3496   -6930.8377   -3901.3718    20354.533   0.84445553 
    1840    246.70995   -6958.3569   -6930.8361   -3626.6691    20354.533   0.84851616 
    1850    241.86654   -6957.8157   -6930.8351   -3456.7016    20354.533   0.85180041 
    1860    250.43531   -6958.7737   -6930.8372    -3514.864    20354.533    0.8548436 
    1870    251.67809   -6958.9117   -6930.8366    -3317.435    20354.533   0.85904271 
    1880    249.74232   -6958.6953   -6930.8361   -2814.4162    20354.533   0.86408884 
    1890    251.03758   -6958.8407    -6930.837   -2598.2462    20354.533   0.86903478 
    1900    247.47063   -6958.4421   -6930.8364   -2762.2368    20354.533   0.87371783 
    1910    246.41436   -6958.3238   -6930.8359   -3170.3298    20354.533   0.87809892 
    1920    252.32808   -6958.9847   -6930.8371   -3481.0709    20354.533    0.8826292 
    1930    251.70282   -6958.9148    -6930.837   -3522.0143    20354.533   0.88826081 
    1940    246.41342   -6958.3234   -6930.8356   -3409.4835    20354.533   0.89502972 
    1950     251.5574   -6958.8983   -6930.8367   -3383.3627    20354.533   0.90192896 
    1960    256.70331    -6959.473   -6930.8374   -3284.7665    20354.533   0.90797257 
    1970    251.99325   -6958.9465   -6930.8363   -3170.8424    20354.533   0.91214044 
    1980    249.36931   -6958.6536    -6930.836    -3268.664    20354.533   0.91382089 
    1990    253.19383   -6959.0808   -6930.8367   -3484.4565    20354.533   0.91429439 
    2000    255.75062   -6959.3664    -6930.837   -3645.8324    20354.533   0.91593526 
Loop time of 1097.44 on 16 procs for 2000 steps with 864 atoms

Performance: 0.157 ns/day, 152.422 hours/ns, 1.822 timesteps/s
97.4% CPU use with 16 MPI tasks x 1 OpenMP threads

MPI task timing breakdown:
Section |  min time  |  avg time  |  max time  |%varavg| %total
---------------------------------------------------------------
Pair    | 453.47     | 846.25     | 1090       | 595.4 | 77.11
Bond    | 0.000144   | 0.00030661 | 0.00086689 |   0.0 |  0.00
Neigh   | 0.017727   | 0.027985   | 0.036378   |   3.5 |  0.00
Comm    | 7.2344     | 234.43     | 607.42     |1095.4 | 21.36
Output  | 0.1117     | 8.5267     | 18.552     | 249.0 |  0.78
Modify  | 0.0073426  | 0.0087366  | 0.0099919  |   0.7 |  0.00
Other   |            | 8.198      |            |       |  0.75

Nlocal:        54.0000 ave          71 max          39 min
Histogram: 3 2 1 1 0 4 1 0 3 1
Nghost:        497.125 ave         591 max         387 min
Histogram: 1 2 1 1 1 3 2 1 2 2
Neighs:         0.00000 ave           0 max           0 min
Histogram: 16 0 0 0 0 0 0 0 0 0
FullNghs:      2382.00 ave        3956 max        1259 min
Histogram: 3 2 2 0 2 3 1 1 1 1

Total # of neighbors = 38112
Ave neighs/atom = 44.111111
Ave special neighs/atom = 0.0000000
Neighbor list builds = 199
Dangerous builds = 198
Setting up Verlet run ...
  Unit style    : metal
  Current step  : 2000
  Time step     : 0.001
Per MPI rank memory allocation (min/avg/max) = 8.897 | 8.905 | 8.914 Mbytes
Step Temp PotEng TotEng Press Volume c_msd[4] 
    2000        412.5   -6959.3664   -6913.3514   -2728.2624    20354.533   0.91593526 
    2010    386.57297   -6956.4714   -6913.3486   -1992.0225     20351.26   0.92112226 
    2020    342.03375   -6951.4501   -6913.2957   -704.51794     20343.08   0.92971373 
    2030    326.60324   -6949.5599   -6913.1268    66.160848    20333.004   0.93652101 
    2040    327.46686   -6949.3366   -6912.8072     362.6834    20323.001   0.94001985 
    2050    323.17126   -6948.4035   -6912.3533    426.85761     20313.86   0.94166058 
    2060     321.5749   -6947.6918   -6911.8197    511.35148    20305.811   0.94315449 
    2070    338.98091   -6949.0853   -6911.2715     594.5751    20299.031   0.94618263 
    2080    343.64397   -6949.1031   -6910.7691    949.09263     20293.81   0.95247902 
    2090    335.65337   -6947.7815   -6910.3388     1212.686    20290.947   0.96088715 
    2100    341.33918   -6948.0102   -6909.9333    1105.9586    20291.038   0.96865395 
    2110    345.43947    -6948.042   -6909.5077    756.88088    20293.857   0.97519004 
    2120    348.25024   -6947.9002   -6909.0523    179.71884    20298.535   0.98092911 
    2130    350.86512   -6947.7043   -6908.5647   -343.82193     20303.69   0.98640523 
    2140    344.63388   -6946.4959   -6908.0515   -517.90883    20308.051   0.99202363 
    2150    342.38311   -6945.7103    -6907.517   -425.43776    20311.174   0.99769125 
    2160    349.09941   -6945.8938   -6906.9512   -275.58603    20313.247    1.0035161 
    2170    349.73031    -6945.378   -6906.3651    51.532229    20314.675    1.0095074 
    2180    356.40566    -6945.537   -6905.7794    312.25226    20316.223    1.0149653 
    2190    361.01084   -6945.4655   -6905.1942    296.24668    20318.522     1.020514 
    2200    363.80868   -6945.2022   -6904.6188   -212.48805    20321.462     1.026413 
    2210    367.33636   -6945.0209    -6904.044   -864.66136    20323.827    1.0321178 
    2220    367.70963   -6944.4793   -6903.4608   -1301.2842    20324.062    1.0374743 
    2230    376.16114   -6944.8291   -6902.8678   -1519.9829    20321.068     1.042492 
    2240    376.49788   -6944.2704   -6902.2715    -1185.417    20314.419    1.0482811 
    2250    367.32188   -6942.6624   -6901.6871   -628.09824    20304.894    1.0555939 
    2260     367.6009   -6942.1116   -6901.1052   -322.27493    20293.827    1.0636958 
    2270    369.67915   -6941.7553   -6900.5171   -99.083989    20282.085    1.0719798 
    2280    373.40814   -6941.5847   -6899.9305   -106.77333     20270.18    1.0808241 
    2290    382.34965   -6941.9952   -6899.3435   -369.08785    20258.078    1.0912274 
    2300    387.55199   -6941.9867   -6898.7547   -224.80625    20245.317     1.103555 
    2310    389.71426   -6941.6403   -6898.1671    155.68873    20232.206    1.1171458 
    2320    400.06999   -6942.2121   -6897.5837    360.78549    20219.617     1.131094 
    2330    407.61739   -6942.4855   -6897.0152    563.34311    20208.115    1.1460065 
    2340    406.58157   -6941.8423   -6896.4875    663.59617    20198.142    1.1622003 
    2350    408.47584   -6941.5677   -6896.0016    660.19089     20189.93    1.1788255 
    2360    414.45547   -6941.7818   -6895.5486    793.69481    20183.507    1.1961612 
    2370    414.96941   -6941.4148   -6895.1243    1108.8758     20179.18    1.2149691 
    2380    411.10577   -6940.5892   -6894.7297    1365.7263    20177.637      1.23418 
    2390    408.72862   -6939.9521   -6894.3578    1271.3061    20179.424    1.2519407 
    2400    409.10824   -6939.6382   -6894.0016     865.0377    20184.244    1.2684751 
    2410    414.48737   -6939.8919   -6893.6552    408.33144    20191.108    1.2862075 
    2420    418.36565   -6939.9889   -6893.3196    252.50102    20198.956     1.306614 
    2430    420.47168   -6939.9045   -6893.0003    508.83919    20207.389     1.328865 
    2440    425.30943   -6940.1464   -6892.7025    763.32735    20216.928    1.3505841 
    2450    428.30988    -6940.215   -6892.4364    702.54672    20228.132    1.3689872 
    2460    427.21721   -6939.8716   -6892.2149    437.01922    20240.851     1.382399 
    2470    421.78921    -6939.081   -6892.0298    337.38896    20254.491    1.3924401 
    2480    420.23123   -6938.7448   -6891.8674    62.999555    20268.675    1.4021508 
    2490    406.82332   -6937.0892   -6891.7075   -207.31107    20282.774    1.4133249 
    2500    405.46996    -6936.767   -6891.5362   -573.81121    20296.097     1.424821 
    2510    416.98514   -6937.8626   -6891.3473   -1081.0178    20307.718    1.4361862 
    2520    421.27724    -6938.157   -6891.1629    -1147.027    20316.536     1.448228 
    2530    423.14979   -6938.2074   -6891.0044   -894.81013      20322.4    1.4601002 
    2540    422.91389   -6938.0504   -6890.8737   -674.26745    20325.909    1.4703478 
    2550    421.81872   -6937.8232   -6890.7687   -524.72168    20327.663    1.4792658 
    2560    417.37509   -6937.2426   -6890.6838    -384.5085    20328.091    1.4888636 
    2570    411.47799   -6936.5048   -6890.6038   -458.60291    20327.516    1.5000881 
    2580    417.16149   -6937.0601   -6890.5251   -781.69217    20325.751    1.5127477 
    2590    417.13856   -6936.9843   -6890.4519   -773.96183    20322.154     1.526505 
    2600    423.18023   -6937.6008   -6890.3944   -431.88772    20316.785    1.5400257 
    2610    433.03093   -6938.6699   -6890.3647   -15.147601    20310.461    1.5530204 
    2620    435.85107    -6938.998   -6890.3782    294.61086    20304.203    1.5648872 
    2630    442.27595   -6939.7864   -6890.4499    502.01875    20298.779    1.5748338 
    2640    443.54176    -6940.065   -6890.5873    693.38029    20294.705     1.585145 
    2650    436.57446   -6939.5004   -6890.7999    796.51046     20292.41     1.597524 
    2660    417.33292   -6937.6102   -6891.0561    1028.7858    20292.187    1.6103109 
    2670    412.49866   -6937.3403   -6891.3254    1134.7961    20294.503    1.6200206 
    2680    414.06345   -6937.7838   -6891.5944    1142.2489    20299.599     1.625729 
    2690    416.50404   -6938.3309   -6891.8692    948.77534    20307.413    1.6286672 
    2700    412.77983   -6938.1892    -6892.143    566.42794    20317.444    1.6301242 
    2710    412.17938   -6938.3905   -6892.4113    244.85023    20328.762    1.6308405 
    2720    408.87322     -6938.28   -6892.6696    45.548912    20340.545    1.6314129 
    2730    405.25259   -6938.1178   -6892.9113   -304.80281    20352.231    1.6320384 
    2740    404.13241   -6938.2135    -6893.132   -781.26079    20362.962     1.632507 
    2750      404.666   -6938.4703   -6893.3292   -1129.6568    20371.627    1.6325277 
    2760    409.50434   -6939.1932   -6893.5124   -1340.3237    20377.368    1.6314757 
    2770    411.15934    -6939.557   -6893.6916   -1369.2275    20379.704    1.6289796 
    2780    409.23294   -6939.5207   -6893.8702   -1294.4043    20378.589    1.6258686 
    2790    408.47314   -6939.6121   -6894.0463   -1175.4651    20374.236    1.6230258 
    2800    409.10499   -6939.8515   -6894.2152   -1020.3481    20367.006    1.6206155 
    2810    413.58413   -6940.5242   -6894.3883   -921.81444    20357.286    1.6178475 
    2820    407.32494   -6940.0035   -6894.5658   -767.21192    20345.418    1.6131089 
    2830    404.90804   -6939.9035   -6894.7354   -745.31552    20331.767    1.6045399 
    2840    410.57308   -6940.6864   -6894.8864   -747.36596     20316.44    1.5935553 
    2850    413.28096    -6941.129   -6895.0269   -905.83255    20299.417    1.5843366 
    2860    406.44691   -6940.4983   -6895.1586   -821.52375    20280.444    1.5797267 
    2870    402.01617   -6940.1146   -6895.2691   -539.41852    20259.768    1.5798923 
    2880    406.01569   -6940.6457    -6895.354    5.4845486    20238.155    1.5828376 
    2890    407.42226   -6940.8609   -6895.4123    655.28699    20216.953    1.5861419 
    2900     412.4458   -6941.4692   -6895.4603    882.64373    20197.622    1.5881932 
    2910    411.67842   -6941.4307   -6895.5074    1073.8884    20180.802    1.5882095 
    2920    409.40504   -6941.2253   -6895.5556    1293.3634     20166.93    1.5868139 
    2930    407.44582   -6941.0517   -6895.6005    1314.9032    20156.426    1.5864362 
    2940    404.13742   -6940.7203   -6895.6381    971.41274    20149.251    1.5883987 
    2950    400.84519   -6940.3782   -6895.6633    694.67273    20144.614    1.5929318 
    2960    398.82077   -6940.1557   -6895.6667    569.41783    20141.788     1.600128 
    2970     404.3586   -6940.7563   -6895.6495    433.24042      20140.4      1.61001 
    2980     407.4624   -6941.0728   -6895.6197    582.13208    20140.175    1.6222032 
    2990    401.29492    -6940.342   -6895.5769     1076.167    20141.475    1.6355712 
    3000    404.02565   -6940.5886   -6895.5189    1335.2169    20145.343    1.6480176 
    3010    403.65073   -6940.4644   -6895.4366    1254.7026    20152.362    1.6581194 
    3020    406.48305   -6940.6792   -6895.3354    843.01459    20162.297    1.6654948 
    3030    399.70804   -6939.7988   -6895.2108    446.15104    20174.189    1.6720037 
    3040    391.31479   -6938.7042   -6895.0525    341.68925    20187.105     1.679579 
    3050    399.34828   -6939.3936   -6894.8457    87.807671    20200.646    1.6887054 
    3060    412.89071   -6940.6551   -6894.5965    -87.12953    20214.251    1.6991739 
    3070    417.92819   -6940.9554   -6894.3349     43.33521    20227.549    1.7099863 
    3080    416.90669   -6940.5921   -6894.0855    264.28944    20240.795    1.7203183 
    3090     412.6424   -6939.8819    -6893.851    451.97096    20254.528    1.7297272 
    3100    405.20181   -6938.8237   -6893.6228    276.25731    20269.128    1.7369856 
    3110     407.1582   -6938.8078   -6893.3887   -107.64947    20284.173    1.7408488 
    3120    408.41104    -6938.702   -6893.1432    -253.6918    20298.825    1.7420566 
    3130    413.47356   -6939.0185   -6892.8949    -304.9443    20312.696    1.7421418 
    3140    428.38881    -6940.445   -6892.6576   -644.65799    20325.564    1.7424083 
    3150    422.64516   -6939.5978   -6892.4511   -753.48587    20336.738    1.7444382 
    3160    412.32507   -6938.2739   -6892.2785   -727.81055    20345.919    1.7467616 
    3170     420.4323   -6939.0176   -6892.1177    -929.6323    20353.094    1.7471767 
    3180    426.65666   -6939.5676   -6891.9734    -1089.334     20357.86    1.7467822 
    3190    422.41332   -6938.9802   -6891.8594   -1024.5913    20359.892    1.7476059 
    3200    415.44971   -6938.1128   -6891.7687   -700.03818      20359.4    1.7491562 
    3210    416.89732   -6938.1942   -6891.6886   -231.32266    20357.206    1.7495971 
    3220    418.89055   -6938.3432   -6891.6153    101.29075    20354.433    1.7486557 
    3230    421.04274   -6938.5217   -6891.5538     23.13308    20351.855    1.7472892 
    3240    426.40595   -6939.0794   -6891.5132   -412.21924    20349.283      1.74687 
    3250    423.63314   -6938.7578   -6891.5009   -798.26323    20345.732    1.7476977 
    3260    426.06101   -6939.0491   -6891.5213    -960.9163    20340.263    1.7490011 
    3270    423.74943   -6938.8418   -6891.5719   -895.58705    20332.484    1.7510423 
    3280    418.94813   -6938.3837   -6891.6495   -772.07022    20322.553    1.7528687 
    3290    416.93087   -6938.2572    -6891.748   -496.49363    20310.832    1.7531026 
    3300    411.63785   -6937.7791   -6891.8603   -152.54484        20298    1.7524586 
    3310     404.6544   -6937.1163   -6891.9765    126.30127    20284.887    1.7520204 
    3320     402.8636   -6937.0235   -6892.0835    405.80153    20272.208    1.7514323 
    3330    410.94185   -6938.0216   -6892.1804    596.53541    20260.611    1.7494976 
    3340    416.86936   -6938.7846   -6892.2822    929.90068    20250.632    1.7462475 
    3350    416.35212   -6938.8456   -6892.4009    1164.2864    20243.024    1.7422716 
    3360    423.95245   -6939.8422   -6892.5497    1174.9198    20238.321    1.7378494 
    3370     422.2092   -6939.8392   -6892.7411    1233.1806    20236.599    1.7335089 
    3380    413.56697   -6939.1057   -6892.9716    1239.9874    20237.967    1.7276405 
    3390     416.4818   -6939.6929   -6893.2337    684.52796    20242.273    1.7185865 
    3400    420.92065   -6940.4822   -6893.5279    16.152352    20248.249    1.7079161 
    3410    416.73053    -6940.346   -6893.8591   -188.60016    20254.352    1.6979663 
    3420    401.04799    -6938.939   -6894.2015    93.984394    20260.065    1.6892925 
    3430    393.42509   -6938.4073   -6894.5201    361.41024    20266.009     1.680676 
    3440    390.88199   -6938.3984   -6894.7949    321.27993    20272.766    1.6722941 
    3450    392.51202   -6938.8038   -6895.0185   -50.113536    20280.216     1.664972 
    3460    396.12659   -6939.3834   -6895.1949   -758.91907    20287.446     1.659594 
    3470    396.99931   -6939.6167   -6895.3308   -1351.4794     20292.81    1.6582282 
    3480    398.07429   -6939.8399   -6895.4341   -1583.5321    20294.844    1.6615886 
    3490    404.84105   -6940.6692   -6895.5086   -1470.2257    20292.981     1.668943 
    3500    413.57088   -6941.7057   -6895.5713   -1359.1179    20287.429    1.6791218 
    3510    406.49851   -6940.9771   -6895.6315   -1154.9642    20278.521    1.6903259 
    3520    398.08322   -6940.0856   -6895.6788   -995.58018    20266.735    1.7002687 
    3530    391.64438   -6939.3832   -6895.6947   -663.66545     20252.54    1.7080012 
    3540    383.40663   -6938.4313   -6895.6617   -364.26417    20236.727    1.7133475 
    3550    382.93477   -6938.2842   -6895.5673   -242.75305    20220.015    1.7165377 
    3560    394.41111   -6939.4034   -6895.4062   -69.621011    20202.745    1.7190421 
    3570    400.68395   -6939.8807   -6895.1838    222.63857    20185.382    1.7220042 
    3580    403.19671   -6939.8941   -6894.9169     350.2723    20168.582     1.726068 
    3590    412.34091   -6940.6135   -6894.6163    346.12513     20152.66    1.7324726 
    3600    412.32101   -6940.2872   -6894.2922    545.44354    20137.665    1.7412949 
    3610    416.15003   -6940.3828   -6893.9607    656.87351    20123.999    1.7508669 
    3620     416.0419   -6940.0397   -6893.6296    736.43999    20111.952    1.7610654 
    3630    407.06995   -6938.7198   -6893.3105    1122.1996    20101.815    1.7706282 
    3640    409.68635    -6938.701   -6892.9999    1385.6329    20094.436    1.7756033 
    3650    419.50624   -6939.4985    -6892.702    1503.7992    20090.446    1.7737988 
    3660    424.08446   -6939.7505   -6892.4432    1568.3881    20090.162    1.7659101 
    3670    430.65602   -6940.2872   -6892.2469    1339.4396     20093.68    1.7543917 
    3680    429.84759   -6940.0691    -6892.119    953.76672    20100.467     1.742308 
    3690    427.78747   -6939.7752   -6892.0548    613.14365    20109.629    1.7310921 
    3700    418.23497   -6938.6868   -6892.0321    373.23577    20120.363    1.7209512 
    3710    413.31153   -6938.1318   -6892.0263   -154.78862    20131.984    1.7107806 
    3720    423.77604   -6939.2996   -6892.0268   -907.65242    20143.179    1.7005853 
    3730    431.47991   -6940.1821   -6892.0498   -976.65847    20152.311    1.6921014 
    3740    428.87474   -6939.9529   -6892.1113    -394.2812    20159.184    1.6856125 
    3750    422.83962   -6939.3651   -6892.1967    171.57009    20165.082    1.6800052 
    3760    421.33507   -6939.2926    -6892.292    281.88983    20171.308    1.6736143 
    3770    412.63792   -6938.4168   -6892.3864    311.85172    20178.237    1.6650291 
    3780    404.30516   -6937.5685   -6892.4676    252.74485    20185.919     1.652962 
    3790    408.60266   -6938.1063    -6892.526     12.25366    20194.199    1.6373592 
    3800    415.96156   -6938.9681    -6892.567   -120.81436    20202.568    1.6206474 
    3810    419.27866   -6939.3823   -6892.6111   -139.09206    20210.672    1.6056256 
    3820    412.21678   -6938.6502   -6892.6668    187.79531    20218.526    1.5929829 
    3830    407.60597   -6938.1953   -6892.7262    227.88166    20226.785    1.5811679 
    3840    412.99156   -6938.8526   -6892.7827   -360.74834    20235.481    1.5684894 
    3850    412.22867   -6938.8219   -6892.8372   -854.68496    20243.309    1.5552374 
    3860    407.45539   -6938.3418   -6892.8895   -846.17435    20249.122    1.5415362 
    3870    403.05836    -6937.892   -6892.9302   -602.11799    20252.872    1.5263702 
    3880    398.28959   -6937.3766   -6892.9468   -141.43212     20255.19    1.5084441 
    3890    397.08212    -6937.226   -6892.9309    162.15196    20257.142    1.4869442 
    3900    409.38886    -6938.555    -6892.887   -185.71987    20259.349    1.4629078 
    3910    424.23651   -6940.1583    -6892.834   -623.97953    20261.071    1.4400496 
    3920    425.26483    -6940.235   -6892.7961   -434.56719    20261.378    1.4212547 
    3930    422.15286   -6939.8725   -6892.7807    23.273881    20260.644    1.4061211 
    3940    425.43097   -6940.2465   -6892.7891    431.88564    20259.957    1.3937838 
    3950    423.61084   -6940.0785   -6892.8241    800.50992    20260.365    1.3847671 
    3960    421.96734   -6939.9646   -6892.8935    840.27083    20262.714    1.3786513 
    3970    418.32736   -6939.6605   -6892.9954     632.0915    20267.119    1.3740289 
    3980    416.72989   -6939.6119    -6893.125    374.12501    20273.082     1.369272 
    3990    416.59595   -6939.7512   -6893.2792    219.53269    20279.988    1.3623473 
    4000    413.42548   -6939.5773   -6893.4591    254.99694    20287.476    1.3515269 
    4010    409.31841   -6939.3173   -6893.6572    231.07671    20295.596    1.3375151 
    4020    413.55018   -6940.0044   -6893.8723   -14.526882    20304.222     1.323102 
    4030    411.89992   -6940.0567   -6894.1086   -96.348531    20312.845     1.311734 
    4040    400.05199   -6938.9831   -6894.3567   -109.71335    20321.243    1.3047464 
    4050     400.6432   -6939.2906   -6894.5982   -514.38732    20329.233    1.3008391 
    4060    405.61869   -6940.0826   -6894.8353   -984.26592    20335.885    1.2991223 
    4070    397.76261   -6939.4314   -6895.0604   -1255.2739    20340.094    1.2984593 
    4080    400.08945   -6939.9011   -6895.2705   -1637.4939    20341.091    1.2979423 
    4090    401.16621    -6940.215   -6895.4643     -1962.89    20337.971    1.2988861 
    4100    395.98152   -6939.8169   -6895.6446   -2023.6304    20329.986    1.3026313 
    4110      385.493   -6938.8007   -6895.7984    -1866.176    20316.996    1.3094832 
    4120    386.06739   -6938.9761   -6895.9097   -1737.1462    20299.377    1.3177719 
    4130    401.96077   -6940.8202   -6895.9809   -1634.3731    20277.486    1.3256349 
    4140    408.50942   -6941.5979    -6896.028   -973.34271     20251.77    1.3332091 
    4150    403.79104   -6941.0978   -6896.0543    155.32581    20223.899    1.3412991 
    4160    403.81296   -6941.0953   -6896.0494    1022.4534    20196.528    1.3489907 
    4170    411.85139   -6941.9616   -6896.0189    1410.4009    20171.784    1.3550696 
    4180    406.95787   -6941.3747    -6895.978    1370.3601    20150.606    1.3606764 
    4190    399.47751   -6940.4882   -6895.9258    1109.9356     20132.93    1.3663972 
    4200     407.6668   -6941.3283   -6895.8525    800.52004    20118.088    1.3724425 
    4210    407.11569   -6941.1608   -6895.7464    1107.2613    20105.487    1.3804019 
    4220     411.7414   -6941.5405   -6895.6101    1353.8914    20095.669    1.3900415 
    4230    410.50419   -6941.2356   -6895.4433    1620.0611    20089.254    1.4005231 
    4240    407.73279   -6940.7322   -6895.2489     1762.294    20086.812    1.4099235 
    4250    403.35777   -6940.0126   -6895.0174     1737.499    20088.661    1.4160848 
    4260    404.06059   -6939.8137   -6894.7401    1614.2138    20094.762    1.4173221 
    4270    419.83307   -6941.2468   -6894.4138    1151.9788    20104.729     1.414568 
    4280    429.00954   -6941.9227   -6894.0661    500.46621    20117.425    1.4127387 
    4290    426.60957   -6941.3277   -6893.7388    278.57734    20131.386    1.4153238 
    4300    420.13502   -6940.3163   -6893.4496    468.60721     20146.06     1.422717 
    4310    418.54132   -6939.8762   -6893.1872    589.74883    20161.794    1.4331089 
    4320    417.41381   -6939.5023   -6892.9392    487.74311    20178.847    1.4445046 
    4330    411.53058   -6938.6073   -6892.7005    102.84288    20196.951    1.4553565 
    4340     410.6079   -6938.2661   -6892.4622    -371.2257    20215.191    1.4644293 
    4350    418.91139   -6938.9561   -6892.2259   -463.76108    20232.474    1.4716131 
    4360    417.36123    -6938.569   -6892.0117   -41.145928    20248.603     1.478161 
    4370    414.07731   -6938.0187   -6891.8278     201.9929    20264.455    1.4840142 
    4380    418.92099    -6938.395   -6891.6638    118.31996      20280.6    1.4877795 
    4390    414.70919   -6937.7765    -6891.515    50.495978    20296.913    1.4894716 
    4400    415.26582   -6937.7004   -6891.3769   -141.28274    20313.182    1.4902097 
    4410    424.83103   -6938.6321   -6891.2416   -477.57117    20328.924    1.4910565 
    4420    433.30735   -6939.4644   -6891.1283   -709.48469    20343.333    1.4927449 
    4430     437.2152   -6939.8333   -6891.0613   -868.76222    20355.814    1.4951009 
    4440    428.77392   -6938.8792   -6891.0488   -941.56182     20365.99    1.4972912 
    4450    414.75557   -6937.3388   -6891.0722   -887.66955    20373.715    1.4990708 
    4460    408.83936   -6936.7144   -6891.1078   -821.89356    20379.102    1.5014894 
    4470    401.29471   -6935.8972   -6891.1322   -510.83375    20382.431    1.5056013 
    4480    416.54462    -6937.611   -6891.1449   -550.60193    20384.355    1.5103427 
    4490     426.6837   -6938.7605   -6891.1633   -571.95808    20384.897    1.5158031 
    4500    423.22016   -6938.4224   -6891.2115   -330.90032    20384.061    1.5212452 
    4510    418.42986   -6937.9642   -6891.2877   -76.346734    20382.414    1.5244728 
    4520    417.38962   -6937.9447   -6891.3843   -45.580822    20380.543    1.5249445 
    4530    424.47905   -6938.8596   -6891.5084   -299.78746    20378.515    1.5249458 
    4540    428.18183   -6939.4447   -6891.6804   -403.53328    20375.795    1.5267922 
    4550     415.3919   -6938.2397   -6891.9022   -166.69604    20372.192    1.5302903 
    4560    410.34577   -6937.9322   -6892.1575   -42.281871    20368.187    1.5331148 
    4570    416.31648   -6938.8863   -6892.4455    109.53844    20364.119    1.5328113 
    4580    422.66535   -6939.9306   -6892.7817     352.6896    20360.393    1.5281062 
    4590     426.3092   -6940.7404    -6893.185    636.47979    20357.616    1.5205562 
    4600    415.76026   -6940.0226   -6893.6439     712.6786    20356.427    1.5137434 
    4610    404.59912   -6939.2452   -6894.1115    384.34928    20356.943    1.5088109 
    4620    405.47237   -6939.7816   -6894.5506   -295.84754    20358.319    1.5040065 
    4630    406.25256   -6940.2604   -6894.9423   -815.19962    20358.993     1.498698 
    4640    401.55481   -6940.0635   -6895.2695   -968.49175     20357.71    1.4939768 
    4650    400.23126   -6940.1708   -6895.5244   -978.74348    20354.006    1.4901622 
    4660    406.39198   -6941.0476    -6895.714   -714.89314     20347.94    1.4868555 
    4670    410.12264   -6941.6082   -6895.8584   -413.73257    20340.118     1.484386 
    4680    407.33862   -6941.4051   -6895.9659   -76.191121     20331.33    1.4825236 
    4690    411.97081   -6942.0038   -6896.0478    262.78498     20322.43    1.4803816 
    4700     409.1501    -6941.749   -6896.1076    467.94574     20314.24    1.4781134 
    4710    406.23783   -6941.4654    -6896.149    118.87718    20307.151    1.4753227 
    4720    404.08998   -6941.2506   -6896.1737   -437.24753    20300.368    1.4724109 
    4730    393.77548   -6940.1027   -6896.1764   -479.71601    20292.667     1.470459 
    4740    383.91155    -6938.967   -6896.1411   -166.19995    20283.909    1.4692028 
    4750    394.22893   -6940.0361   -6896.0593   -316.60889    20274.682    1.4674193 
    4760    408.89337   -6941.5592   -6895.9465   -412.93362    20264.749    1.4650488 
    4770    406.27129   -6941.1428   -6895.8227   -9.6445606    20253.966    1.4627953 
    4780    405.97676   -6940.9801   -6895.6928      408.695    20243.224    1.4605331 
    4790    406.53057   -6940.8965   -6895.5474    735.04286    20233.564    1.4587731 
    4800    411.21676   -6941.2635   -6895.3917     875.3081    20225.757    1.4583525 
    4810    416.34043   -6941.6773   -6895.2339    897.15883     20220.16    1.4591076 
    4820    425.57435   -6942.5655    -6895.092    798.14565    20216.791    1.4595961 
    4830    422.74357   -6942.1359   -6894.9782    1041.8482    20215.526    1.4584961 
    4840    422.42083   -6942.0184   -6894.8968    1431.3465     20216.89    1.4548275 
    4850     426.9456   -6942.4695    -6894.843    1645.8746     20221.76    1.4497441 
    4860    426.07689   -6942.3486   -6894.8191    1811.2579    20230.698    1.4459152 
    4870     427.4981   -6942.5158   -6894.8278    1865.8159    20244.074    1.4439374 
    4880    420.04956   -6941.7271   -6894.8699    1936.9926    20262.095    1.4425897 
    4890    411.01661   -6940.7829   -6894.9334    1364.4691    20284.751    1.4404562 
    4900    410.66038   -6940.8041   -6894.9943    441.11858    20310.657    1.4366357 
    4910    404.23379   -6940.1329     -6895.04   -166.21169    20337.629    1.4322442 
    4920    400.00735   -6939.6874    -6895.066    -444.4312    20364.138    1.4280915 
    4930    400.12728   -6939.7001   -6895.0653   -606.23271    20389.422    1.4239396 
    4940    401.15425   -6939.7838   -6895.0345   -760.42818    20413.068    1.4196863 
    4950    409.35672    -6940.639   -6894.9746   -1217.2281    20434.598    1.4149644 
    4960    412.44117   -6940.9013   -6894.8928   -1729.2595    20452.926    1.4096123 
    4970    416.01166   -6941.2102   -6894.8035   -2172.3267    20466.784    1.4035019 
    4980    415.10761   -6941.0192   -6894.7134   -2378.2003    20475.106     1.397783 
    4990    407.95718   -6940.1295   -6894.6212   -2273.2544    20477.401    1.3933692 
    5000    410.87905   -6940.3516   -6894.5174   -2030.9833    20473.932     1.390211 
Loop time of 1672.98 on 16 procs for 3000 steps with 864 atoms

Performance: 0.155 ns/day, 154.906 hours/ns, 1.793 timesteps/s
97.2% CPU use with 16 MPI tasks x 1 OpenMP threads

MPI task timing breakdown:
Section |  min time  |  avg time  |  max time  |%varavg| %total
---------------------------------------------------------------
Pair    | 815.47     | 1305.4     | 1663.6     | 659.1 | 78.03
Bond    | 0.00024414 | 0.00065747 | 0.001555   |   0.0 |  0.00
Neigh   | 0.027855   | 0.042319   | 0.057699   |   4.4 |  0.00
Comm    | 0.3002     | 270.25     | 714.67     |1381.2 | 16.15
Output  | 0.69274    | 0.69555    | 0.73595    |   1.3 |  0.04
Modify  | 0.1824     | 96.627     | 220.64     | 804.8 |  5.78
Other   |            | 0.01249    |            |       |  0.00

Nlocal:        54.0000 ave          69 max          36 min
Histogram: 2 0 1 3 1 2 1 2 2 2
Nghost:        492.875 ave         559 max         393 min
Histogram: 1 0 3 0 1 1 3 2 3 2
Neighs:         0.00000 ave           0 max           0 min
Histogram: 16 0 0 0 0 0 0 0 0 0
FullNghs:      2354.75 ave        3705 max        1191 min
Histogram: 2 1 3 1 2 1 2 2 0 2

Total # of neighbors = 37676
Ave neighs/atom = 43.606481
Ave special neighs/atom = 0.0000000
Neighbor list builds = 300
Dangerous builds = 300
Setting up Verlet run ...
  Unit style    : metal
  Current step  : 5000
  Time step     : 0.001
Per MPI rank memory allocation (min/avg/max) = 8.897 | 8.905 | 8.914 Mbytes
Step Temp PotEng TotEng Press Volume c_msd[4] 
    5000    410.87905   -6940.3516   -6894.5174   -2030.9833    20473.932     1.390211 
    5010    405.79234   -6939.7828    -6894.516   -1648.8473    20471.471    1.3875334 
    5020    405.73975   -6939.7687   -6894.5078   -1143.6414    20464.833    1.3847185 
    5030    405.45666   -6939.7125   -6894.4832   -641.34692    20455.292    1.3828694 
    5040    400.70653   -6939.1368   -6894.4374   -279.73246    20444.076    1.3839157 
    5050    408.51213   -6939.9373   -6894.3672   -19.791334    20432.124    1.3864925 
    5060    419.35984   -6941.0584   -6894.2782    172.98407    20420.104    1.3880943 
    5070    427.49834   -6941.8837   -6894.1956    261.39973    20408.493    1.3879485 
    5080    424.39082   -6941.4787   -6894.1372    452.57465    20397.559    1.3868045 
    5090    417.05101   -6940.6242   -6894.1015    847.54002    20387.816    1.3844609 
    5100    419.35175   -6940.8563    -6894.077    772.62501    20380.103     1.379834 
    5110    428.16323   -6941.8327   -6894.0704    45.227845    20374.185    1.3736977 
    5120    427.59045   -6941.7978   -6894.0994   -643.30551    20368.387    1.3690389 
    5130    418.57108   -6940.8623   -6894.1701    -824.2366    20361.055     1.367608 
    5140    404.40437   -6939.3751   -6894.2632   -265.29616      20351.8     1.368991 
    5150    398.98333   -6938.8579   -6894.3507    313.57775    20341.844    1.3721069 
    5160    409.58738   -6940.1193   -6894.4292    499.31615    20332.563     1.376575 
    5170    415.83103   -6940.9037   -6894.5172    761.75057    20324.529    1.3827069 
    5180    413.14049    -6940.714   -6894.6276    1237.1166    20318.434    1.3903601 
    5190    416.78669   -6941.2619   -6894.7687    1551.8157    20315.378    1.3983822 
    5200    414.28494   -6941.1633   -6894.9492    1782.5091    20316.215    1.4063228 
    5210    399.72233   -6939.7463   -6895.1566    1824.8263    20321.514    1.4138977 
    5220    399.01768   -6939.8785   -6895.3675    1345.3008    20331.322    1.4195915 
    5230    409.10113   -6941.2081   -6895.5722    763.65056    20344.559    1.4221977 
    5240    417.98655   -6942.4181   -6895.7911    482.60755    20359.866    1.4222525 
    5250    412.97746    -6942.103   -6896.0348     193.7975    20376.479      1.42121 
    5260    404.43984   -6941.3994   -6896.2835   -219.19018    20393.656    1.4194239 
    5270    408.27202   -6942.0696   -6896.5263   -595.52605      20410.4    1.4175936 
    5280    403.85988   -6941.8107   -6896.7595   -741.44137      20425.8    1.4174083 
    5290    395.01228   -6941.0377   -6896.9735   -802.91649    20439.403    1.4194587 
    5300    392.23245   -6940.9077   -6897.1536   -638.28394    20451.117    1.4240356 
    5310    395.98332   -6941.4682   -6897.2956   -656.31382    20461.228    1.4312644 
    5320    406.11059   -6942.7097   -6897.4075   -887.68736    20469.682    1.4403656 
    5330    413.72535   -6943.6604   -6897.5087   -1212.5219    20475.898    1.4505154 
    5340    408.81765   -6943.2166   -6897.6124   -1331.7238    20479.109    1.4606872 
    5350    397.15164   -6942.0112   -6897.7083    -1344.171    20478.954    1.4692146 
    5360    395.98073   -6941.9539   -6897.7816   -1524.4818    20475.327    1.4744769 
    5370    397.62459   -6942.1834   -6897.8278   -1833.4025    20467.744    1.4770719 
    5380    396.35795   -6942.0629   -6897.8486     -1759.24    20455.508    1.4790522 
    5390    396.60879   -6942.0799   -6897.8376   -1085.2564    20438.831    1.4814877 
    5400    395.35953   -6941.8853   -6897.7823   -346.42452    20419.288    1.4846363 
    5410    397.67177   -6942.0384   -6897.6775    73.498588    20398.672    1.4879456 
    5420    407.43301   -6942.9774   -6897.5276    178.55325    20378.047    1.4906525 
    5430    411.30944    -6943.227   -6897.3448    203.41179    20357.749    1.4930797 
    5440    413.92936   -6943.3175    -6897.143    467.88359    20337.896    1.4949606 
    5450    408.26261    -6942.459   -6896.9166    1254.5509    20319.247    1.4954096 
    5460    404.47634   -6941.7799     -6896.66    1849.6298    20303.621    1.4928067 
    5470      419.951   -6943.2196   -6896.3734    1734.9146    20292.417    1.4868137 
    5480    426.19375   -6943.6228   -6896.0803     1636.752    20285.523    1.4799616 
    5490    411.59635   -6941.7195   -6895.8053    2133.1602    20282.852    1.4738974 
    5500    411.69388   -6941.4666   -6895.5415    2290.4835    20285.432    1.4680625 
    5510    418.80054    -6941.994   -6895.2762       1926.1    20293.691    1.4622099 
    5520    417.82982   -6941.6276   -6895.0181    1214.1156    20306.789    1.4566471 
    5530    416.36098   -6941.2125   -6894.7668    669.36478    20323.113    1.4516482 
    5540    416.11145   -6940.9387   -6894.5209     283.9066    20341.303    1.4483646 
    5550     408.4612   -6939.8474   -6894.2829   -118.04827     20360.33    1.4478937 
    5560    407.88773   -6939.5497   -6894.0492   -302.59603    20379.256    1.4492299 
    5570     410.6721   -6939.6227   -6893.8116    -429.5838    20397.561    1.4510536 
    5580     413.2706   -6939.6782   -6893.5773   -673.42518    20414.874    1.4526795 
    5590    415.81381   -6939.7396   -6893.3549    -1191.655    20430.497    1.4540285 
    5600     410.3737   -6938.9286   -6893.1508   -1618.9721    20443.182    1.4552083 
    5610    404.86452   -6938.1278   -6892.9645   -1628.4086     20451.88    1.4554999 
    5620      411.322   -6938.6739   -6892.7904   -1610.0803    20456.462    1.4543617 
    5630    420.95765   -6939.5926   -6892.6342   -1784.1176    20456.919    1.4533608 
    5640    419.06948    -6939.259   -6892.5112   -1810.8538    20452.867    1.4548415 
    5650    418.06566    -6939.055   -6892.4191   -1586.4238    20444.244    1.4590861 
    5660    421.89582   -6939.4138   -6892.3507   -1277.4002    20431.578    1.4645957 
    5670    430.60129   -6940.3488   -6892.3146   -1131.7083    20415.583    1.4701479 
    5680    426.03003   -6939.8413    -6892.317   -743.73804    20396.741    1.4760932 
    5690    417.72278   -6938.9418   -6892.3442   -187.27288    20376.019    1.4820445 
    5700    421.54184   -6939.4061   -6892.3825    185.35261    20354.748    1.4867456 
    5710    423.71806   -6939.7014    -6892.435    389.70835    20333.868    1.4900769 
    5720    419.98088   -6939.3542   -6892.5047    591.86671    20313.942    1.4927399 
    5730    421.82959   -6939.6394   -6892.5837    514.96612    20295.426    1.4955639 
    5740    430.75571   -6940.7337   -6892.6823    203.73486    20278.104    1.5001282 
    5750    423.91479   -6940.0901   -6892.8018     195.1645    20261.325    1.5079913 
    5760    414.84429   -6939.2019   -6892.9254    439.68952    20245.081    1.5178293 
    5770    413.34686   -6939.1496   -6893.0401     755.0183    20229.944     1.527157 
    5780    414.22888   -6939.3565   -6893.1487    1013.9686    20216.674     1.534126 
    5790    411.66441   -6939.1711   -6893.2493    1169.0548    20205.902    1.5379447 
    5800    414.37852    -6939.567   -6893.3425    1218.0076    20198.008     1.539048 
    5810    414.58353   -6939.6773   -6893.4299    1191.4666    20193.112    1.5390877 
    5820    416.93826   -6940.0278   -6893.5177    1349.1472    20191.237    1.5386403 
    5830     420.4588   -6940.5173   -6893.6145     1586.867    20192.741    1.5377378 
    5840    424.69986    -6941.105   -6893.7291    1600.9003    20198.155     1.537357 
    5850    426.52864   -6941.4507   -6893.8708    1405.4529    20207.524     1.538238 
    5860    416.23988   -6940.4643   -6894.0321    1299.8531    20220.452    1.5398259 
    5870    418.34592   -6940.8695   -6894.2024      1000.68    20236.627    1.5406036 
    5880    422.65559   -6941.5243   -6894.3764     684.0929    20255.365    1.5404137 
    5890    426.84703   -6942.1803   -6894.5649    305.98308    20275.881    1.5403402 
    5900     427.3196    -6942.441   -6894.7729    96.245074    20297.307     1.541824 
    5910    421.44285   -6942.0161   -6895.0035    157.82242    20319.139    1.5457513 
    5920    408.65053   -6940.8193   -6895.2337    213.20169    20341.491     1.552493 
    5930    411.05053    -6941.295   -6895.4417   -317.50916    20364.343    1.5616981 
    5940    419.30086   -6942.3996   -6895.6259   -1242.8461    20386.419    1.5732511 
    5950    420.27468   -6942.6807   -6895.7984   -2120.0634    20405.433    1.5864971 
    5960    412.59496   -6941.9949   -6895.9693   -2145.8096    20419.334    1.5996562 
    5970    399.59189   -6940.6954   -6896.1203   -1583.3792    20427.977    1.6107095 
    5980    405.25895    -6941.446   -6896.2388   -1277.2054    20432.567    1.6190223 
    5990    408.49829   -6941.8991   -6896.3305   -1286.3541    20433.842    1.6266789 
    6000    405.18073   -6941.6003   -6896.4018   -1169.8649    20431.892     1.635968 
    6010    409.42541   -6942.1294   -6896.4574   -859.64761    20427.006    1.6464026 
    6020    401.27524   -6941.2559   -6896.4931   -315.73863    20419.981    1.6561796 
    6030    393.36559   -6940.3827   -6896.5022   -56.009537    20412.067    1.6633046 
    6040    393.10788    -6940.327   -6896.4752   -199.13872    20403.871    1.6664041 
    6050    400.62232   -6941.1073   -6896.4173   -435.19737    20395.094    1.6659218 
    6060    405.42928   -6941.5655   -6896.3393   -343.13518    20385.251    1.6644587 
    6070    405.82063   -6941.5203   -6896.2504   -48.540607    20374.534    1.6640119 
    6080    406.01961    -6941.445   -6896.1529    3.5704642     20363.58    1.6654962 
    6090    413.28545    -6942.156   -6896.0534   -255.61166    20352.504    1.6686531 
    6100    418.27547   -6942.6251   -6895.9658    -464.1091    20340.745    1.6743043 
    6110    416.82166   -6942.3984   -6895.9013   -470.99461    20327.798    1.6831695 
    6120    410.43773   -6941.6391   -6895.8541   -388.26228    20313.602    1.6939043 
    6130    406.67667   -6941.1755   -6895.8102   -264.22037    20298.353    1.7031463 
    6140    408.61226   -6941.3424   -6895.7611    91.013473    20282.416    1.7093028 
    6150    402.72784   -6940.6242   -6895.6993    759.28816    20266.696    1.7136424 
    6160    404.45582    -6940.738   -6895.6203    1315.1035    20252.768    1.7173137 
    6170    412.15693    -6941.501   -6895.5243    1473.4386    20241.959    1.7221997 
    6180     418.8999    -6942.159   -6895.4301    1457.9527    20234.726    1.7295642 
    6190    415.53544   -6941.7045   -6895.3509    1718.4266     20231.17    1.7384182 
    6200    414.41667   -6941.5184   -6895.2896    1933.8511    20231.876    1.7458239 
    6210    420.04835   -6942.1026   -6895.2456    1817.2818    20237.356    1.7507861 
    6220    418.99109   -6941.9593   -6895.2202    1484.0019    20247.384    1.7544749 
    6230    410.88407   -6941.0411   -6895.2063    1122.3878    20261.184    1.7568102 
    6240    409.41067   -6940.8622   -6895.1918    1004.0597    20277.963     1.757213 
    6250    405.00507   -6940.3493   -6895.1704    1051.7696    20297.444    1.7569338 
    6260    405.44295   -6940.3663   -6895.1385    816.74187    20319.684    1.7570245 
    6270     421.8544   -6942.1516   -6895.0931   -77.667133    20344.021    1.7568325 
    6280    427.40654   -6942.7303   -6895.0525   -785.25474    20368.402    1.7555437 
    6290    411.51487   -6940.9433   -6895.0382    -550.5968    20391.241     1.752112 
    6300    401.45386   -6939.8124   -6895.0296   -532.05062    20412.809    1.7454567 
    6310    410.92706   -6940.8427   -6895.0031    -1141.345    20433.068    1.7371868 
    6320    414.55065   -6941.2053   -6894.9616   -1759.3905     20450.59    1.7310982 
    6330    406.90565   -6940.3102   -6894.9192   -2014.8424    20463.836    1.7301859 
    6340    396.66598   -6939.1126   -6894.8639   -1872.3457    20472.139    1.7349666 
    6350    404.68952    -6939.927   -6894.7833   -1751.7781    20475.711    1.7426555 
    6360    410.82132   -6940.5026   -6894.6748   -1602.1031    20474.828    1.7506133 
    6370    413.06658   -6940.6274   -6894.5492   -1288.6906    20469.865    1.7563049 
    6380    414.00894   -6940.5886   -6894.4053    -1046.488    20461.533    1.7580751 
    6390     414.5839    -6940.483   -6894.2356   -965.44453     20450.42     1.755479 
    6400    416.93309   -6940.5368   -6894.0273   -819.59492    20436.744    1.7490663 
    6410    413.77451   -6939.9155   -6893.7584   -304.06401    20420.942    1.7404185 
    6420    423.47586   -6940.6491   -6893.4098    393.10909    20404.263    1.7309929 
    6430    432.41946   -6941.2166   -6892.9796    1144.8422    20388.431    1.7236124 
    6440    418.04554   -6939.1358   -6892.5021    1924.3887    20375.386    1.7197337 
    6450    411.45385   -6937.9032   -6892.0049    1988.9841    20366.947    1.7165478 
    6460    417.29661   -6938.0445   -6891.4945    1394.7589    20363.335    1.7120082 
    6470     419.4775      -6937.8   -6891.0067     815.9633    20363.243     1.706667 
    6480    419.77214   -6937.3996   -6890.5734    368.61434    20365.249     1.700975 
    6490    426.78764   -6937.8148    -6890.206    221.56418     20368.28    1.6957959 
    6500    428.93169   -6937.7612   -6889.9132    587.97663    20372.048     1.692545 
    6510    424.24338   -6937.0223   -6889.6973    842.51613    20377.335    1.6911039 
    6520    435.98565   -6938.1782   -6889.5434    366.23714    20384.655    1.6901464 
    6530    446.68504   -6939.2785   -6889.4501   -415.31537    20392.921    1.6898558 
    6540    441.98734   -6938.7373   -6889.4329   -836.63698    20400.319    1.6902633 
    6550    440.55642   -6938.6341   -6889.4894   -940.09987    20405.731    1.6893705 
    6560    445.35274   -6939.2923   -6889.6126    -831.1197    20408.848    1.6861966 
    6570    451.67422   -6940.1989   -6889.8139   -671.98947    20409.898    1.6816796 
    6580    448.94672   -6940.1764   -6890.0957   -245.08316    20409.321    1.6776789 
    6590    438.45436   -6939.3443   -6890.4341    425.43531    20408.189    1.6761387 
    6600    432.35865   -6939.0277   -6890.7974    580.47722    20408.019    1.6770387 
    6610    435.33255   -6939.7322   -6891.1702    53.775529    20409.183    1.6783186 
    6620    440.17869   -6940.6597   -6891.5572   -430.63444    20410.517    1.6791556 
    6630    429.68356   -6939.8737   -6891.9418   -418.88231    20410.885    1.6802477 
    6640    423.90072   -6939.5845   -6892.2978    -335.2452    20410.201    1.6809788 
    6650    428.92942   -6940.4742   -6892.6265   -458.86513     20408.63    1.6806936 
    6660    421.67184   -6939.9714   -6892.9332   -738.01425    20405.834    1.6797912 
    6670     412.0688   -6939.1666   -6893.1997   -948.66473    20401.152    1.6778598 
    6680    423.68245   -6940.6963   -6893.4339   -1436.1496    20393.918    1.6745462 
    6690    429.43537   -6941.5711    -6893.667   -1628.7726    20383.002    1.6720464 
    6700    423.76813   -6941.1824   -6893.9104   -1349.9112    20367.894    1.6718911 
    6710    425.33891   -6941.6104   -6894.1632   -1217.1977    20349.065     1.673666 
    6720    421.37475    -6941.429    -6894.424   -912.52889    20326.896    1.6773331 
    6730    410.63277   -6940.4802   -6894.6735    -266.6045    20302.161    1.6822255 
    6740    406.26804   -6940.2131   -6894.8932    359.85217    20276.362    1.6868985 
    6750    407.51556   -6940.5387   -6895.0797     947.2043     20251.08    1.6905725 
    6760    410.61396   -6941.0449   -6895.2403    1240.1793    20227.752    1.6925199 
    6770       417.74   -6941.9943   -6895.3948    1303.3221    20207.153    1.6919064 
    6780    413.07894   -6941.6274   -6895.5478    1668.5902      20189.6    1.6879213 
    6790    412.67027   -6941.7325   -6895.6985    1964.8593    20175.948    1.6804328 
    6800    415.58008   -6942.2076    -6895.849    1894.7292    20166.924    1.6733447 
    6810    412.11675   -6941.9675   -6895.9953    1938.8767    20162.533    1.6711692 
    6820    410.06857   -6941.8822   -6896.1384    2061.4863    20162.929    1.6747435 
    6830    410.41621   -6942.0621   -6896.2796    1894.3622    20168.433    1.6823121 
    6840    415.79152   -6942.8076   -6896.4254    1391.9683    20178.684    1.6902324 
    6850    417.48931   -6943.1556    -6896.584    1279.1968    20192.712    1.6954897 
    6860    418.12249   -6943.4055   -6896.7633    1280.1751    20210.227    1.6972059 
    6870    418.05529   -6943.5915   -6896.9568     1040.885    20231.232    1.6974478 
    6880    419.57654    -6943.959   -6897.1546    452.07333    20255.162    1.6999707 
    6890    417.33776   -6943.9096   -6897.3549   -85.517445    20280.652     1.707325 
    6900    408.33719   -6943.1031   -6897.5524   -425.11371    20306.434    1.7188515 
    6910    406.56976   -6943.0892   -6897.7357   -923.78478    20331.548    1.7311763 
    6920    405.66932   -6943.1521   -6897.8991   -1296.0645    20354.775    1.7404249 
    6930    408.79529   -6943.6529   -6898.0511   -1614.9806    20375.106    1.7443618 
    6940    408.36598   -6943.7517   -6898.1978   -1864.0372    20391.661     1.744266 
    6950     405.0632   -6943.5226   -6898.3372   -1809.5255    20403.817    1.7414354 
    6960    404.64368   -6943.6019   -6898.4633   -1860.7294    20411.521    1.7357616 
    6970    403.36821   -6943.5744    -6898.578   -1919.4647    20414.608    1.7287157 
    6980     397.0365   -6942.9627   -6898.6727   -2064.6693    20412.832    1.7234111 
    6990    402.41099    -6943.632   -6898.7425   -2396.9449    20405.698    1.7217382 
    7000    413.90259   -6944.9774    -6898.806   -2530.5163    20392.364    1.7240859 
    7010    413.63985   -6945.0237   -6898.8816   -2203.7892    20372.465    1.7293365 
    7020     411.4872   -6944.8653   -6898.9633   -1416.5773    20346.766     1.734978 
    7030    411.06026   -6944.8856   -6899.0312   -523.04939    20317.102    1.7390345 
    7040    416.93687   -6945.6006   -6899.0906    70.543562    20285.599    1.7409141 
    7050     415.2133   -6945.4748   -6899.1571    449.48841    20253.801    1.7423476 
    7060    406.42385   -6944.5673   -6899.2302    813.14156    20222.705    1.7455281 
    7070    404.59177   -6944.4299   -6899.2971    1185.4486    20193.213    1.7504665 
    7080    409.29434   -6945.0142   -6899.3568    1759.2885     20166.34    1.7559727 
    7090    404.03044   -6944.4854   -6899.4152    2546.1894    20143.559    1.7616983 
    7100    395.31497   -6943.5681   -6899.4701    3125.1728    20126.775    1.7668638 
    7110    399.05711   -6944.0358   -6899.5204    2960.1075    20117.356    1.7701745 
    7120     404.5929   -6944.7027   -6899.5698    2499.1323    20115.087    1.7727454 
    7130    403.40536   -6944.6215    -6899.621    2276.6671    20119.057    1.7769326 
    7140    395.36368   -6943.7677   -6899.6643    2005.7301    20128.715    1.7829948 
    7150    395.08401   -6943.7518   -6899.6796    1502.4784    20143.472    1.7887541 
    7160    407.62296   -6945.1243   -6899.6533    426.24374     20162.09    1.7927248 
    7170    409.96635   -6945.3209   -6899.5885   -550.25536    20182.138    1.7964241 
    7180    404.42253   -6944.6114   -6899.4974    -1033.337    20201.262    1.8023773 
    7190    399.33238   -6943.9238   -6899.3777   -1052.1984    20218.243    1.8107195 
    7200    397.91969   -6943.6079   -6899.2193   -1216.8158    20232.837    1.8183345 
    7210    398.21189   -6943.4359   -6899.0147   -1584.5877    20244.591     1.822619 
    7220    393.84953   -6942.6985    -6898.764   -1825.1523    20252.603    1.8238059 
    7230    391.17344   -6942.1032   -6898.4673    -1656.038    20256.279     1.823012 
    7240    399.97473   -6942.7391   -6898.1213   -1548.8216    20255.838    1.8208247 
    7250    404.84083   -6942.9012   -6897.7406   -1416.5047    20251.497    1.8181441 
    7260    412.30259   -6943.3475   -6897.3545   -1100.6891    20243.546    1.8157924 
    7270    413.91005   -6943.1587   -6896.9864   -619.72706    20232.724    1.8145009 
    7280    404.72179   -6941.7986   -6896.6513   -250.27332    20220.121    1.8146637 
    7290    403.23904   -6941.3201   -6896.3382     -77.0703    20206.639    1.8156948 
    7300    418.49238   -6942.7245   -6896.0411   -141.27687    20192.651    1.8179206 
    7310    413.14764   -6941.8603   -6895.7731    168.87093    20178.125    1.8233144 
    7320    405.65642   -6940.7893   -6895.5377    757.26942    20163.814    1.8312056 
    7330     409.0976   -6940.9487   -6895.3133    1177.7211    20151.069    1.8398362 
    7340    419.63932   -6941.9132   -6895.1018    1581.0605    20141.018    1.8482242 
    7350    430.80744   -6942.9756   -6894.9183    1752.2154     20134.68    1.8544617 
    7360    432.91754    -6943.076   -6894.7834    1596.3552    20132.505    1.8581721 
    7370    424.15201   -6942.0139   -6894.6991     1591.717    20134.319    1.8607947 
    7380    415.85969   -6941.0387   -6894.6489    1465.3084    20140.129    1.8627767 
    7390    414.14148   -6940.8092   -6894.6111    1099.1407    20149.666    1.8653419 
    7400    415.57852   -6940.9348   -6894.5763    822.92209    20162.178    1.8704582 
    7410    418.06449    -6941.182   -6894.5463    452.56671    20176.995    1.8779305 
    7420    426.82755   -6942.1396   -6894.5264   -228.44737    20193.207    1.8854471 
    7430    433.54281   -6942.8975   -6894.5351   -1009.1969    20209.192    1.8913581 
    7440    422.01887   -6941.6598   -6894.5829   -1558.4389    20223.041    1.8945453 
    7450    414.21622   -6940.8635    -6894.657   -1798.0009    20233.344    1.8940854 
    7460    421.20773    -6941.734   -6894.7477   -1926.4506    20239.361    1.8916728 
    7470    428.92484   -6942.7165   -6894.8693   -1744.0542    20240.734    1.8904714 
    7480    426.63454   -6942.6272   -6895.0355   -1065.1728    20237.849    1.8928199 
    7490    416.83925   -6941.7362   -6895.2372    225.80032    20232.379    1.8986725 
    7500    405.19258   -6940.6457   -6895.4459    1140.1096    20227.275    1.9058057 
    7510    412.04496   -6941.6142     -6895.65    969.04279    20224.675    1.9111994 
    7520    422.20853   -6942.9646   -6895.8666    596.37693    20224.432     1.913779 
    7530    408.73801   -6941.6944    -6896.099    618.55007    20225.785    1.9149879 
    7540    402.60088   -6941.2369   -6896.3261    436.81732     20228.67    1.9164577 
    7550    401.10365   -6941.2797    -6896.536    82.502065    20232.664    1.9202461 
    7560    390.98385   -6940.3302   -6896.7153   -17.237417    20237.015    1.9266173 
    7570    399.57508   -6941.4314   -6896.8582   -240.82784    20241.392    1.9321935 
    7580    415.52088   -6943.3334   -6896.9814   -505.18672    20245.224    1.9353078 
    7590    418.24828   -6943.7711   -6897.1149   -297.46977    20247.976    1.9364957 
    7600    407.17149   -6942.6799   -6897.2593    70.267812    20250.091    1.9361009 
    7610    409.17764   -6943.0468   -6897.4024   -209.72681    20252.282    1.9336609 
    7620    417.63541   -6944.1374   -6897.5495   -1015.3942    20253.874    1.9302202 
    7630    412.24045    -6943.697   -6897.7109   -1403.7505    20253.045    1.9279293 
    7640    404.44512   -6942.9964     -6897.88   -1336.2708    20248.777    1.9269012 
    7650    402.53551   -6942.9495   -6898.0461   -1141.0557    20241.078    1.9251433 
    7660    396.10699   -6942.3844    -6898.198   -705.74578    20230.387    1.9208283 
    7670    391.37202   -6941.9811    -6898.323   -209.64541    20217.703    1.9145794 
    7680    391.53978   -6942.0889   -6898.4121    60.618085    20204.187    1.9093498 
    7690    395.93326   -6942.6317   -6898.4648    115.08632    20190.496    1.9068146 
    7700    409.56776   -6944.1785   -6898.4906    153.66587    20176.811    1.9054885 
    7710    424.05799   -6945.8166   -6898.5123    301.60399    20163.258    1.9036882 
    7720    423.68705   -6945.8217   -6898.5587    641.05539    20150.227    1.9000487 
    7730    419.32438   -6945.4215   -6898.6452    905.55868    20138.493     1.892811 
    7740    414.93702   -6945.0635   -6898.7767    1080.5735    20128.767    1.8824113 
    7750    399.84522   -6943.5467   -6898.9433    1297.7854    20121.554    1.8712287 
    7760    393.92872   -6943.0654   -6899.1221    1327.3022    20117.387    1.8604892 
    7770    404.34225   -6944.4093   -6899.3043    933.68058    20116.343    1.8505508 
    7780    410.66423     -6945.31   -6899.4998    603.79435    20117.624    1.8416836 
    7790    407.62232   -6945.1813   -6899.7104    569.54948    20120.514    1.8323716 
    7800    408.61954   -6945.5169   -6899.9347    632.37285    20124.894    1.8202632 
    7810    407.34738   -6945.6115   -6900.1713    622.38757      20130.9    1.8067331 
    7820    401.30157   -6945.1739   -6900.4081    296.44957    20138.503    1.7952757 
    7830    400.95192   -6945.3588    -6900.632   -420.56405     20146.91    1.7877734 
    7840    396.58061   -6945.0786   -6900.8395   -823.52948    20154.502    1.7842326 
    7850    383.61087   -6943.8044   -6901.0121   -835.17906     20160.26    1.7827007 
    7860    386.34458   -6944.2294   -6901.1321   -700.07441    20164.065    1.7799298 
    7870     396.9823   -6945.4889    -6901.205   -401.79561    20166.213    1.7746946 
    7880     390.7063   -6944.8205   -6901.2367    91.210953    20167.464     1.768718 
    7890    394.33847   -6945.2192   -6901.2301    136.66953    20168.865    1.7631836 
    7900     407.7825   -6946.6783   -6901.1896   -329.29654    20170.524    1.7596675 
    7910    411.54473   -6947.0418   -6901.1334   -583.08772    20171.464    1.7608645 
    7920    409.17322   -6946.7169    -6901.073   -544.20866    20171.002    1.7676056 
    7930    411.94619   -6946.9611   -6901.0078   -225.19244    20169.234    1.7782329 
    7940    411.91094   -6946.8855   -6900.9362    63.122841    20166.853     1.790871 
    7950    408.51688   -6946.4288   -6900.8582    354.12963    20164.589    1.8038257 
    7960    403.49348   -6945.7741   -6900.7638    628.96628    20163.182    1.8152975 
    7970    407.52035   -6946.1043   -6900.6448    618.39223    20163.255    1.8243628 
    7980    412.42444   -6946.5077   -6900.5011    589.61014    20164.876     1.832914 
    7990     406.6843   -6945.7051   -6900.3388    729.19312     20168.04    1.8428687 
    8000    402.88914   -6945.0958   -6900.1529    608.68155    20173.017    1.8538416 
    8010    407.16538   -6945.3507   -6899.9308    16.138838    20179.489    1.8646513 
    8020    406.79088   -6945.0547   -6899.6765    -492.3957     20186.12    1.8743052 
    8030    398.08473    -6943.806   -6899.3991     -509.074    20191.725    1.8824532 
    8040    394.28843   -6943.0726   -6899.0891   -262.96205    20196.177    1.8911895 
    8050    398.27232   -6943.1668   -6898.7389    24.108311    20200.026    1.9034922 
    8060    404.38518   -6943.4668    -6898.357    233.88031    20203.976    1.9201881 
    8070    410.16926   -6943.7224   -6897.9674    370.28848    20208.549    1.9407961 
    8080     413.2963   -6943.7048    -6897.601     507.6659    20214.109    1.9631361 
    8090    412.13895   -6943.2508   -6897.2761    534.35571    20220.992    1.9828274 
    8100    413.63603    -6943.133   -6896.9913    270.98049    20229.232    1.9951991 
    8110    416.35024   -6943.1888   -6896.7443   -414.79968    20238.125    1.9991722 
    8120    416.08178   -6942.9536   -6896.5391   -914.10479    20246.102    1.9965277 
    8130    416.58722   -6942.8461   -6896.3752   -967.27315     20251.98    1.9909693 
    8140    420.08502   -6943.1082    -6896.247   -1058.7832    20255.481    1.9879756 
    8150    419.66469   -6942.9678   -6896.1535   -1133.5293    20256.357    1.9898409 
    8160    404.08616   -6941.1615   -6896.0851   -691.99854    20254.517    1.9945579 
    8170    394.91593   -6940.0646   -6896.0112    -148.4333     20250.95    1.9975678 
    8180    411.79765   -6941.8542   -6895.9175   -78.261531    20246.872    1.9950398 
    8190    418.94196   -6942.5513   -6895.8177   -63.654122    20242.539    1.9875269 
    8200    415.81759   -6942.1189   -6895.7338    299.48749     20238.09    1.9790384 
    8210    417.72812   -6942.2619   -6895.6637    553.30343     20234.33    1.9723329 
    8220    424.83663   -6943.0025   -6895.6114    363.98943    20231.795    1.9664576 
    8230    421.25686   -6942.5741   -6895.5823    218.11276    20230.181    1.9610291 
    8240    417.56627   -6942.1576   -6895.5775    257.29694    20229.135     1.956326 
    8250    407.25842   -6941.0113    -6895.581    637.76543    20228.813    1.9528123 
    8260    406.47669   -6940.9235   -6895.5804    795.02552    20230.037     1.951082 
    8270    416.79301   -6942.0666   -6895.5727    434.22525    20233.152    1.9505689 
    8280    426.93674   -6943.2048   -6895.5793   -105.50168    20237.357    1.9489061 
    8290     423.9443   -6942.9037   -6895.6121   -384.36253     20241.41     1.944131 
    8300    420.39271   -6942.5612   -6895.6657   -641.42402    20244.532    1.9356628 
    8310    420.84683    -6942.683   -6895.7369   -865.67231    20246.074    1.9241396 
    8320     425.1071   -6943.2641   -6895.8428   -811.97081    20245.517    1.9117077 
    8330    430.56077   -6944.0258   -6895.9961   -724.30185    20242.936    1.9025085 
    8340    428.01389   -6943.9483   -6896.2027     -637.801    20238.523    1.8987841 
    8350    414.65394   -6942.6993    -6896.444   -240.30044    20232.563    1.8981661 
    8360    413.20781   -6942.7934   -6896.6994    60.227862    20225.948    1.8967699 
    8370    414.85282    -6943.248   -6896.9706    285.62841    20219.441    1.8947829 
    8380    404.34068    -6942.358   -6897.2532    682.92164    20213.671      1.89488 
    8390     396.8127   -6941.7921    -6897.527     939.7343    20209.526    1.8977631 
    8400    403.02524   -6942.7494   -6897.7914    1191.0958    20207.719    1.9021944 
    8410    408.56037   -6943.6291   -6898.0536    1293.7925    20208.839    1.9067571 
    8420    405.58984   -6943.5498   -6898.3057    1356.0462    20213.188    1.9094505 
    8430    408.35682   -6944.0969    -6898.544    1219.3501    20220.889    1.9094796 
    8440     410.6009   -6944.5818   -6898.7787    1133.3984    20231.683    1.9089021 
    8450     401.3386   -6943.7781   -6899.0082     1344.844    20245.433    1.9094353 
    8460    404.34751   -6944.3277   -6899.2221    1106.5977    20262.492    1.9100727 
    8470    409.21037   -6945.0642   -6899.4161    386.80839    20282.271    1.9100341 
    8480    404.65856    -6944.729   -6899.5888    -159.1856    20303.128    1.9104857 
    8490    396.17868   -6943.9236   -6899.7293   -437.54811    20323.683    1.9123384 
    8500    389.30071   -6943.2487   -6899.8216   -732.65852    20343.164    1.9150652 
    8510    395.44349   -6943.9722   -6899.8599    -1396.189     20360.74    1.9178251 
    8520     405.0039   -6945.0343   -6899.8555   -1939.5342    20374.832    1.9211827 
    8530      405.803   -6945.1017   -6899.8338   -1798.7632    20384.167    1.9257627 
    8540    405.44798   -6945.0369   -6899.8086   -1230.7808    20389.054    1.9301625 
    8550    402.29211   -6944.6517   -6899.7754   -936.67438    20390.765    1.9329154 
    8560    394.64271    -6943.746    -6899.723   -772.68942    20390.081     1.934217 
    8570    386.63006   -6942.7623   -6899.6331   -574.89208    20387.445    1.9356126 
[...]
   22890    421.94068   -6947.2376   -6900.1695   -774.16304    20267.302    3.1325683 
   22900    418.59316   -6947.2354   -6900.5407   -652.72741    20273.495    3.1259888 
   22910    419.52811   -6947.7339   -6900.9349   -466.72287    20277.993    3.1177665 
   22920    406.46453   -6946.6672   -6901.3255    47.080711    20281.384    3.1109191 
   22930    396.82896   -6945.9349    -6901.668    111.42976    20284.745    3.1071647 
   22940    405.40499   -6947.1807   -6901.9571   -606.24076    20288.143    3.1067703 
   22950    406.02493   -6947.4965   -6902.2038   -1159.5889    20290.031    3.1099243 
   22960    401.29867   -6947.1791   -6902.4136   -1318.9392    20289.088    3.1155381 
   22970    403.54878   -6947.6012   -6902.5847   -1260.8335    20284.913    3.1218532 
   22980     411.8502   -6948.6703   -6902.7278   -930.11275    20277.693    3.1282105 
   22990    410.30454    -6948.622   -6902.8519   -334.05454    20268.295    3.1341565 
   23000     404.1502   -6948.0376    -6902.954   -164.34867    20258.089    3.1384977 
   23010    402.93288   -6947.9809   -6903.0332   -482.38991    20247.478    3.1401717 
   23020    395.18325   -6947.1691   -6903.0858   -446.93371    20235.877     3.138642 
   23030    385.79828   -6946.1337   -6903.0973   -237.82112    20223.329    3.1344589 
   23040    387.36283   -6946.2688   -6903.0579   -199.96559     20210.28    3.1313007 
   23050    387.45869   -6946.1875   -6902.9659    10.818166    20196.919    3.1332892 
   23060    387.11818   -6946.0051   -6902.8214    498.07882    20183.782    3.1401086 
   23070    397.18076    -6946.933   -6902.6269     808.8841    20171.954    3.1491093 
   23080    409.79077   -6948.1143   -6902.4015    916.01406    20162.165    3.1581568 
   23090    410.53508   -6947.9669    -6902.171    1188.4502    20154.752    3.1647764 
   23100    413.96153   -6948.1284   -6901.9504    1391.0885    20150.313    3.1679171 
   23110     410.6661   -6947.5524    -6901.742    1742.8012    20149.378    3.1708496 
   23120    408.52203   -6947.1202    -6901.549    1864.9885     20152.69    3.1754515 
   23130    411.50062   -6947.2718   -6901.3683    1483.4571    20160.445    3.1808727 
   23140    399.36443   -6945.7445   -6901.1948    1315.1528    20171.883    3.1865761 
   23150    399.15863   -6945.5462   -6901.0195     976.4066    20186.452    3.1914031 
   23160    407.80974   -6946.3209   -6900.8292    649.71791    20203.348    3.1956452 
   23170    406.96927   -6946.0356   -6900.6376    442.95238    20221.796    3.1990357 
   23180    404.03795   -6945.5232   -6900.4521    214.17946    20241.261    3.1994682 
   23190    404.53511   -6945.3918   -6900.2653   -448.52325    20261.031    3.1980014 
   23200    406.21273    -6945.387   -6900.0733   -1267.5941    20279.544    3.1980377 
   23210    413.96072   -6946.0664   -6899.8885    -1843.306    20294.858     3.200908 
   23220    418.30499   -6946.3923   -6899.7298   -2099.3409    20305.529    3.2070135 
   23230    409.53569    -6945.289   -6899.6047   -1853.4394    20311.011     3.215671 
   23240    411.61594   -6945.4204    -6899.504   -1763.2084    20311.763    3.2233922 
   23250    411.94136   -6945.3717   -6899.4191   -1705.5369    20308.101    3.2285889 
   23260    405.71694   -6944.6066   -6899.3483   -1497.6434    20300.232    3.2315503 
   23270    402.62651   -6944.1883   -6899.2747   -1055.2154    20288.724    3.2317589 
   23280    409.33688   -6944.8547   -6899.1925   -595.66301     20274.66     3.228325 
   23290    412.71847    -6945.148   -6899.1086   -285.48494    20259.174    3.2223249 
   23300    412.84287   -6945.0836   -6899.0304   -321.33279     20242.99    3.2155265 
   23310    417.49211   -6945.5327   -6898.9608   -307.51949    20226.133    3.2081379 
   23320    427.28601   -6946.5765   -6898.9121   -229.48009     20208.61    3.2007143 
   23330    423.54467   -6946.1413   -6898.8943    382.51581    20190.753     3.196892 
   23340    411.58483   -6944.8048   -6898.8919    1402.5521    20174.056    3.1977561 
   23350    410.28018   -6944.6546   -6898.8872    2031.4203    20160.838    3.2009226 
   23360     413.3985   -6944.9941   -6898.8789    2139.0208    20152.613    3.2049383 
   23370    409.73059   -6944.5792   -6898.8731    1969.9876    20149.655    3.2091858 
   23380    400.81329   -6943.5753   -6898.8639    1709.5337    20151.556     3.213671 
   23390    402.01592   -6943.6823   -6898.8369    1275.2094    20157.642    3.2188472 
   23400    415.02425   -6945.0865   -6898.7899    593.03486    20166.794     3.225062 
   23410    425.52103   -6946.2105    -6898.743     103.0719    20177.417    3.2326692 
   23420     425.3336    -6946.168   -6898.7213    46.237333    20188.357    3.2428635 
   23430    417.94726   -6945.3529   -6898.7302    199.75843    20199.405    3.2572757 
   23440    409.28002   -6944.4038    -6898.748    377.53073    20210.924    3.2748952 
   23450    418.69658   -6945.4704   -6898.7642     123.0946    20223.249    3.2906384 
   23460     420.9892   -6945.7479   -6898.7859   -306.41984    20235.795    3.3008065 
   23470    412.08175    -6944.793   -6898.8246   -796.94191     20247.52    3.3058196 
   23480    409.21175   -6944.5174   -6898.8692   -1396.5598    20257.216     3.308272 
   23490    414.30216   -6945.1322   -6898.9161    -1836.114    20263.439    3.3109931 
   23500    419.30063   -6945.7541   -6898.9804   -1588.2453    20265.216    3.3149701 
   23510    416.12645   -6945.4928   -6899.0733   -804.38894    20263.136    3.3194926 
   23520     416.4608   -6945.6513   -6899.1945   -136.13206    20259.042    3.3242794 
   23530    420.34668   -6946.2439   -6899.3536    271.81599    20254.584    3.3310148 
   23540     415.8116   -6945.9504    -6899.566    601.06966      20250.8    3.3420346 
   23550     410.5021   -6945.6224   -6899.8303     978.4125    20248.552    3.3575454 
   23560     414.5084   -6946.3919   -6900.1529    1261.1974    20248.738     3.375333 
   23570    404.01042   -6945.5975   -6900.5295    1565.7994    20252.082    3.3923095 
   23580    395.03604   -6944.9922   -6900.9253    1616.7111    20259.278    3.4038699 
   23590    402.70647   -6946.2423   -6901.3198    1134.3866    20270.393    3.4087221 
   23600    405.36253   -6946.9222   -6901.7034    523.24395    20284.329    3.4117041 
   23610    398.58617   -6946.5212   -6902.0583    100.82599    20299.602    3.4181402 
   23620    399.06555    -6946.881   -6902.3646   -121.37387    20315.164    3.4307146 
   23630    414.24937   -6948.8466   -6902.6364    -280.8776     20330.42     3.447674 
   23640    415.95411   -6949.2954   -6902.8951   -258.44137    20344.985    3.4646859 
   23650    397.43562   -6947.4662   -6903.1316    111.41059    20358.954    3.4784227 
   23660    385.29882   -6946.2954   -6903.3148    205.42689    20373.118    3.4863323 
   23670    390.03337   -6946.9398    -6903.431   -376.78362    20387.624    3.4875935 
   23680    391.44835    -6947.153   -6903.4863   -880.83458    20401.181     3.484835 
   23690    387.67539   -6946.7356   -6903.4898   -1173.8653    20412.525    3.4816812 
   23700    393.75467   -6947.3716   -6903.4477   -1361.8456     20420.91    3.4801649 
   23710    407.15302   -6948.7917   -6903.3732   -1565.3929    20425.806    3.4801897 
   23720     416.9363   -6949.8033   -6903.2935   -1497.7784    20426.776    3.4809184 
   23730    411.02461   -6949.0786   -6903.2282   -996.28416    20424.059    3.4817243 
   23740    397.73682   -6947.5329   -6903.1648   -572.06928     20418.82    3.4805749 
   23750    405.75699   -6948.3463   -6903.0835   -798.94167    20411.974    3.4753314 
   23760     417.7096     -6949.58   -6902.9838   -1266.4536    20403.051    3.4676417 
   23770     417.2809   -6949.4379   -6902.8895   -1408.8907    20391.015    3.4603012 
   23780    406.45239   -6948.1448   -6902.8044   -1118.9366    20375.531    3.4551855 
   23790    396.51356   -6946.9367    -6902.705   -428.35906    20357.348    3.4535146 
   23800    400.87825     -6947.29   -6902.5714     84.45489    20338.067    3.4544544 
   23810    402.58703   -6947.3085   -6902.3993    381.75462    20319.017    3.4559876 
   23820    405.36328   -6947.4152   -6902.1963    346.96308    20300.885    3.4548711 
   23830     411.1068   -6947.8259   -6901.9663     418.8791    20283.705    3.4494409 
   23840    408.36413   -6947.2704   -6901.7168    858.87529    20267.728    3.4420279 
   23850    415.18341   -6947.7721   -6901.4578    882.55083    20253.853    3.4350956 
   23860    429.22313   -6949.0874    -6901.207     486.6658    20242.136    3.4312834 
   23870    418.61888   -6947.6804   -6900.9828    676.64623    20231.823     3.432592 
   23880    416.94226   -6947.2938   -6900.7832    991.81517    20223.236    3.4370919 
   23890    427.15976   -6948.2481   -6900.5978    1078.5845     20217.06    3.4429453 
   23900    423.85971    -6947.722   -6900.4398    1500.7385    20213.676    3.4483291 
   23910    420.09389   -6947.1746   -6900.3125    2035.3685    20214.057    3.4505025 
   23920    418.81589   -6946.9279   -6900.2083    2571.2245    20219.529    3.4491931 
   23930    412.98427   -6946.1942   -6900.1252    2854.3116     20231.36      3.44612 
   23940    408.79267   -6945.6572   -6900.0558    2762.3273    20250.232    3.4422118 
   23950    411.53644   -6945.8924   -6899.9849    2258.9774    20275.905    3.4376508 
   23960    416.57635   -6946.3723   -6899.9026    1636.3269    20307.225    3.4323715 
   23970    409.72169   -6945.5104   -6899.8053    1288.7804    20342.751    3.4257843 
   23980    405.88469   -6944.9586   -6899.6816    1013.8807    20381.547    3.4181972 
   23990    409.46765   -6945.1814   -6899.5047     388.7531    20422.771    3.4106275 
   24000    414.27083   -6945.4648   -6899.2522   -338.31948    20464.887    3.4052278 
   24010    427.77156   -6946.6291   -6898.9105   -1219.0589     20505.97    3.4044895 
   24020    431.10194   -6946.5711    -6898.481   -1931.0628     20543.81     3.409262 
   24030     421.1091    -6944.963   -6897.9876   -2274.6109    20576.615    3.4170226 
   24040    421.70952   -6944.4733    -6897.431   -2820.0874    20603.334    3.4249316 
   24050     426.8247   -6944.4355   -6896.8225   -3482.9876    20622.585    3.4341027 
   24060    423.52263   -6943.4718   -6896.2272   -3504.6056    20632.853    3.4469038 
   24070     425.4341   -6943.1593   -6895.7015   -2939.8375    20634.123    3.4612779 
   24080     437.2343   -6944.0409   -6895.2668   -2340.1673    20627.798     3.472507 
   24090    438.67054    -6943.878   -6894.9437   -1814.1622     20615.45    3.4789623 
   24100    436.13972    -6943.381    -6894.729   -1278.4673    20598.525    3.4807026 
   24110    441.16384   -6943.8124   -6894.5999   -904.55219    20578.406    3.4790801 
   24120    440.93707   -6943.7333   -6894.5461   -597.76176    20556.117    3.4775125 
   24130    435.05702   -6943.0901   -6894.5589   -493.65235    20532.435    3.4772463 
   24140    436.23313   -6943.2878   -6894.6254   -670.81098    20507.642    3.4793602 
   24150    440.76334   -6943.9151   -6894.7473   -794.95281    20481.361    3.4873235 
   24160    436.44001    -6943.603   -6894.9174   -363.85864    20453.434    3.5013879 
   24170    436.52117   -6943.8137   -6895.1191    450.17773    20424.944    3.5168971 
   24180    437.81964   -6944.1881   -6895.3487    1458.6654    20397.944    3.5310378 
   24190    427.97081   -6943.3389   -6895.5981    2114.7398    20374.832    3.5426822 
   24200     428.1129   -6943.6217    -6895.865    2121.8368    20357.126    3.5495064 
   24210    430.17633   -6944.1402   -6896.1534    1867.4134    20344.869    3.5518286 
   24220    423.07917   -6943.6483   -6896.4532    1569.9061    20337.413    3.5520335 
   24230    424.49692   -6944.1024   -6896.7491    962.91454    20333.897    3.5502005 
   24240    431.04266    -6945.129   -6897.0456    335.03293    20332.819    3.5464519 
   24250    428.14278   -6945.1027   -6897.3427    386.42349    20332.759    3.5415641 
   24260    427.39013   -6945.3137   -6897.6377    567.57041     20333.69    3.5360191 
   24270    429.70669    -6945.865   -6897.9306    553.31531    20336.007    3.5298738 
   24280    431.84573   -6946.4006   -6898.2276    352.11306    20339.654    3.5229348 
   24290    425.76682   -6946.0161   -6898.5212    290.02877      20344.2     3.515821 
   24300    422.27983   -6945.9092   -6898.8032    189.49739    20349.424     3.508056 
   24310    416.00434   -6945.4727   -6899.0668    30.777546    20355.086    3.4995938 
   24320     403.7557   -6944.3373   -6899.2978   -151.43527    20360.789    3.4914228 
   24330    403.84645    -6944.533   -6899.4833    -550.4271    20366.022    3.4837695 
   24340    421.25903   -6946.6364   -6899.6443    -1170.614    20369.764    3.4761992 
   24350    424.90987   -6947.2114    -6899.812   -1471.4119    20370.613    3.4700118 
   24360    424.08303   -6947.3054   -6899.9983   -1609.6892    20367.771    3.4659254 
   24370    429.83919   -6948.1574   -6900.2082   -1702.9874    20360.903    3.4646892 
   24380    427.25821   -6948.1079   -6900.4466   -1481.5638    20349.878    3.4680971 
   24390    418.30912   -6947.3642   -6900.7012   -836.29269    20335.304    3.4751353 
   24400    409.47514   -6946.6229   -6900.9453   -256.63635    20318.703    3.4823906 
   24410    407.80942   -6946.6551   -6901.1634   -40.804246    20301.483    3.4884106 
   24420    408.75948   -6946.9519   -6901.3541   -51.702576    20284.243    3.4942499 
   24430    406.73504    -6946.895   -6901.5231   -126.00841    20266.957    3.5002764 
   24440    404.52402   -6946.7939   -6901.6686    91.736751    20249.538    3.5058949 
   24450    403.66818   -6946.8186   -6901.7888    598.34633    20232.526     3.510914 
   24460     399.7803   -6946.4741   -6901.8781    1447.7902    20217.217    3.5147914 
   24470    393.85792   -6945.8658   -6901.9304     2012.393    20205.538    3.5160354 
   24480     401.0281   -6946.6858   -6901.9505    1902.3412    20198.791    3.5137684 
   24490    415.38179   -6948.2935    -6901.957    1412.2668    20196.733    3.5097776 
   24500    417.59296   -6948.5553   -6901.9721    1033.5112    20198.218    3.5065189 
   24510    409.65104    -6947.697   -6901.9998    753.74962    20202.288    3.5031971 
   24520    408.03898   -6947.5442   -6902.0268    248.32672    20208.147    3.4966465 
   24530    411.04891   -6947.8994   -6902.0463   -326.68332    20214.589    3.4863848 
   24540    413.13538   -6948.1473   -6902.0614   -646.37367    20220.265    3.4755079 
   24550    414.07133   -6948.2703     -6902.08   -745.78293    20224.346     3.467728 
   24560    401.77985   -6946.9156   -6902.0964   -383.67315    20226.665    3.4645148 
   24570    399.64855   -6946.6736   -6902.0922    22.542588    20228.029    3.4641079 
   24580    411.72418   -6947.9889   -6902.0604    65.451222    20229.345    3.4662335 
   24590    407.12117   -6947.4264   -6902.0114    356.17094     20230.89    3.4724968 
   24600    397.15065   -6946.2525   -6901.9498    753.51649    20233.355    3.4813779 
   24610    394.46925   -6945.8595   -6901.8558    573.17015    20237.552    3.4888959 
   24620    401.82615   -6946.5374   -6901.7131   -25.712754    20243.069     3.491974 
   24630    402.95508   -6946.4616   -6901.5114   -379.58879    20248.546    3.4915157 
   24640    401.82564   -6946.0757   -6901.2514   -266.15553    20253.143     3.488961 
   24650    402.26674   -6945.7965    -6900.923    26.972345    20257.087    3.4832585 
   24660    406.20356   -6945.8437   -6900.5311    269.34794    20261.072    3.4719123 
   24670    410.76362   -6945.9127   -6900.0914    343.49909    20265.667    3.4563927 
   24680    416.40112    -6946.086   -6899.6358    213.73952    20271.044    3.4437987 
   24690    428.00757   -6946.9475   -6899.2026   -132.93293    20276.856     3.441088 
   24700    425.38639   -6946.2835    -6898.831   -135.38201    20282.381    3.4504223 
   24710    408.03353   -6944.0483   -6898.5316    203.55476    20287.606    3.4660524 
   24720    409.19869   -6943.9199   -6898.2731    135.83527    20293.204    3.4791124 
   24730    420.27726   -6944.9188   -6898.0363   -150.00147     20299.07    3.4853596 
   24740    423.80535   -6945.1133   -6897.8371   -141.43455    20304.592    3.4860203 
   24750     425.9524   -6945.2007    -6897.685    17.092932    20309.759    3.4846775 
   24760    422.45419   -6944.7049   -6897.5795    19.330193    20314.878    3.4855528 
   24770    408.37649    -6943.064    -6897.509   -4.6593943    20320.009      3.49167 
   24780    403.54109   -6942.4616    -6897.446   -275.86941    20325.026    3.5011299 
   24790    413.27767   -6943.4787    -6897.377   -647.15897    20329.298    3.5091962 
   24800    418.72874   -6944.0219    -6897.312   -890.46978    20331.972    3.5133791 
   24810    422.02794   -6944.3442   -6897.2663   -1173.6956    20332.373    3.5127249 
   24820    426.23303   -6944.7933   -6897.2464   -1192.3464    20329.888    3.5072226 
   24830    425.60579   -6944.7325   -6897.2556   -840.70701    20324.503    3.4980076 
   24840    428.30416   -6945.0739    -6897.296   -363.50901     20317.08    3.4871054 
   24850    429.92711   -6945.3292   -6897.3702    106.75471    20308.801    3.4775377 
   24860    428.06569   -6945.2304    -6897.479    476.45094    20300.837    3.4719762 
   24870     427.7277   -6945.3375   -6897.6238    292.03681    20293.992    3.4700514 
   24880    427.70192   -6945.5127   -6897.8019   -277.66722    20287.823    3.4696833 
   24890      432.044    -6946.215   -6898.0198   -630.54261    20281.028    3.4707733 
   24900    429.12532   -6946.1482   -6898.2786   -464.63654    20272.798    3.4738352 
   24910    426.36777   -6946.1291   -6898.5672   -54.332258    20263.491    3.4775743 
   24920     429.6732   -6946.8076   -6898.8769    274.22805     20254.07    3.4813622 
   24930    427.94327   -6946.9425   -6899.2048    634.31216    20245.399    3.4864321 
   24940    422.72914   -6946.6914   -6899.5353    919.07313    20238.336    3.4926708 
   24950    418.81113   -6946.5696   -6899.8505    987.69348    20233.551    3.4988455 
   24960    419.37474   -6946.9216   -6900.1397    794.39308    20231.203    3.5045642 
   24970    421.38014   -6947.4074   -6900.4018    211.70911    20230.752    3.5088512 
   24980     418.6487   -6947.3376   -6900.6367   -263.57844    20230.863    3.5114571 
   24990    412.21019   -6946.8189   -6900.8363     109.7911    20230.506    3.5137448 
   25000    408.44049   -6946.5595   -6900.9973    1026.7277    20230.542    3.5166891 
Loop time of 11045.6 on 16 procs for 20000 steps with 864 atoms

Performance: 0.156 ns/day, 153.411 hours/ns, 1.811 timesteps/s
96.8% CPU use with 16 MPI tasks x 1 OpenMP threads

MPI task timing breakdown:
Section |  min time  |  avg time  |  max time  |%varavg| %total
---------------------------------------------------------------
Pair    | 4660.5     | 8551.7     | 10994      |1880.9 | 77.42
Bond    | 0.0024774  | 0.0044537  | 0.0085433  |   2.7 |  0.00
Neigh   | 0.17879    | 0.28184    | 0.37948    |  11.6 |  0.00
Comm    | 43.707     | 1878.7     | 5448       |3851.0 | 17.01
Output  | 1.916      | 1.9388     | 2.2673     |   6.1 |  0.02
Modify  | 3.3777     | 612.86     | 1344       |1999.0 |  5.55
Other   |            | 0.08351    |            |       |  0.00

Nlocal:        54.0000 ave          71 max          38 min
Histogram: 3 0 2 2 1 1 2 2 1 2
Nghost:        512.875 ave         579 max         451 min
Histogram: 4 1 1 0 2 2 2 0 1 3
Neighs:         0.00000 ave           0 max           0 min
Histogram: 16 0 0 0 0 0 0 0 0 0
FullNghs:      2401.62 ave        3884 max        1291 min
Histogram: 3 2 2 0 2 1 2 2 1 1

Total # of neighbors = 38426
Ave neighs/atom = 44.474537
Ave special neighs/atom = 0.0000000
Neighbor list builds = 2000
Dangerous builds = 2000
Total wall time: 3:50:27
