LAMMPS (2 Aug 2023)
OMP_NUM_THREADS environment is not set. Defaulting to 1 thread. (src/comm.cpp:98)
  using 1 OpenMP thread(s) per MPI task
Reading restart file ...
  restart file = 2 Aug 2023, LAMMPS = 2 Aug 2023
  restoring atom style full from restart
  orthogonal box = (-1.043091 -0.71039117 -9.0393714) to (23.779066 23.446366 77.247295)
  1 by 1 by 1 MPI processor grid
  pair style chgnet/gpu stores no restart info
  1536 atoms
Finding 1-2 1-3 1-4 neighbors ...
  special bond factors lj:    0        0        0       
  special bond factors coul:  0        0        0       
     0 = max # of 1-2 neighbors
     0 = max # of 1-3 neighbors
     0 = max # of 1-4 neighbors
     1 = max # of special neighbors
  special bonds CPU = 0.001 seconds
  read_restart CPU = 0.077 seconds
Resetting peratom fix info from restart file:
  fix style: STORE/ATOM, fix ID: msd_COMPUTE_STORE
All restart file peratom fix info was re-assigned
Neighbor list info ...
  update: every = 1 steps, delay = 10 steps, check = yes
  max neighbors/atom: 2000, page size: 100000
  master list distance cutoff = 6.3
  ghost atom cutoff = 6.3
  binsize = 3.15, bins = 8 8 28
  1 neighbor lists, perpetual/occasional/extra = 1 0 0
  (1) pair chgnet/gpu, perpetual
      attributes: full, newton on
      pair build: full/bin
      stencil: full/bin/3d
      bin: standard
Setting up Verlet run ...
  Unit style    : metal
  Current step  : 20000
  Time step     : 0.001
Per MPI rank memory allocation (min/avg/max) = 6.547 | 6.547 | 6.547 Mbytes
   Step          Temp          PotEng         TotEng         Press          Volume        c_msd[4]   
     20000   1497.4781     -5523.0938     -5225.9726      3591.304       51739.452      56.877471    
     20010   1507.3596     -5525.0541     -5225.9723      3626.0199      51738.892      57.035414    
     20020   1515.2974     -5526.6555     -5225.9988      3460.213       51737.549      57.189232    
     20030   1520.6378     -5527.8201     -5226.1038      3265.4909      51735.531      57.322889    
     20040   1507.0534     -5525.2987     -5226.2777      3289.97        51732.687      57.418696    
     20050   1510.775      -5526.2816     -5226.5222      3196.3865      51729.165      57.496672    
     20060   1512.2076     -5526.8899     -5226.8462      3077.2202      51725.09       57.570062    
     20070   1487.9779     -5522.4727     -5227.2365      3137.1042      51720.484      57.636165    
     20080   1481.5618     -5521.6106     -5227.6475      3063.6402      51715.38       57.695395    
     20090   1486.7515     -5523.0696     -5228.0768      3063.4641      51709.783      57.750933    
     20100   1491.4197     -5524.4615     -5228.5425      3207.1493      51703.947      57.797429    
     20110   1483.7029     -5523.4658     -5229.0779      3451.5269      51697.937      57.856205    
     20120   1462.074      -5519.7169     -5229.6205      3660.7878      51691.764      57.962516    
     20130   1465.3206     -5520.9199     -5230.1793      3431.5201      51685.349      58.090726    
     20140   1466.6929     -5521.7747     -5230.7618      3226.4143      51678.367      58.224356    
     20150   1473.7739     -5523.8104     -5231.3926      3033.6552      51670.562      58.374356    
     20160   1468.6278     -5523.4548     -5232.058       2945.0891      51661.706      58.538592    
     20170   1481.527      -5526.8057     -5232.8495      2794.236       51651.358      58.697488    
     20180   1467.3637     -5524.8959     -5233.7499      3121.7675      51639.413      58.829517    
     20190   1466.4218     -5525.7396     -5234.7805      3423.5507      51626.208      58.92566     
     20200   1489.9281     -5531.5477     -5235.9246      3312.4071      51612.169      58.990414    
     20210   1482.413      -5531.3906     -5237.2587      3395.4933      51597.427      59.054341    
     20220   1483.5838     -5533.1235     -5238.7593      3254.0759      51582.015      59.131693    
     20230   1487.267      -5535.4977     -5240.4026      3002.533       51565.637      59.213008    
     20240   1482.0195     -5536.2092     -5242.1553      2850.6812      51547.879      59.284283    
     20250   1466.7518     -5534.9242     -5243.8996      2991.7063      51528.835      59.33519     
     20260   1435.6069     -5530.329      -5245.484       3534.0805      51509.074      59.351993    
     20270   1442.7725     -5533.0928     -5246.826       3761.3106      51489.407      59.342532    
     20280   1438.7795     -5533.4246     -5247.9501      4127.28        51470.3        59.330166    
     20290   1444.2392     -5535.4424     -5248.8846      4366.6269      51452.01       59.313197    
     20300   1424.5192     -5532.2498     -5249.6048      4526.1604      51434.573      59.281629    
     20310   1425.1006     -5532.8851     -5250.1248      4169.48        51417.597      59.246773    
     20320   1421.4334     -5532.5167     -5250.484       3796.2998      51400.391      59.223398    
     20330   1440.8705     -5536.5905     -5250.7011      3597.9871      51382.611      59.204527    
     20340   1456.4267     -5539.7933     -5250.8174      3664.4632      51364.566      59.176426    
     20350   1465.2655     -5541.6577     -5250.928       3548.5574      51346.843      59.146668    
     20360   1465.4417     -5541.8148     -5251.0502      3442.2511      51329.851      59.131909    
     20370   1471.8755     -5543.228      -5251.1868      3209.4568      51313.797      59.127049    
     20380   1490.392      -5547.1223     -5251.4072      2904.9363      51298.686      59.129432    
     20390   1483.9688     -5546.1562     -5251.7156      2940.9037      51284.468      59.130886    
     20400   1469.0212     -5543.6184     -5252.1436      3238.7083      51271.009      59.12249     
     20410   1440.0948     -5538.3314     -5252.596       3803.7391      51258.122      59.112155    
     20420   1446.7106     -5540.0841     -5253.036       4014.9198      51245.868      59.114611    
     20430   1466.9115     -5544.52       -5253.4638      3757.9148      51234.624      59.129737    
     20440   1479.0652     -5547.4373     -5253.9695      3405.3497      51224.42       59.166218    
     20450   1469.9022     -5546.2306     -5254.5809      3037.6677      51214.796      59.248443    
     20460   1458.6762     -5544.7203     -5255.2981      2447.2011      51205.103      59.358721    
     20470   1445.534      -5542.8889     -5256.0743      2006.0054      51194.537      59.452218    
     20480   1416.3454     -5537.8931     -5256.8699      2102.8182      51182.519      59.512878    
     20490   1401.3217     -5535.6292     -5257.5869      2570.8024      51168.953      59.548318    
     20500   1396.0663     -5535.174      -5258.1744      2986.5171      51154.099      59.569475    
     20510   1404.3969     -5537.3192     -5258.6668      3141.5531      51137.956      59.588072    
     20520   1385.2737     -5533.8625     -5259.0044      3576.4547      51120.814      59.614036    
     20530   1413.636      -5539.719      -5259.2334      3419.511       51103.24       59.649671    
     20540   1418.8756     -5540.8945     -5259.3693      3223.3443      51085.117      59.684479    
     20550   1423.8783     -5541.9822     -5259.4643      2927.2452      51066.252      59.70485     
     20560   1437.3848     -5544.7236     -5259.5259      2819.9414      51046.754      59.714074    
     20570   1454.7402     -5548.2795     -5259.6382      2856.5392      51026.883      59.729596    
     20580   1447.1297     -5546.9539     -5259.8226      3339.3092      51007.039      59.751438    
     20590   1453.6438     -5548.552      -5260.1283      3658.3319      50987.744      59.756987    
     20600   1447.5174     -5547.8013     -5260.5931      3925.6414      50969.183      59.743959    
     20610   1445.6303     -5548.1125     -5261.2788      4130.055       50951.532      59.744689    
     20620   1429.108      -5545.7406     -5262.1851      4456.7699      50934.833      59.779763    
     20630   1430.1544     -5547.1201     -5263.357       4534.563       50919.282      59.840624    
     20640   1394.3827     -5541.3702     -5264.7047      4863.0199      50905.149      59.919655    
     20650   1385.1668     -5541.0143     -5266.1774      4999.9491      50892.576      60.006956    
     20660   1356.4377     -5536.7087     -5267.5721      4843.8342      50881.473      60.095148    
     20670   1370.5159     -5540.7737     -5268.8437      4171.2219      50871.945      60.170334    
     20680   1397.1225     -5547.1981     -5269.989       3522.0494      50863.8        60.221287    
     20690   1413.0406     -5551.4568     -5271.0893      3106.2012      50856.383      60.258295    
     20700   1410.3632     -5552.0101     -5272.1739      3101.4329      50848.875      60.30306     
     20710   1388.927      -5548.7695     -5273.1865      3402.8111      50840.841      60.358569    
     20720   1391.81       -5550.2421     -5274.087       3469.6758      50832.414      60.422036    
     20730   1416.4783     -5555.9707     -5274.9211      3410.2404      50823.71       60.506193    
     20740   1412.1566     -5555.9048     -5275.7127      3629.1448      50814.784      60.614695    
     20750   1385.9952     -5551.4817     -5276.4804      4029.5514      50805.775      60.72473     
     20760   1368.3546     -5548.6289     -5277.1277      4177.5562      50796.813      60.810165    
     20770   1381.2016     -5551.6868     -5277.6366      3859.9109      50788.02       60.873645    
     20780   1375.6247     -5550.9756     -5278.0319      3686.884       50779.034      60.94388     
     20790   1352.4221     -5546.6528     -5278.3129      3851.4396      50769.675      61.020229    
     20800   1324.5955     -5541.2076     -5278.3889      4063.896       50760.449      61.098847    
     20810   1336.908      -5543.499      -5278.2373      4085.5393      50751.778      61.181884    
     20820   1366.8514     -5549.0676     -5277.8647      4307.8411      50743.683      61.258952    
     20830   1407.8005     -5556.6998     -5277.372       4506.0478      50736.048      61.3098      
     20840   1408.5363     -5556.3168     -5276.843       5056.5062      50728.78       61.352879    
     20850   1401.3178     -5554.363      -5276.3215      5171.5367      50722.36       61.415077    
     20860   1427.1295     -5558.978      -5275.8151      4548.237       50716.824      61.506871    
     20870   1405.6248     -5554.2506     -5275.3545      4324.0479      50711.48       61.628298    
     20880   1415.6308     -5555.8286     -5274.9472      3840.4927      50706.126      61.769482    
     20890   1429.3843     -5558.1995     -5274.5891      3449.0998      50700.565      61.915021    
     20900   1417.9927     -5555.6605     -5274.3105      3333.6675      50694.496      62.050847    
     20910   1427.3433     -5557.3367     -5274.1313      3313.7494      50687.982      62.156093    
     20920   1406.941      -5553.2179     -5274.0607      3468.1528      50681.234      62.240749    
     20930   1403.1267     -5552.4445     -5274.044       3429.0871      50674.51       62.327471    
     20940   1401.2985     -5552.1354     -5274.0977      3371.0199      50668.052      62.419208    
     20950   1373.398      -5546.71       -5274.2081      3950.4578      50662.068      62.512578    
     20960   1373.5402     -5546.8052     -5274.2751      4268.6054      50657.058      62.618343    
     20970   1405.1375     -5553.145      -5274.3456      4076.158       50653.423      62.757078    
     20980   1436.2027     -5559.4688     -5274.5056      3751.2327      50651.132      62.931713    
     20990   1448.1928     -5562.2626     -5274.9204      3580.7284      50649.949      63.117445    
     21000   1417.5946     -5556.9122     -5275.6412      3937.5756      50649.788      63.300846    
     21010   1423.41       -5559.1198     -5276.6948      3799.2238      50650.992      63.456551    
     21020   1421.4698     -5560.1122     -5278.0722      3710.3508      50653.511      63.5888      
     21030   1391.2151     -5555.7755     -5279.7385      3942.4818      50657.185      63.731295    
     21040   1375.5416     -5554.429      -5281.5018      3973.6909      50662.074      63.876022    
     21050   1371.4253     -5555.365      -5283.2546      3838.2796      50668.185      63.998962    
     21060   1361.8525     -5555.1141     -5284.9031      3821.7591      50675.499      64.114873    
     21070   1356.3321     -5555.4965     -5286.3807      3818.0033      50684.077      64.253912    
     21080   1347.7442     -5555.0629     -5287.6511      3590.7298      50693.956      64.419969    
     21090   1335.3489     -5553.624      -5288.6717      3239.1953      50704.898      64.585561    
     21100   1357.4195     -5558.8334     -5289.5019      2698.5743      50716.462      64.724665    
     21110   1338.2707     -5555.699      -5290.1669      2635.0375      50727.992      64.845054    
     21120   1315.6964     -5551.7336     -5290.6806      2815.9243      50739.248      64.980842    
     21130   1312.1362     -5551.3297     -5290.9831      2856.2595      50750.591      65.141599    
     21140   1340.3761     -5557.0745     -5291.1247      2680.4919      50761.991      65.314663    
     21150   1344.3249     -5557.886      -5291.1527      2809.9202      50773.134      65.475199    
     21160   1351.483      -5559.2893     -5291.1357      3023.5069      50783.839      65.617257    
     21170   1322.1599     -5553.3918     -5291.0564      3548.3737      50794.22       65.731562    
     21180   1339.0571     -5556.5925     -5290.9044      3466.132       50804.919      65.817212    
     21190   1350.5821     -5558.6224     -5290.6476      3138.9205      50815.895      65.907853    
     21200   1363.338      -5560.8842     -5290.3784      2748.4897      50826.387      66.028556    
     21210   1357.9973     -5559.5669     -5290.1208      2515.0177      50835.811      66.171143    
     21220   1337.4438     -5555.2295     -5289.8615      2516.3911      50844.05       66.32774     
     21230   1353.315      -5558.0815     -5289.5645      2084.7142      50851.124      66.499309    
     21240   1367.2298     -5560.5238     -5289.2458      1657.3892      50856.68       66.663401    
     21250   1370.2769     -5560.8827     -5289.0001      1575.1884      50860.413      66.795285    
     21260   1317.8112     -5550.226      -5288.7533      2275.5367      50862.507      66.898831    
     21270   1326.1723     -5551.5703     -5288.4387      2514.9462      50863.611      66.992706    
     21280   1342.0996     -5554.3228     -5288.031       2708.1582      50863.979      67.099432    
     21290   1341.4183     -5553.6954     -5287.5388      3060.9704      50863.763      67.223451    
     21300   1360.1183     -5556.891      -5287.024       3329.9548      50863.272      67.363724    
     21310   1378.2417     -5559.9613     -5286.4984      3429.6052      50862.717      67.496954    
     21320   1352.6826     -5554.4205     -5286.0289      3493.6941      50862.135      67.611361    
     21330   1353.5467     -5554.1433     -5285.5803      3194.2019      50861.549      67.708893    
     21340   1373.4485     -5557.6505     -5285.1387      2681.6699      50860.668      67.807213    
     21350   1355.0324     -5553.5885     -5284.7307      2752.3346      50858.879      67.919851    
     21360   1364.4629     -5555.0984     -5284.3694      2709.0436      50855.934      68.042009    
     21370   1383.4381     -5558.5583     -5284.0644      2628.1452      50851.739      68.158165    
     21380   1373.4159     -5556.3772     -5283.8718      2922.0258      50846.388      68.245095    
     21390   1380.7445     -5557.7871     -5283.8276      2974.8546      50840.317      68.303524    
     21400   1384.1346     -5558.577      -5283.9449      3102.65        50833.622      68.360635    
     21410   1392.2764     -5560.5337     -5284.2861      3191.9841      50826.107      68.430248    
     21420   1390.2549     -5560.8032     -5284.9567      3429.0842      50817.688      68.513622    
     21430   1355.3715     -5554.8116     -5285.8865      4021.402       50808.78       68.591965    
     21440   1383.1531     -5561.5697     -5287.1323      3967.064       50800.074      68.647395    
     21450   1395.8134     -5565.6497     -5288.7003      3700.8696      50791.817      68.694384    
     21460   1373.2534     -5563.0668     -5290.5936      3812.3936      50783.904      68.733842    
     21470   1354.0097     -5561.2504     -5292.5955      3968.2395      50776.171      68.761441    
     21480   1361.998      -5564.811      -5294.5711      3865.1112      50768.733      68.809325    
     21490   1364.0538     -5567.0757     -5296.4279      3852.1422      50761.814      68.888668    
     21500   1367.7827     -5569.5044     -5298.1167      3699.4698      50755.375      68.991943    
     21510   1365.3369     -5570.5463     -5299.6439      3401.6945      50749.128      69.135929    
     21520   1351.4637     -5569.1583     -5301.0086      3313.6799      50742.884      69.3259      
     21530   1332.4114     -5566.5645     -5302.1949      3423.8585      50736.645      69.538688    
     21540   1334.6805     -5568.0688     -5303.2491      3387.2497      50730.415      69.73914     
     21550   1332.4443     -5568.5793     -5304.2033      3229.1699      50723.847      69.908327    
     21560   1313.4545     -5565.6951     -5305.0869      3131.8451      50716.492      70.063088    
     21570   1314.8993     -5566.7783     -5305.8835      2902.1422      50708.07       70.20189     
     21580   1333.6083     -5571.2604     -5306.6534      2781.9086      50698.295      70.326814    
     21590   1329.8861     -5571.3051     -5307.4366      2958.7917      50687.257      70.451898    
     21600   1322.7149     -5570.6887     -5308.2431      3296.926       50675.501      70.574536    
     21610   1311.9195     -5569.3513     -5309.0477      3371.6562      50663.436      70.676186    
     21620   1289.8184     -5565.7632     -5309.8447      3205.249       50650.995      70.753861    
     21630   1265.8189     -5561.6781     -5310.5215      2993.105       50637.941      70.798556    
     21640   1251.9304     -5559.4636     -5311.0627      2644.2286      50624.356      70.817303    
     21650   1244.703      -5558.3661     -5311.3992      2736.8593      50610.026      70.81565     
     21660   1276.5434     -5564.8678     -5311.5833      2687.8375      50594.759      70.808996    
     21670   1266.6707     -5562.9785     -5311.6529      2955.7577      50578.676      70.812479    
     21680   1285.8414     -5566.7915     -5311.6621      3143.2823      50562.046      70.826522    
     21690   1302.8522     -5570.1057     -5311.6012      3241.6137      50544.934      70.8592      
     21700   1287.1108     -5566.9105     -5311.5293      3373.394       50527.271      70.912544    
     21710   1283.9196     -5566.1946     -5311.4465      3173.9572      50509.115      70.964823    
     21720   1290.7504     -5567.4126     -5311.3092      2798.0763      50490.818      70.998973    
     21730   1290.0129     -5567.1244     -5311.1674      2610.4814      50472.567      71.010094    
     21740   1303.9877     -5569.7545     -5311.0247      2319.8337      50453.794      71           
     21750   1290.6147     -5566.983      -5310.9066      2390.8296      50433.985      70.962372    
     21760   1277.9357     -5564.3441     -5310.7834      2715.1847      50413.253      70.913564    
     21770   1269.458      -5562.4827     -5310.604       3109.6971      50392.003      70.858676    
     21780   1272.4566     -5562.8262     -5310.3525      3372.9452      50370.534      70.801462    
     21790   1289.3346     -5565.8679     -5310.0455      3624.6859      50349.017      70.754355    
     21800   1273.7588     -5562.4358     -5309.7038      4117.6467      50327.663      70.731787    
     21810   1277.2175     -5562.7408     -5309.3226      4162.9832      50306.623      70.736832    
     21820   1290.9337     -5565.0341     -5308.8943      3995.5621      50285.865      70.753229    
     21830   1298.1042     -5566.0078     -5308.4454      3976.1905      50265.509      70.774679    
     21840   1327.6711     -5571.4948     -5308.0658      3920.4426      50245.554      70.803117    
     21850   1329.5929     -5571.5988     -5307.7885      4080.8226      50226.02       70.837729    
     21860   1342.4404     -5574.0494     -5307.69        3947.9616      50207.255      70.865534    
     21870   1349.5067     -5575.6154     -5307.8539      3624.2279      50189.246      70.877493    
     21880   1318.4493     -5569.8801     -5308.2809      3341.0398      50171.718      70.875281    
     21890   1302.0853     -5567.2592     -5308.9068      2999.0181      50154.473      70.858234    
     21900   1315.3874     -5570.7466     -5309.7549      2685.396       50137.268      70.820596    
     21910   1290.5137     -5566.7992     -5310.7428      3096.1538      50119.982      70.774707    
     21920   1298.893      -5569.6553     -5311.9363      3143.1777      50102.819      70.747322    
     21930   1295.9093     -5570.3661     -5313.2391      3090.3095      50085.95       70.739395    
     21940   1317.309      -5576.0786     -5314.7056      2768.3578      50069.089      70.743405    
     21950   1318.1116     -5577.8353     -5316.3031      2835.691       50051.571      70.7512      
     21960   1334.002      -5582.6917     -5318.0065      2946.8111      50033.119      70.758546    
     21970   1312.2674     -5580.0886     -5319.716       3568.9779      50014.167      70.761044    
     21980   1305.2443     -5580.2725     -5321.2933      3952.8759      49995.476      70.76112     
     21990   1288.5118     -5578.3429     -5322.6837      4370.3625      49977.506      70.774679    
     22000   1262.7        -5574.3856     -5323.8479      4630.4903      49960.404      70.80132     
     22010   1242.7267     -5571.3142     -5324.7394      4486.5467      49944.165      70.815423    
     22020   1262.6914     -5575.9856     -5325.4495      4029.6351      49928.808      70.800009    
     22030   1264.6013     -5576.9692     -5326.0542      3919.0589      49914.15       70.789326    
     22040   1267.8701     -5578.1708     -5326.6072      3814.2876      49899.943      70.815886    
     22050   1267.6949     -5578.6743     -5327.1455      3720.3281      49886.373      70.882946    
     22060   1248.681      -5575.3956     -5327.6394      3830.2557      49873.573      70.961842    
     22070   1273.5024     -5580.8203     -5328.1392      3418.9204      49861.592      71.033001    
     22080   1277.4415     -5582.124      -5328.6613      3382.6403      49850.138      71.105392    
     22090   1274.9111     -5582.231      -5329.2703      3588.5256      49839.263      71.179331    
     22100   1267.7237     -5581.4769     -5329.9424      3762.8694      49829.279      71.253761    
     22110   1237.0569     -5576.0889     -5330.6391      3895.7904      49820.519      71.32744     
     22120   1231.6834     -5575.6534     -5331.2698      3828.4224      49813.282      71.379855    
     22130   1248.0834     -5579.5166     -5331.879       3635.9045      49807.338      71.41395     
     22140   1237.0434     -5577.924      -5332.4768      3825.081       49802.141      71.435027    
     22150   1228.9468     -5576.8828     -5333.0422      4021.731       49797.657      71.45865     
     22160   1277.2029     -5587.0444     -5333.6291      3440.4689      49794.196      71.501521    
     22170   1290.4128     -5590.3304     -5334.2941      3102.2917      49791.652      71.55482     
     22180   1276.6596     -5588.4598     -5335.1523      3102.8643      49789.772      71.601755    
     22190   1250.4491     -5584.2166     -5336.1095      3184.0029      49788.392      71.64863     
     22200   1211.9363     -5577.5164     -5337.0508      3291.496       49787.572      71.714768    
     22210   1197.9467     -5575.5663     -5337.8765      3223.6789      49787.321      71.777935    
     22220   1195.749      -5575.7897     -5338.5359      3045.3221      49787.724      71.823674    
     22230   1183.4145     -5573.8564     -5339.0501      3151.42        49788.903      71.866922    
     22240   1172.2003     -5571.9543     -5339.373       3298.5744      49790.859      71.923111    
     22250   1185.302      -5574.6998     -5339.5189      3383.0396      49793.643      71.99878     
     22260   1176.602      -5572.946      -5339.4913      3742.6024      49797.394      72.085657    
     22270   1186.8037     -5574.8013     -5339.3224      3948.1518      49802.617      72.178603    
     22280   1203.4793     -5577.7925     -5339.005       3855.347       49809.483      72.279615    
     22290   1220.439      -5580.7588     -5338.6062      3873.4931      49817.6        72.386043    
     22300   1221.4893     -5580.5255     -5338.1645      3811.4413      49826.988      72.494416    
     22310   1233.3363     -5582.447      -5337.7354      3751.8499      49837.781      72.600267    
     22320   1236.9014     -5582.7162     -5337.2972      3881.3542      49850.165      72.726552    
     22330   1263.1626     -5587.5542     -5336.9247      3963.1021      49864.298      72.909614    
     22340   1274.8829     -5589.609      -5336.654       3999.7882      49879.946      73.14279     
     22350   1259.7726     -5586.5222     -5336.5653      4061.2971      49896.801      73.396832    
     22360   1251.2348     -5584.9142     -5336.6513      4046.4069      49914.85       73.662484    
     22370   1220.6598     -5579.0405     -5336.8441      4343.3475      49934.191      73.935859    
     22380   1210.9306     -5577.3475     -5337.0816      4294.9337      49955.008      74.210769    
     22390   1225.5483     -5580.5164     -5337.35        3847.2588      49977.268      74.484159    
     22400   1203.794      -5576.51       -5337.66        3835.42        50000.776      74.750277    
     22410   1183.949      -5572.9047     -5337.9922      3775.9668      50025.535      74.982944    
     22420   1190.4696     -5574.4955     -5338.2893      3434.3739      50051.411      75.169637    
     22430   1190.054      -5574.657      -5338.5332      2993.7738      50077.943      75.330051    
     22440   1202.4252     -5577.3527     -5338.7743      2612.4254      50104.537      75.488629    
     22450   1208.6416     -5578.8325     -5339.0207      2446.2446      50130.686      75.65993     
     22460   1235.9633     -5584.6062     -5339.3734      2079.6298      50156.263      75.850492    
     22470   1211.1016     -5580.1853     -5339.8854      2439.6541      50181.489      76.050581    
     22480   1204.3715     -5579.5042     -5340.5396      2547.6378      50207.164      76.250555    
     22490   1218.4331     -5583.0938     -5341.3392      2185.6976      50233.759      76.441218    
     22500   1205.0019     -5581.3671     -5342.2774      1883.8911      50260.783      76.623188    
     22510   1177.5233     -5576.9425     -5343.305       1728.8038      50287.62       76.7925      
     22520   1175.7645     -5577.6281     -5344.3395      1491.549       50314.099      76.945404    
     22530   1187.5491     -5580.9895     -5345.3628      1358.2852      50340.083      77.101674    
     22540   1180.5124     -5580.5903     -5346.3598      1511.5269      50365.276      77.283592    
     22550   1161.1833     -5577.6936     -5347.2982      1934.778       50389.524      77.506174    
     22560   1121.9621     -5570.6818     -5348.0684      2326.7805      50412.899      77.751279    
     22570   1110.67       -5568.9935     -5348.6207      2539.122       50435.585      77.984074    
     22580   1106.9253     -5568.5237     -5348.8938      2628.189       50457.611      78.185561    
     22590   1132.2558     -5573.5576     -5348.9019      2319.1679      50478.801      78.369814    
     22600   1154.6613     -5577.832      -5348.7307      2025.5609      50498.971      78.560494    
     22610   1159.6695     -5578.5256     -5348.4306      1834.7277      50517.925      78.733688    
     22620   1167.58       -5579.7026     -5348.038       1740.0783      50535.308      78.868472    
     22630   1175.3747     -5580.7896     -5347.5784      1614.055       50551.095      78.980213    
     22640   1194.8813     -5584.1689     -5347.0874      1328.6022      50565.432      79.083882    
     22650   1188.4936     -5582.4163     -5346.6021      1299.9242      50578.192      79.195743    
     22660   1167.4677     -5577.7793     -5346.137       1536.0214      50589.414      79.333378    
     22670   1164.7792     -5576.7345     -5345.6256      1785.3793      50599.327      79.500842    
     22680   1175.9837     -5578.3821     -5345.0501      1940.1719      50607.872      79.68464     
     22690   1164.2878     -5575.4315     -5344.4201      2127.4189      50614.772      79.868145    
     22700   1174.3656     -5576.7587     -5343.7477      2057.4376      50619.87       80.031426    
     22710   1174.5008     -5576.0544     -5343.0167      1965.5623      50623.125      80.164074    
     22720   1175.2341     -5575.4469     -5342.2636      2054.0467      50624.512      80.255579    
     22730   1171.985      -5574.0271     -5341.4885      2449.9436      50624.165      80.315881    
     22740   1190.2853     -5576.8597     -5340.6901      2551.8454      50622.621      80.377736    
     22750   1208.476      -5579.7012     -5339.9222      2535.5978      50620.263      80.471069    
     22760   1204.4368     -5578.2341     -5339.2566      2411.3695      50617.077      80.593526    
     22770   1201.1231     -5577.0084     -5338.6884      2062.2658      50613.07       80.703478    
     22780   1229.9541     -5582.2925     -5338.252       1485.9175      50608.08       80.7599      
     22790   1255.4472     -5587.118      -5338.0193      1179.3443      50601.747      80.769686    
     22800   1253.8203     -5586.8738     -5338.0979      1129.5909      50593.634      80.749495    
     22810   1232.2194     -5583.0286     -5338.5386      1412.3899      50583.442      80.71714     
     22820   1193.1103     -5575.9834     -5339.2532      1956.0724      50571.343      80.694372    
     22830   1179.2678     -5574.1355     -5340.1519      2246.5946      50557.91       80.672207    
     22840   1176.6489     -5574.6899     -5341.2259      2257.3945      50543.475      80.641712    
     22850   1184.2997     -5577.4801     -5342.4981      1944.554       50528.13       80.602515    
     22860   1168.7351     -5575.8461     -5343.9523      1976.3433      50511.808      80.565134    
     22870   1170.9963     -5577.8672     -5345.5248      2120.524       50494.456      80.534109    
     22880   1174.3454     -5580.1512     -5347.1443      2206.171       50476.045      80.523293    
     22890   1173.1626     -5581.4784     -5348.7061      2171.603       50456.559      80.509921    
     22900   1182.4695     -5584.738      -5350.1192      2010.8734      50436.008      80.47939     
     22910   1198.7623     -5589.2274     -5351.3758      2084.058       50414.425      80.439666    
     22920   1193.2318     -5589.2161     -5352.4618      2478.5748      50391.841      80.391467    
     22930   1190.5002     -5589.5969     -5353.3846      2825.8447      50368.325      80.338654    
     22940   1201.6216     -5592.6449     -5354.226       2776.1043      50344.075      80.299069    
     22950   1183.4618     -5589.8112     -5354.9954      2740.1451      50319.112      80.275546    
     22960   1187.9076     -5591.4514     -5355.7535      2438.8491      50293.438      80.227767    
     22970   1175.077      -5589.6548     -5356.5027      2383.0983      50267          80.12221     
     22980   1174.1025     -5590.2253     -5357.2666      2379.5981      50239.768      79.956898    
     22990   1179.5605     -5592.1025     -5358.0608      2492.8872      50211.784      79.789035    
     23000   1172.166      -5591.4858     -5358.9113      2541.4271      50183.006      79.661162    
     23010   1167.3696     -5591.4419     -5359.819       2510.8265      50153.356      79.57355     
     23020   1149.7374     -5588.8685     -5360.7442      2691.2627      50122.91       79.525595    
     23030   1132.3281     -5586.3124     -5361.6423      2923.3896      50091.841      79.499418    
     23040   1125.1041     -5585.7019     -5362.4651      3117.7385      50060.21       79.445924    
     23050   1125.6502     -5586.5643     -5363.2192      3191.4392      50028.052      79.338982    
     23060   1139.0383     -5589.9393     -5363.9378      3147.7656      49995.356      79.2037      
     23070   1130.5411     -5588.9286     -5364.613       3301.0477      49961.882      79.06631     
     23080   1151.1566     -5593.726      -5365.32        3246.4231      49927.395      78.932444    
     23090   1167.8663     -5597.7858     -5366.0644      3068.2902      49892.091      78.822567    
     23100   1165.0514     -5598.1091     -5366.9462      3022.752       49855.986      78.760746    
     23110   1123.664      -5590.8018     -5367.8507      3334.1923      49819.054      78.73703     
     23120   1136.6217     -5594.2566     -5368.7346      3076.9051      49781.837      78.727977    
     23130   1163.3174     -5600.4697     -5369.6509      2504.8741      49744.499      78.71572     
     23140   1153.3825     -5599.5        -5370.6524      2297.7035      49706.697      78.676118    
     23150   1139.7129     -5597.8378     -5371.7024      2345.7241      49668.151      78.593023    
     23160   1131.2555     -5597.2134     -5372.7561      2334.4154      49628.663      78.483487    
     23170   1120.6654     -5596.1111     -5373.755       2543.411       49588.133      78.380265    
     23180   1111.4148     -5595.1992     -5374.6786      2790.6237      49546.824      78.309044    
     23190   1094.3485     -5592.6031     -5375.4687      2956.301       49505.284      78.270872    
     23200   1083.662      -5591.1244     -5376.1103      2963.9483      49464.137      78.242025    
     23210   1080.6626     -5591.0061     -5376.5872      2977.6582      49423.711      78.206264    
     23220   1096.3868     -5594.4939     -5376.9551      3065.0841      49383.986      78.165407    
     23230   1107.6285     -5597.0167     -5377.2474      3418.1642      49345.015      78.110222    
     23240   1119.6082     -5599.6611     -5377.5148      3589.7571      49306.921      78.033027    
     23250   1142.5218     -5604.5317     -5377.839       3436.4687      49269.487      77.939279    
     23260   1138.1039     -5604.0776     -5378.2615      3582.7128      49232.402      77.844189    
     23270   1129.4755     -5602.8739     -5378.7698      3777.4703      49195.91       77.779454    
     23280   1120.985      -5601.7617     -5379.3422      4100.0958      49160.301      77.756736    
     23290   1120.8749     -5602.3495     -5379.9519      4262.3262      49125.78       77.755388    
     23300   1118.9301     -5602.6318     -5380.6201      4332.0395      49092.449      77.753479    
     23310   1100.5347     -5599.6699     -5381.3081      4267.5159      49060.315      77.729772    
     23320   1101.9089     -5600.625      -5381.9905      3900.0261      49029.479      77.685479    
     23330   1103.1578     -5601.5347     -5382.6524      3809.4428      48999.83       77.638595    
     23340   1100.9335     -5601.7537     -5383.3127      4265.7282      48971.374      77.609298    
     23350   1103.3548     -5602.8721     -5383.9507      4724.696       48944.293      77.584479    
     23360   1122.0776     -5607.2695     -5384.6333      4805.4592      48918.555      77.547482    
     23370   1090.5818     -5601.6969     -5385.3098      5193.1067      48894.204      77.515647    
     23380   1104.3627     -5605.103      -5385.9817      5312.2937      48871.784      77.507177    
     23390   1097.6428     -5604.4065     -5386.6184      5456.1125      48851.666      77.528232    
     23400   1098.5557     -5605.2198     -5387.2507      5385.1692      48833.855      77.562499    
     23410   1104.4114     -5607.0146     -5387.8836      5410.3877      48818.323      77.593195    
     23420   1093.7192     -5605.507      -5388.4974      5448.9795      48805.145      77.626077    
     23430   1110.6863     -5609.4888     -5389.1127      4973.0548      48794.357      77.657656    
     23440   1134.5699     -5614.8926     -5389.7777      4431.7939      48785.633      77.673443    
     23450   1118.8147     -5612.532      -5390.5431      4563.5332      48778.54       77.675724    
     23460   1079.716      -5605.5436     -5391.3125      4949.7669      48773.064      77.694685    
     23470   1086.1358     -5607.4995     -5391.9946      4647.1408      48769.4        77.752114    
     23480   1101.2442     -5611.1294     -5392.6268      3994.7405      48767.358      77.841887    
     23490   1076.281      -5606.7565     -5393.2069      3881.6687      48766.436      77.954025    
     23500   1072.6949     -5606.5543     -5393.7163      3718.6953      48766.391      78.070111    
     23510   1080.4577     -5608.5077     -5394.1294      3616.2022      48766.957      78.179248    
     23520   1092.7187     -5611.3271     -5394.5161      3723.547       48767.881      78.282119    
     23530   1082.9816     -5609.7748     -5394.8957      4207.6987      48769.173      78.373375    
     23540   1067.7508     -5607.0809     -5395.2239      4412.9474      48770.975      78.483999    
     23550   1086.7677     -5611.1525     -5395.5222      4117.1302      48773.31       78.630967    
     23560   1091.8642     -5612.4657     -5395.8242      4023.6161      48776.096      78.787665    
     23570   1100.4352     -5614.5114     -5396.1692      4015.436       48779.424      78.937035    
     23580   1101.3546     -5615.0837     -5396.5592      4022.2115      48783.421      79.092598    
     23590   1102.6018     -5615.8041     -5397.0321      4093.0439      48788.019      79.245345    
     23600   1095.5255     -5614.9373     -5397.5693      4337.6298      48793.055      79.376592    
     23610   1081.3999     -5612.7063     -5398.1411      4622.3855      48798.683      79.473815    
     23620   1091.0278     -5615.2072     -5398.7316      4409.0294      48805.396      79.538969    
     23630   1102.2334     -5618.0669     -5399.368       4019.7143      48813.495      79.603636    
     23640   1094.6865     -5617.2711     -5400.0696      3831.5128      48822.863      79.710534    
     23650   1091.6802     -5617.4048     -5400.7998      3835.4817      48833.38       79.86413     
     23660   1081.5214     -5616.1458     -5401.5564      3863.6356      48844.997      80.059309    
     23670   1065.0807     -5613.6061     -5402.2788      3811.6499      48857.463      80.284568    
     23680   1059.1307     -5613.071      -5402.9243      3449.6431      48870.3        80.516313    
     23690   1044.6822     -5610.7562     -5403.4763      3282.5421      48883.158      80.733592    
     23700   1045.3478     -5611.3528     -5403.9408      3214.1648      48895.954      80.948011    
     23710   1036.991      -5610.0564     -5404.3025      3297.6329      48908.615      81.180775    
     23720   1049.9066     -5612.8938     -5404.5773      2963.6513      48920.812      81.428491    
     23730   1058.6232     -5614.8644     -5404.8184      2643.4432      48931.96       81.68771     
     23740   1049.0055     -5613.175      -5405.0373      2669.1745      48941.854      81.947521    
     23750   1071.1943     -5617.7988     -5405.2585      2531.1675      48950.707      82.190854    
     23760   1072.2636     -5618.2749     -5405.5225      2841.2413      48958.639      82.411602    
     23770   1062.7931     -5616.7207     -5405.8473      3240.4943      48966.106      82.613905    
     23780   1067.575      -5618.0251     -5406.203       3306.5746      48973.638      82.793224    
     23790   1079.9187     -5620.9017     -5406.6304      3019.1765      48981.446      82.94843     
     23800   1074.7653     -5620.3986     -5407.1497      2811.0365      48989.603      83.085744    
     23810   1063.3746     -5618.7261     -5407.7373      2752.9284      48998.203      83.232573    
     23820   1058.5907     -5618.4137     -5408.3741      2663.9952      49007.351      83.408098    
     23830   1042.1699     -5615.7839     -5409.0025      2692.7811      49016.983      83.608641    
     23840   1045.4789     -5617.0536     -5409.6156      2785.4946      49027.172      83.82217     
     23850   1035.5039     -5615.6499     -5410.1911      3124.5964      49037.926      84.026804    
     23860   1027.0428     -5614.4934     -5410.7134      3316.381       49049.081      84.20904     
     23870   1029.6893     -5615.469      -5411.1639      3296.6812      49060.52       84.377066    
     23880   1042.4526     -5618.4034     -5411.5659      3078.995       49072.109      84.533498    
     23890   1045.4936     -5619.4087     -5411.9678      2850.2155      49083.67       84.654239    
     23900   1032.0604     -5617.14       -5412.3645      2711.3583      49094.99       84.743249    
     23910   1022.9394     -5615.6909     -5412.7251      2551.2913      49105.949      84.828918    
     23920   1027.6985     -5616.9503     -5413.0402      2330.6137      49116.457      84.902678    
     23930   1011.0646     -5613.9119     -5413.3022      2352.8355      49126.333      84.954724    
     23940   1012.0683     -5614.311      -5413.5022      2259.1237      49135.695      85.004171    
     23950   1024.0954     -5616.8335     -5413.6383      2185.29        49144.84       85.065584    
     23960   1037.0859     -5619.5479     -5413.7751      2263.0368      49154.074      85.118025    
     23970   1030.897      -5618.4738     -5413.929       2459.8495      49163.656      85.163911    
     23980   1023.9393     -5617.2605     -5414.0963      2489.4191      49173.573      85.23322     
     23990   1023.002      -5617.2393     -5414.261       2452.6031      49183.557      85.327136    
     24000   1009.9066     -5614.7867     -5414.4068      2454.4096      49193.423      85.42843     
     24010   993.46964     -5611.6329     -5414.5143      2315.0537      49203.054      85.529515    
     24020   989.83924     -5610.9379     -5414.5396      1959.7596      49212.346      85.618341    
     24030   1000.2269     -5612.9326     -5414.4733      1722.0403      49221.009      85.696678    
     24040   1004.6151     -5613.687      -5414.357       1972.3053      49228.845      85.763902    
     24050   1009.5407     -5614.5106     -5414.2033      2592.6022      49236.137      85.819443    
     24060   1022.6293     -5616.9631     -5414.0588      3131.4146      49243.379      85.884848    
     24070   1020.5559     -5616.4296     -5413.9367      3342.8421      49250.847      85.984646    
     24080   1027.2956     -5617.6919     -5413.8617      3042.1959      49258.572      86.120509    
     24090   1025.3483     -5617.2821     -5413.8383      2603.0623      49266.38       86.256807    
     24100   1023.5564     -5616.9478     -5413.8595      2144.5464      49273.879      86.371116    
     24110   1060.1438     -5624.3104     -5413.9627      1579.2328      49280.564      86.462326    
     24120   1060.3672     -5624.6133     -5414.2212      1703.2217      49286.076      86.54212     
     24130   1032.1216     -5619.4343     -5414.6466      2233.2593      49290.601      86.615977    
     24140   1038.8223     -5621.3145     -5415.1972      2410.8555      49294.298      86.690155    
     24150   1023.58       -5618.9194     -5415.8265      2567.3972      49297.208      86.758011    
     24160   1009.9409     -5616.8789     -5416.4922      2560.1164      49299.464      86.815385    
     24170   1018.5405     -5619.2739     -5417.1809      2313.6869      49301.113      86.877874    
     24180   1005.7453     -5617.4077     -5417.8534      2273.2137      49302.076      86.933023    
     24190   1008.0366     -5618.5082     -5418.4993      2297.9904      49302.323      86.948605    
     24200   1009.8179     -5619.4504     -5419.0881      2448.1899      49302.125      86.932605    
     24210   1015.0825     -5621.0347     -5419.6278      2465.081       49301.836      86.917617    
     24220   1012.0305     -5620.9186     -5420.1172      2565.0674      49301.311      86.924132    
     24230   1001.2109     -5619.1915     -5420.5369      2778.4474      49300.462      86.961001    
     24240   991.54971     -5617.6113     -5420.8737      2799.9456      49299.685      87.036316    
     24250   984.96353     -5616.5519     -5421.121       2764.0396      49299.259      87.138554    
     24260   975.57182     -5614.856      -5421.2885      2845.332       49299.215      87.244052    
     24270   968.42529     -5613.531      -5421.3816      2733.6116      49299.557      87.347088    
     24280   983.05931     -5616.4651     -5421.412       2354.3103      49300.089      87.441062    
     24290   994.96702     -5618.8411     -5421.4254      1967.4751      49300.297      87.538512    
     24300   1004.3564     -5620.756      -5421.4773      1709.5264      49299.628      87.647155    
     24310   989.29712     -5617.8596     -5421.5689      1922.62        49297.725      87.756421    
     24320   983.78464     -5616.8862     -5421.6893      2078.2181      49294.625      87.836445    
     24330   992.87671     -5618.8206     -5421.8196      1978.2487      49290.345      87.86903     
     24340   996.28274     -5619.6647     -5421.9879      2054.2631      49284.81       87.86718     
     24350   989.81916     -5618.6107     -5422.2164      2511.9388      49278.232      87.846419    
     24360   979.54558     -5616.8152     -5422.4593      2967.1806      49271.061      87.822094    
     24370   992.78198     -5619.7137     -5422.7316      2972.7858      49263.937      87.809335    
     24380   1017.0294     -5624.863      -5423.0698      2560.4204      49257.139      87.8221      
     24390   1034.7297     -5628.884      -5423.5788      2290.4787      49250.354      87.869667    
     24400   1024.0453     -5627.4818     -5424.2966      2476.9444      49243.243      87.945423    
     24410   1024.4679     -5628.4753     -5425.2062      2483.3027      49235.77       88.037206    
     24420   1012.878      -5627.2299     -5426.2604      2376.8096      49228.004      88.135273    
     24430   1006.7319     -5627.1548     -5427.4048      2205.8461      49220.015      88.240991    
     24440   1006.2347     -5628.234      -5428.5826      1982.4146      49211.757      88.35495     
     24450   992.66767     -5626.6945     -5429.735       2034.1162      49203.095      88.459681    
     24460   984.07167     -5626.043      -5430.7891      2140.3074      49194.069      88.557475    
     24470   981.57583     -5626.5055     -5431.7468      2219.4977      49184.664      88.652093    
     24480   961.67832     -5623.3821     -5432.5713      2217.6721      49174.91       88.732704    
     24490   957.94788     -5623.3367     -5433.2661      1872.6483      49164.916      88.768956    
     24500   959.31918     -5624.1962     -5433.8535      1576.8896      49154.731      88.761072    
     24510   955.92243     -5624.0295     -5434.3608      1645.6379      49144.21       88.73408     
     24520   959.10014     -5625.1187     -5434.8194      1955.8784      49133.118      88.711611    
     24530   963.56536     -5626.433      -5435.2478      2241.1183      49121.374      88.704905    
     24540   961.28765     -5626.3905     -5435.6573      2617.2236      49109.267      88.720142    
     24550   983.42448     -5631.2106     -5436.0851      2683.059       49097.191      88.748848    
     24560   994.88952     -5633.9923     -5436.592       2673.269       49085.141      88.772303    
     24570   992.80681     -5634.2098     -5437.2227      2580.8111      49072.959      88.773398    
     24580   993.43812     -5635.0869     -5437.9746      2373.1248      49060.605      88.750488    
     24590   974.51917     -5632.1722     -5438.8137      2479.1296      49047.959      88.716983    
     24600   951.55855     -5628.4783     -5439.6754      2864.8345      49034.934      88.675797    
     24610   946.66011     -5628.3091     -5440.4782      3147.5698      49021.617      88.630973    
     24620   948.63644     -5629.4377     -5441.2147      3172.0709      49008.01       88.599523    
     24630   963.11317     -5633.0219     -5441.9264      2960.6274      48993.932      88.586084    
     24640   953.97938     -5631.9155     -5442.6324      2944.6316      48979.371      88.57418     
     24650   945.90966     -5630.9762     -5443.2942      2966.7906      48964.567      88.560801    
     24660   962.00703     -5634.8185     -5443.9425      2627.0922      48949.713      88.546462    
     24670   955.29188     -5634.1366     -5444.593       2285.902       48934.688      88.510467    
     24680   934.99193     -5630.7491     -5445.2334      2066.6133      48919.391      88.438314    
     24690   927.79192     -5629.8962     -5445.809       1795.1158      48903.949      88.352719    
     24700   930.78777     -5630.9949     -5446.3132      1696.4444      48888.385      88.290057    
     24710   926.65263     -5630.6268     -5446.7657      2126.3764      48872.695      88.262142    
     24720   908.36019     -5627.373      -5447.1414      2841.8149      48857.115      88.266495    
     24730   923.05729     -5630.5836     -5447.4358      3120.0957      48842.058      88.27536     
     24740   937.33021     -5633.6737     -5447.694       3085.6215      48827.405      88.275241    
     24750   932.92312     -5633.0643     -5447.959       3113.1932      48812.95       88.278252    
     24760   928.262       -5632.4011     -5448.2206      3092.9577      48798.792      88.280444    
     24770   944.02174     -5635.7999     -5448.4925      2868.22        48784.994      88.269806    
     24780   946.49454     -5636.6096     -5448.8115      2818.9523      48771.377      88.260386    
     24790   934.87701     -5634.6797     -5449.1867      3011.0734      48757.74       88.275761    
     24800   940.05321     -5636.1292     -5449.6091      2930.9036      48744.178      88.317985    
     24810   948.85847     -5638.3553     -5450.0882      2783.6216      48730.765      88.383275    
     24820   934.55253     -5636.0632     -5450.6346      2797.2091      48717.483      88.454099    
     24830   921.60746     -5634.067      -5451.2069      2773.679       48704.406      88.510542    
     24840   937.99549     -5637.9159     -5451.8042      2540.7506      48691.579      88.543258    
     24850   931.0576      -5637.1681     -5452.4329      2572.5641      48679.084      88.565753    
     24860   927.13365     -5637.0476     -5453.091       2609.1196      48667.259      88.598027    
     24870   932.60864     -5638.8054     -5453.7625      2417.1124      48656.195      88.643532    
     24880   926.04748     -5638.1814     -5454.4403      2381.0356      48645.714      88.694782    
     24890   929.5946      -5639.5598     -5455.1149      2230.4136      48635.747      88.745854    
     24900   937.09493     -5641.7329     -5455.7999      2059.0752      48626.056      88.807272    
     24910   935.2797      -5642.0632     -5456.4903      2024.3546      48616.319      88.876275    
     24920   935.96959     -5642.8967     -5457.187       1934.8839      48606.451      88.93206     
     24930   926.61803     -5641.7205     -5457.8662      2037.3917      48596.441      88.960473    
     24940   912.63554     -5639.5682     -5458.4883      2316.7776      48586.26       88.968891    
     24950   919.14039     -5641.4169     -5459.0463      2364.0407      48575.963      88.984306    
     24960   908.95526     -5639.8828     -5459.5331      2561.9192      48565.484      89.007007    
     24970   915.10041     -5641.5399     -5459.9709      2678.8097      48554.763      89.023623    
     24980   912.37813     -5641.3945     -5460.3656      2894.4778      48543.979      89.043216    
     24990   905.87176     -5640.4563     -5460.7184      3098.2624      48533.63       89.085728    
     25000   916.2955      -5642.8608     -5461.0547      3258.9535      48524.095      89.154262    
     25010   900.29275     -5640.0143     -5461.3833      3656.8307      48515.629      89.236742    
     25020   886.83224     -5637.6379     -5461.6777      3930.4867      48508.502      89.30279     
     25030   892.75591     -5639.0479     -5461.9123      3821.2039      48502.767      89.352158    
     25040   915.84575     -5643.8606     -5462.1437      3402.3144      48498.277      89.406134    
     25050   913.32546     -5643.6097     -5462.3929      3101.4396      48494.7        89.47517     
     25060   927.82184     -5646.8163     -5462.7231      2683.0805      48491.764      89.53745     
     25070   928.10839     -5647.2975     -5463.1475      2566.8887      48489.274      89.564051    
     25080   928.99892     -5648.0039     -5463.6772      2601.7523      48487.006      89.542739    
     25090   921.85551     -5647.2173     -5464.3079      2705.4657      48484.831      89.505392    
     25100   914.48477     -5646.4515     -5465.0047      2667.9963      48482.753      89.487762    
     25110   909.13947     -5646.1344     -5465.7481      2659.8378      48480.641      89.500337    
     25120   892.66861     -5643.594      -5466.4758      2746.8763      48478.539      89.538279    
     25130   893.94879     -5644.5399     -5467.1677      2633.0752      48476.612      89.59314     
     25140   897.84247     -5645.967      -5467.8222      2492.0258      48475.014      89.662925    
     25150   903.97916     -5647.8175     -5468.4551      2327.7007      48473.877      89.726723    
     25160   897.04062     -5647.0543     -5469.0686      2106.5981      48473.123      89.750154    
     25170   881.36097     -5644.5234     -5469.6488      1851.3803      48472.628      89.741052    
     25180   868.4017      -5642.458      -5470.1547      1672.7745      48472.239      89.743601    
     25190   868.61576     -5642.9227     -5470.5769      1711.6102      48471.786      89.781309    
     25200   870.34573     -5643.6156     -5470.9265      2019.2742      48471.15       89.841169    
     25210   875.67861     -5644.9698     -5471.2227      2211.3196      48470.497      89.907851    
     25220   889.52999     -5647.9999     -5471.5044      2207.4385      48470.082      89.98314     
     25230   888.90854     -5648.187      -5471.8148      2331.1338      48469.864      90.068924    
     25240   885.64181     -5647.868      -5472.144       2368.0638      48469.833      90.162976    
     25250   892.05068     -5649.5068     -5472.5112      2252.8113      48470.091      90.244688    
     25260   886.59352     -5648.8367     -5472.9238      2341.8942      48470.652      90.288462    
     25270   877.71126     -5647.5055     -5473.355       2528.7265      48471.78       90.299811    
     25280   884.56944     -5649.3278     -5473.8165      2590.4917      48473.833      90.303225    
     25290   883.74689     -5649.6475     -5474.2994      2677.3111      48476.845      90.312141    
     25300   878.21703     -5649.0659     -5474.8151      2600.4045      48480.633      90.313793    
     25310   897.04658     -5653.3455     -5475.3586      2217.0072      48484.996      90.317794    
     25320   929.21776     -5660.3862     -5476.0161      1643.9419      48489.563      90.355244    
     25330   920.09389     -5659.3953     -5476.8355      1469.5642      48493.832      90.446       
     25340   895.1963      -5655.364      -5477.7442      1534.8668      48497.569      90.585615    
     25350   896.17846     -5656.467      -5478.6524      1308.6347      48500.72       90.732997    
     25360   893.54583     -5656.8373     -5479.545       1103.9275      48503.106      90.86567     
     25370   881.75434     -5655.3259     -5480.3732      1138.1382      48504.539      90.996815    
     25380   875.86024     -5654.9033     -5481.1201      1364.1641      48505.048      91.130903    
     25390   876.37558     -5655.6826     -5481.7971      1588.7659      48504.718      91.268168    
     25400   869.14349     -5654.8612     -5482.4107      1811.4906      48503.617      91.412002    
     25410   861.50592     -5653.9014     -5482.9663      1929.997       48501.621      91.549864    
     25420   859.62733     -5654.0416     -5483.4793      1970.1726      48498.57       91.664054    
     25430   858.2699      -5654.2456     -5483.9526      1913.1431      48494.646      91.754022    
     25440   863.33723     -5655.7156     -5484.4171      1860.8726      48490.311      91.835565    
     25450   849.9194      -5653.4967     -5484.8605      1967.6304      48485.898      91.908434    
     25460   862.21184     -5656.3682     -5485.293       1763.0156      48481.364      91.960596    
     25470   877.35764     -5659.8622     -5485.7819      1471.7656      48476.232      92.013002    
     25480   874.81974     -5659.9351     -5486.3583      1476.4643      48470.049      92.085099    
     25490   866.80383     -5658.9844     -5486.9981      1640.2103      48462.77       92.171044    
     25500   850.65703     -5656.4465     -5487.664       1953.1721      48454.564      92.24913     
     25510   847.53538     -5656.4916     -5488.3284      2107.6361      48445.713      92.291892    
     25520   853.74226     -5658.3636     -5488.969       2146.2675      48436.515      92.287283    
     25530   858.51296     -5659.972      -5489.6308      2139.775       48427.11       92.264709    
     25540   847.95288     -5658.5442     -5490.2982      2245.0939      48417.595      92.26058     
     25550   838.44691     -5657.3071     -5490.9473      2261.9812      48408.054      92.284683    
     25560   841.05145     -5658.4431     -5491.5665      2072.1255      48398.389      92.313083    
     25570   838.82763     -5658.5966     -5492.1611      2046.375       48388.384      92.322413    
     25580   832.71012     -5657.937      -5492.7154      2095.4416      48378.007      92.325255    
     25590   839.06803     -5659.7358     -5493.2527      2151.984       48367.242      92.33785     
     25600   837.89362     -5660.0193     -5493.7692      2193.0765      48356.064      92.35551     
     25610   836.88812     -5660.3386     -5494.288       2379.7184      48344.456      92.374982    
     25620   832.49208     -5659.9739     -5494.7955      2536.1459      48332.493      92.384209    
     25630   827.204       -5659.4205     -5495.2914      2566.108       48320.267      92.373743    
     25640   830.43575     -5660.532      -5495.7616      2585.6468      48307.973      92.348141    
     25650   838.54137     -5662.6117     -5496.2331      2723.0657      48295.97       92.31917     
     25660   829.93291     -5661.3809     -5496.7103      2978.3322      48284.625      92.304372    
     25670   823.13365     -5660.5118     -5497.1903      3075.999       48274.149      92.326981    
     25680   816.13096     -5659.5791     -5497.647       2938.9397      48264.612      92.391897    
     25690   813.96543     -5659.5707     -5498.0683      2685.4338      48255.855      92.472869    
     25700   815.45514     -5660.2661     -5498.4681      2514.1931      48247.519      92.538051    
     25710   799.88358     -5657.5397     -5498.8313      2645.1762      48239.272      92.574994    
     25720   787.96243     -5655.4709     -5499.1279      2807.1141      48231.169      92.590013    
     25730   788.25946     -5655.7456     -5499.3436      2695.9547      48223.294      92.586617    
     25740   797.75485     -5657.7671     -5499.4811      2417.5056      48215.644      92.570507    
     25750   812.30172     -5660.7517     -5499.5794      2024.7682      48208.249      92.542739    
     25760   822.97189     -5662.9695     -5499.6801      1783.7727      48201.067      92.512278    
     25770   824.66289     -5663.4543     -5499.8294      1724.4217      48194.036      92.489939    
     25780   818.28508     -5662.3938     -5500.0343      1814.084       48187.041      92.474772    
     25790   803.69832     -5659.7274     -5500.2622      2080.8129      48180.012      92.466235    
     25800   821.68027     -5663.5481     -5500.515       1978.0457      48173.043      92.465489    
     25810   832.18837     -5665.9449     -5500.8269      1947.6468      48165.978      92.493782    
     25820   825.75866     -5665.0873     -5501.2449      2039.4951      48158.619      92.551513    
     25830   813.03886     -5663.0669     -5501.7483      2021.0462      48150.893      92.599225    
     25840   805.95482     -5662.2136     -5502.3006      2019.5903      48142.759      92.618724    
     25850   801.77839     -5661.9668     -5502.8825      2092.0809      48134.16       92.609388    
     25860   802.44394     -5662.6853     -5503.4689      2180.6467      48125.126      92.569216    
     25870   810.48721     -5664.8914     -5504.0791      2157.3288      48115.872      92.510445    
     25880   802.23308     -5663.8733     -5504.6988      2256.3778      48106.717      92.448588    
     25890   788.80219     -5661.809      -5505.2993      2438.1737      48098.066      92.399636    
     25900   784.88466     -5661.5695     -5505.8371      2437.1655      48090.136      92.376678    
     25910   791.04901     -5663.2701     -5506.3147      2222.2891      48083.025      92.37485     
     25920   781.89276     -5661.8705     -5506.7318      2218.4212      48076.787      92.388157    
     25930   777.1652      -5661.2673     -5507.0666      2132.6462      48071.468      92.414891    
     25940   795.34284     -5665.1539     -5507.3465      1735.3418      48066.949      92.441735    
     25950   802.58526     -5666.8572     -5507.6128      1559.4516      48062.876      92.453279    
     25960   803.49983     -5667.3153     -5507.8894      1625.7726      48059.003      92.454543    
     25970   804.3038      -5667.7771     -5508.1917      1861.236       48055.335      92.468997    
     25980   780.99158     -5663.4379     -5508.478       2430.9342      48052.037      92.49534     
     25990   788.1699      -5665.1257     -5508.7415      2592.4941      48049.581      92.520501    
     26000   802.73677     -5668.2616     -5508.9871      2515.132       48048.289      92.55589     
     26010   800.51292     -5668.0997     -5509.2665      2519.0032      48048.132      92.601909    
     26020   794.27961     -5667.1626     -5509.5661      2556.3975      48048.996      92.637433    
     26030   798.49603     -5668.3202     -5509.8871      2329.3173      48050.854      92.655704    
     26040   798.99127     -5668.7593     -5510.228       2158.6593      48053.695      92.671897    
     26050   801.22213     -5669.584      -5510.61        2122.6813      48057.328      92.68625     
     26060   810.14446     -5671.7875     -5511.0432      2058.9312      48061.508      92.677491    
     26070   819.0027      -5674.047      -5511.5451      2036.2645      48066.011      92.647956    
     26080   823.86917     -5675.6118     -5512.1444      1950.6251      48070.667      92.631384    
     26090   826.12302     -5676.7614     -5512.8467      1854.8658      48075.214      92.643137    
     26100   823.3176      -5676.9987     -5513.6407      1837.4951      48079.407      92.66525     
     26110   809.94084     -5675.1753     -5514.4714      1955.9473      48083.115      92.689428    
     26120   801.09004     -5674.2316     -5515.2838      2019.6575      48086.409      92.71731     
     26130   802.20008     -5675.2262     -5516.0582      1887.1821      48089.401      92.740484    
     26140   805.06396     -5676.5468     -5516.8105      1604.316       48092.028      92.749279    
     26150   786.81708     -5673.6489     -5517.5331      1606.9931      48094.276      92.741994    
     26160   774.41309     -5671.8494     -5518.1947      1612.9116      48096.245      92.737951    
     26170   766.22809     -5670.8101     -5518.7794      1407.4989      48097.935      92.767539    
     26180   772.39873     -5672.5653     -5519.3103      978.39434      48099.188      92.837886    
     26190   785.40137     -5675.6675     -5519.8326      582.02162      48099.653      92.919021    
     26200   776.15522     -5674.3784     -5520.3781      729.55856      48099.047      92.984036    
     26210   771.0826      -5673.9258     -5520.9319      1007.8811      48097.462      93.020265    
     26220   784.49201     -5677.1627     -5521.5083      1022.0853      48095.162      93.025388    
     26230   787.8763      -5678.473      -5522.1471      1013.8128      48092.235      93.004992    
     26240   766.41053     -5674.8805     -5522.8137      1092.3775      48088.723      92.964585    
     26250   775.66188     -5677.4095     -5523.5071      832.39442      48084.819      92.922513    
     26260   761.71079     -5675.3203     -5524.186       832.62731      48080.507      92.890796    
     26270   759.90013     -5675.6272     -5524.8521      785.81538      48075.664      92.870838    
     26280   761.01827     -5676.4849     -5525.4879      908.77056      48070.192      92.85526     
     26290   764.77722     -5677.8717     -5526.1289      1095.8445      48064.096      92.84319     
     26300   752.38474     -5676.041      -5526.7571      1330.6334      48057.421      92.846496    
     26310   746.41657     -5675.4463     -5527.3466      1332.4         48050.243      92.852953    
     26320   744.69241     -5675.6558     -5527.8981      1090.3617      48042.48       92.851091    
     26330   745.60508     -5676.3552     -5528.4165      933.38222      48033.94       92.840481    
     26340   747.67553     -5677.2671     -5528.9176      1000.2091      48024.438      92.817383    
     26350   738.28052     -5675.8868     -5529.4014      1401.1805      48013.857      92.779101    
     26360   741.12156     -5676.9159     -5529.8668      1742.1637      48002.239      92.725878    
     26370   740.84651     -5677.3074     -5530.3128      2065.42        47989.683      92.67287     
     26380   742.93889     -5678.1669     -5530.7572      2223.0246      47976.345      92.642775    
     26390   742.20159     -5678.4705     -5531.207       2253.4076      47962.318      92.633331    
     26400   731.29831     -5676.7471     -5531.647       2285.3046      47947.718      92.63373     
     26410   745.38536     -5679.9858     -5532.0907      1987.4682      47932.7        92.650084    
     26420   744.39362     -5680.2495     -5532.5512      1846.2362      47917.164      92.67339     
     26430   735.81054     -5679.0319     -5533.0365      1965.8065      47901.058      92.681307    
     26440   730.27902     -5678.4177     -5533.5199      2144.8799      47884.588      92.651446    
     26450   736.49814     -5680.1206     -5533.9888      2187.9476      47868.129      92.589558    
     26460   746.57836     -5682.6083     -5534.4764      2144.7285      47851.957      92.512689    
     26470   737.36384     -5681.3031     -5534.9996      2395.7492      47836.062      92.422099    
     26480   723.31257     -5679.0289     -5535.5134      2572.9307      47820.501      92.315065    
     26490   729.45        -5680.7424     -5536.0091      2444.6272      47805.252      92.209706    
     26500   737.09228     -5682.7588     -5536.5091      2363.4615      47790.058      92.130804    
     26510   743.14107     -5684.4803     -5537.0305      2376.4393      47774.803      92.078866    
     26520   747.43074     -5685.891      -5537.59        2273.6342      47759.653      92.045917    
     26530   746.9718      -5686.4099     -5538.2         2272.9232      47744.776      92.032145    
     26540   739.30552     -5685.5299     -5538.8411      2446.6928      47730.206      92.024225    
     26550   734.42335     -5685.197      -5539.4769      2649.7394      47715.948      92.016323    
     26560   739.72223     -5686.8816     -5540.1101      2661.0474      47701.951      92.005136    
     26570   733.63832     -5686.3092     -5540.7449      2689.8573      47688.038      91.999675    
     26580   721.35246     -5684.4701     -5541.3434      2668.1883      47674.108      92.011046    
     26590   721.91358     -5685.137      -5541.899       2533.21        47660.246      92.043416    
     26600   716.50238     -5684.5763     -5542.412       2556.9431      47646.591      92.083757    
     26610   707.94318     -5683.3414     -5542.8754      2632.6951      47633.257      92.110437    
     26620   709.1225      -5683.9874     -5543.2874      2489.2704      47620.428      92.110647    
     26630   707.92174     -5684.1266     -5543.6648      2267.9062      47608.264      92.086761    
     26640   695.72585     -5682.048      -5544.006       2200.5974      47596.653      92.049363    
     26650   693.24019     -5681.8531     -5544.3044      2015.6064      47585.297      91.996965    
     26660   697.11549     -5682.8793     -5544.5616      1848.4454      47573.803      91.922711    
     26670   706.25228     -5684.9352     -5544.8046      1677.4059      47561.955      91.838109    
     26680   714.05725     -5686.7325     -5545.0534      1591.8267      47549.726      91.763053    
     26690   726.98112     -5689.5974     -5545.3539      1518.4748      47537.206      91.715099    
     26700   728.28263     -5690.2423     -5545.7406      1694.2232      47524.544      91.703055    
     26710   708.35347     -5686.7435     -5546.1961      2176.2883      47511.888      91.726915    
     26720   711.45571     -5687.8418     -5546.6788      2309.4092      47499.575      91.777908    
     26730   709.21264     -5687.9139     -5547.196       2399.5034      47487.897      91.844238    
     26740   695.8532      -5685.7852     -5547.7179      2540.224       47477.012      91.905347    
     26750   683.35883     -5683.7922     -5548.2041      2598.2265      47467.094      91.951269    
     26760   680.40059     -5683.6417     -5548.6405      2618.79        47458.156      91.982877    
     26770   681.74999     -5684.2899     -5549.021       2631.8857      47449.994      92.010391    
     26780   687.21412     -5685.7123     -5549.3592      2575.6224      47442.384      92.038623    
     26790   699.30237     -5688.4427     -5549.6911      2495.3424      47435.084      92.054011    
     26800   700.10077     -5688.9452     -5550.0352      2439.7269      47427.987      92.041114    
     26810   710.69543     -5691.4307     -5550.4185      2200.12        47421.203      91.995762    
     26820   712.07793     -5692.1484     -5550.862       1954.9632      47414.769      91.938155    
     26830   693.06095     -5688.8632     -5551.3499      2007.6416      47408.582      91.889154    
     26840   679.08002     -5686.5593     -5551.8201      2113.0575      47402.516      91.863018    
     26850   685.35119     -5688.2487     -5552.2652      2135.2544      47396.416      91.867369    
     26860   682.25134     -5688.0491     -5552.6806      2385.7362      47390.255      91.88786     
     26870   684.55781     -5688.8958     -5553.0697      2639.1389      47384.282      91.904409    
     26880   699.87139     -5692.3308     -5553.4663      2753.6087      47378.652      91.904005    
     26890   705.97552     -5693.9729     -5553.8972      2944.1565      47373.364      91.87643     
     26900   704.29284     -5694.1238     -5554.382       3144.0178      47368.473      91.819439    
     26910   709.00805     -5695.5923     -5554.9149      3081.7256      47364.055      91.738937    
     26920   718.49925     -5698.0708     -5555.5103      2785.944       47360.129      91.658217    
     26930   721.09734     -5699.2595     -5556.1835      2526.7186      47356.607      91.61611     
     26940   715.83053     -5698.9402     -5556.9092      2397.4591      47353.285      91.635919    
     26950   710.90663     -5698.701      -5557.647       2447.1643      47349.942      91.703405    
     26960   711.49233     -5699.5518     -5558.3815      2573.9016      47346.527      91.792498    
     26970   707.38365     -5699.458      -5559.103       2722.9864      47343.185      91.887386    
     26980   701.61829     -5699.0211     -5559.81        2741.472       47340.224      91.97668     
     26990   686.8086      -5696.7466     -5560.4739      2681.7749      47337.901      92.04693     
     27000   674.70257     -5694.9532     -5561.0826      2431.837       47336.268      92.083222    
     27010   671.68753     -5694.9031     -5561.6307      1988.7089      47335.078      92.092369    
     27020   673.86147     -5695.8446     -5562.1408      1614.5597      47333.824      92.091401    
     27030   679.26329     -5697.4237     -5562.6481      1499.4012      47332.214      92.099365    
     27040   674.20971     -5696.9363     -5563.1634      1737.1082      47330.338      92.124327    
     27050   669.62528     -5696.5492     -5563.6859      2093.7455      47328.488      92.151321    
     27060   668.83727     -5696.9172     -5564.2103      2326.1546      47326.979      92.162305    
     27070   665.69538     -5696.8187     -5564.7352      2483.4939      47326.059      92.151995    
     27080   668.58944     -5697.9247     -5565.267       2486.3264      47325.897      92.132266    
     27090   666.68395     -5698.0983     -5565.8186      2532.9556      47326.468      92.109922    
     27100   651.32685     -5695.589      -5566.3564      2715.7041      47327.692      92.099422    
     27110   655.37519     -5696.9019     -5566.866       2537.678       47329.544      92.123589    
     27120   668.74981     -5700.0736     -5567.3841      2280.2528      47331.923      92.170654    
     27130   666.39628     -5700.1461     -5567.9236      2225.5415      47334.628      92.213277    
     27140   660.06154     -5699.4529     -5568.4872      2213.8093      47337.604      92.242098    
     27150   650.84226     -5698.181      -5569.0446      2294.1767      47340.911      92.258445    
     27160   644.71211     -5697.4944     -5569.5743      2361.6076      47344.658      92.263863    
     27170   642.48885     -5697.5522     -5570.0733      2393.9207      47348.904      92.269136    
     27180   644.36008     -5698.3865     -5570.5362      2372.9177      47353.608      92.287897    
     27190   652.59583     -5700.4731     -5570.9888      2305.2458      47358.732      92.329861    
     27200   657.54361     -5701.9274     -5571.4613      2329.3119      47364.33       92.415789    
     27210   657.21032     -5702.3632     -5571.9632      2346.6169      47370.421      92.546735    
     27220   654.85674     -5702.4261     -5572.4932      2255.308       47376.824      92.693022    
     27230   647.71972     -5701.5542     -5573.0373      2155.6947      47383.285      92.834192    
     27240   649.3685      -5702.4276     -5573.5836      1952.6249      47389.58       92.956496    
     27250   654.01597     -5703.9053     -5574.1391      1742.5851      47395.537      93.054762    
     27260   659.10838     -5705.4998     -5574.7232      1565.4362      47401.145      93.130828    
     27270   654.92319     -5705.2808     -5575.3346      1496.0033      47406.34       93.194961    
     27280   642.45022     -5703.4175     -5575.9462      1491.5362      47411.017      93.261906    
     27290   640.69729     -5703.6555     -5576.532       1370.6346      47415.263      93.335647    
     27300   638.66251     -5703.8181     -5577.0983      1286.6151      47419.183      93.395675    
     27310   627.05077     -5702.0383     -5577.6225      1296.2486      47422.856      93.41939     
     27320   629.75901     -5703.0557     -5578.1025      1120.5242      47426.267      93.407693    
     27330   631.2557      -5703.8071     -5578.557       980.62908      47429.222      93.386618    
     27340   623.68802     -5702.7415     -5578.9928      1072.5835      47431.683      93.382403    
     27350   616.37839     -5701.6989     -5579.4006      1286.6544      47433.77       93.40169     
     27360   614.26816     -5701.6461     -5579.7665      1448.3319      47435.564      93.433532    
     27370   618.28067     -5702.7817     -5580.106       1453.7135      47437.156      93.472963    
     27380   625.77014     -5704.6033     -5580.4415      1262.3899      47438.574      93.52659     
     27390   622.76425     -5704.3499     -5580.7845      1259.5023      47439.72       93.598871    
     27400   624.88771     -5705.1357     -5581.1491      1355.5909      47440.599      93.686941    
     27410   631.27353     -5706.787      -5581.5333      1409.0065      47441.247      93.767071    
     27420   648.92859     -5710.7413     -5581.9846      1220.5619      47441.624      93.82929     
     27430   650.53015     -5711.6078     -5582.5333      1127.404       47441.616      93.879336    
     27440   639.5682      -5710.069      -5583.1695      1150.7819      47441.179      93.906534    
     27450   626.00178     -5708.0358     -5583.828       1222.881       47440.363      93.905541    
     27460   621.39557     -5707.7607     -5584.467       1200.8543      47439.196      93.884419    
     27470   614.4357      -5706.976      -5585.0631      1172.3286      47437.55       93.868241    
     27480   606.27069     -5705.8927     -5585.5999      1209.6481      47435.278      93.875231    
     27490   598.71155     -5704.8633     -5586.0703      1301.4557      47432.346      93.900693    
     27500   597.35687     -5704.9962     -5586.4721      1375.1738      47428.745      93.929442    
     27510   603.94209     -5706.6588     -5586.8281      1287.8673      47424.512      93.940267    
     27520   604.95071     -5707.1964     -5587.1655      1131.8129      47419.73       93.930267    
     27530   611.65451     -5708.8667     -5587.5057      959.4918       47414.426      93.909113    
     27540   617.37209     -5710.3682     -5587.8727      872.38524      47408.475      93.87468     
     27550   611.76043     -5709.6562     -5588.2742      988.86149      47401.715      93.821483    
     27560   612.24744     -5710.1924     -5588.7137      1180.8151      47394.139      93.756209    
     27570   616.29476     -5711.458      -5589.1763      1215.2539      47385.777      93.693058    
     27580   626.03885     -5713.9204     -5589.7053      1166.554       47376.605      93.641317    
     27590   620.47675     -5713.407      -5590.2955      1134.9733      47366.583      93.60918     
     27600   607.27125     -5711.3936     -5590.9022      1103.1924      47355.675      93.594506    
     27610   608.92495     -5712.3278     -5591.5083      886.27699      47343.817      93.58103     
     27620   613.12522     -5713.7611     -5592.1083      641.82183      47330.822      93.560327    
     27630   610.01568     -5713.749      -5592.7132      514.64036      47316.666      93.527114    
     27640   605.97279     -5713.537      -5593.3033      502.32925      47301.414      93.484149    
     27650   608.48223     -5714.6202     -5593.8886      412.36411      47285.152      93.43764     
     27660   599.44688     -5713.3993     -5594.4604      489.50401      47268.025      93.393676    
     27670   589.22823     -5711.9052     -5594.9938      666.40673      47250.219      93.357918    
[...]
     48200   308.51293     -5802.3318     -5741.1184     -413.1924       45833.993      93.492223    
     48210   308.58662     -5802.3523     -5741.1243     -337.36995      45841.516      93.498019    
     48220   307.85913     -5802.2531     -5741.1694     -316.69998      45845.635      93.504616    
     48230   304.28165     -5801.6228     -5741.249      -273.81391      45846.652      93.510522    
     48240   299.87881     -5800.8541     -5741.3539     -224.5508       45844.942      93.510445    
     48250   299.38638     -5800.8732     -5741.4706     -223.06348      45840.956      93.500142    
     48260   299.8094      -5801.0823     -5741.5958     -262.47041      45834.703      93.475441    
     48270   304.29741     -5802.1183     -5741.7413     -434.95533      45825.672      93.433728    
     48280   307.5242      -5802.9441     -5741.9269     -557.57964      45812.326      93.380454    
     48290   305.50622     -5802.7844     -5742.1676     -496.96391      45793.591      93.328552    
     48300   303.45268     -5802.6672     -5742.4579     -390.47111      45769.904      93.291751    
     48310   300.81999     -5802.4768     -5742.7898     -224.26041      45742.306      93.273233    
     48320   295.96074     -5801.8641     -5743.1413      3.4257609      45712.425      93.265222    
     48330   293.08408     -5801.6385     -5743.4865      179.45501      45682.37       93.258726    
     48340   293.66581     -5802.0762     -5743.8087      302.194        45653.906      93.248596    
     48350   294.95614     -5802.6302     -5744.1067      355.51591      45628.27       93.236214    
     48360   296.06501     -5803.1206     -5744.3771      347.13507      45606.006      93.226806    
     48370   296.33703     -5803.4183     -5744.6208      289.49634      45587.057      93.224254    
     48380   293.81664     -5803.136      -5744.8386      286.62001      45570.975      93.226962    
     48390   289.38032     -5802.4299     -5745.0127      336.3434       45557.717      93.230985    
     48400   290.32192     -5802.7386     -5745.1346      311.00953      45547.632      93.234943    
     48410   294.58029     -5803.6655     -5745.2166      228.87988      45540.501      93.238288    
     48420   298.53652     -5804.5052     -5745.2713      137.49242      45535.544      93.241465    
     48430   299.11852     -5804.6649     -5745.3155      54.421649      45531.891      93.246141    
     48440   296.23582     -5804.1281     -5745.3506      23.819139      45528.821      93.251011    
     48450   292.58462     -5803.4238     -5745.3708      10.521515      45525.994      93.253584    
     48460   293.21081     -5803.5392     -5745.362      -62.953737      45523.167      93.254335    
     48470   299.05272     -5804.6686     -5745.3322     -165.98277      45519.656      93.255452    
     48480   302.29238     -5805.2787     -5745.2995     -172.49743      45514.571      93.255448    
     48490   300.87732     -5804.9725     -5745.2742     -40.864453      45507.844      93.250662    
     48500   298.58847     -5804.5001     -5745.2559      129.97754      45500.661      93.240168    
     48510   299.77815     -5804.7151     -5745.2348      255.76261      45494.664      93.225505    
     48520   301.18975     -5804.9744     -5745.214       320.94743      45491.082      93.209746    
     48530   301.77324     -5805.0736     -5745.1975      366.67382      45490.651      93.197117    
     48540   300.49069     -5804.811      -5745.1894      377.31765      45493.813      93.18996     
     48550   298.63921     -5804.4364     -5745.1821      392.3196       45500.722      93.188556    
     48560   299.32388     -5804.5635     -5745.1733      317.52914      45511.457      93.193649    
     48570   300.43104     -5804.7726     -5745.1628      168.93408      45525.313      93.2086      
     48580   300.40581     -5804.7554     -5745.1506     -24.649335      45540.846      93.232678    
     48590   299.61532     -5804.5876     -5745.1397     -186.553        45556.258      93.259211    
     48600   299.55803     -5804.5649     -5745.1283     -309.34648      45569.964      93.281576    
     48610   298.2771      -5804.2965     -5745.1141     -347.05479      45580.792      93.297914    
     48620   295.80817     -5803.7893     -5745.0967     -333.14958      45588.346      93.308479    
     48630   294.47473     -5803.4923     -5745.0643     -421.62031      45592.594      93.312972    
     48640   292.58652     -5803.0642     -5745.0109     -500.82313      45592.751      93.310006    
     48650   293.88188     -5803.244      -5744.9336     -595.31721      45587.976      93.296138    
     48660   295.99817     -5803.5659     -5744.8356     -658.86945      45577.35       93.268006    
     48670   295.62463     -5803.3759     -5744.7197     -556.71435      45560.372      93.227193    
     48680   298.66746     -5803.8545     -5744.5946     -466.21463      45537.81       93.177343    
     48690   301.05223     -5804.1954     -5744.4624     -322.25089      45510.597      93.121134    
     48700   298.0021      -5803.4579     -5744.33       -81.195884      45480.143      93.063078    
     48710   294.59518     -5802.642      -5744.1901      128.18838      45448.687      93.010908    
     48720   295.39369     -5802.639      -5744.0287      283.44834      45418.296      92.969425    
     48730   299.85478     -5803.3403     -5743.8448      421.33802      45390.535      92.938385    
     48740   304.26465     -5804.0277     -5743.6572      564.92686      45366.735      92.911456    
     48750   306.33366     -5804.2657     -5743.4848      659.62759      45348.191      92.878845    
     48760   305.3537      -5803.9277     -5743.3412      752.93458      45335.969      92.837753    
     48770   304.09529     -5803.5597     -5743.2228      707.42303      45330.859      92.797649    
     48780   304.11519     -5803.4714     -5743.1306      611.87224      45332.541      92.772476    
     48790   304.33087     -5803.4421     -5743.0585      474.28988      45340.111      92.771468    
     48800   302.99772     -5803.1232     -5743.0041      379.06954      45352.375      92.797327    
     48810   300.61584     -5802.6105     -5742.964       341.54306      45368.446      92.847961    
     48820   300.27416     -5802.5061     -5742.9274      252.84944      45387.85       92.916938    
     48830   302.098       -5802.8328     -5742.8922      177.54863      45409.8        92.992618    
     48840   302.97076     -5802.9756     -5742.8618      138.16029      45433.617      93.063603    
     48850   306.07188     -5803.5725     -5742.8435      108.87922      45458.942      93.123299    
     48860   310.84226     -5804.5236     -5742.848       47.486428      45485.421      93.169956    
     48870   313.53899     -5805.108      -5742.8974     -42.192545      45512.45       93.204927    
     48880   315.03808     -5805.5262     -5743.0182     -160.93581      45539.176      93.231879    
     48890   311.79562     -5805.1201     -5743.2554     -216.79165      45564.508      93.25636     
     48900   303.82276     -5803.9523     -5743.6695     -216.81556      45587.86       93.286484    
     48910   298.37788     -5803.5264     -5744.3239     -271.49606      45609.11       93.325838    
     48920   294.7192      -5803.674      -5745.1974     -320.97125      45627.806      93.367515    
     48930   292.14223     -5804.0559     -5746.0907     -321.63051      45643.502      93.399859    
     48940   290.32908     -5804.4064     -5746.8009     -266.58006      45656.18       93.417579    
     48950   287.73877     -5804.3774     -5747.2859     -200.03761      45666.319      93.421712    
     48960   284.47923     -5804.0354     -5747.5906     -147.54759      45674.583      93.413937    
     48970   284.17512     -5804.1588     -5747.7744     -167.40756      45681.369      93.396653    
     48980   289.6636      -5805.3501     -5747.8767     -239.14749      45686.498      93.375403    
     48990   293.09467     -5806.0833     -5747.9291     -274.36748      45689.343      93.357156    
     49000   292.04151     -5805.8961     -5747.9509     -276.52594      45689.49       93.347368    
     49010   288.96903     -5805.2791     -5747.9435     -217.80501      45686.972      93.348881    
     49020   288.65646     -5805.1692     -5747.8956     -198.62821      45682.256      93.359923    
     49030   293.63247     -5806.0719     -5747.811      -279.11329      45675.433      93.373508    
     49040   298.86256     -5806.998      -5747.6994     -362.53864      45665.868      93.383403    
     49050   299.40347     -5806.9849     -5747.5789     -438.93168      45652.695      93.385026    
     49060   296.29224     -5806.2433     -5747.4547     -493.88475      45635.112      93.370542    
     49070   295.5173      -5805.9507     -5747.3158     -456.75078      45612.686      93.332235    
     49080   295.18056     -5805.724      -5747.1559     -337.71818      45585.753      93.270788    
     49090   295.98879     -5805.702      -5746.9736     -161.88257      45555.47       93.19456     
     49100   300.56641     -5806.4103     -5746.7736     -14.393059      45523.435      93.111243    
     49110   304.27328     -5806.9427     -5746.5706      161.37386      45491.164      93.024938    
     49120   304.05212     -5806.7058     -5746.3775      358.88305      45460.373      92.938908    
     49130   301.93016     -5806.1074     -5746.2002      517.47172      45432.905      92.858909    
     49140   301.87528     -5805.9261     -5746.0298      604.43474      45410.324      92.794311    
     49150   304.10538     -5806.2078     -5745.8689      566.47156      45393.443      92.751068    
     49160   307.07522     -5806.6531     -5745.725       534.49761      45382.049      92.729378    
     49170   307.38668     -5806.5996     -5745.6097      538.08899      45375.833      92.725465    
     49180   305.55585     -5806.1517     -5745.5251      573.86763      45374.852      92.734188    
     49190   304.66217     -5805.9141     -5745.4647      553.43976      45379.369      92.751977    
     49200   304.00473     -5805.7412     -5745.4223      562.60214      45389.323      92.777333    
     49210   304.9693      -5805.9078     -5745.3976      505.38603      45404.688      92.807838    
     49220   302.45085     -5805.4032     -5745.3926      498.42496      45425.097      92.841815    
     49230   295.8256      -5804.094      -5745.398       533.50001      45450.531      92.878671    
     49240   294.82086     -5803.8871     -5745.3904      427.82816      45481.247      92.918457    
     49250   299.69763     -5804.8319     -5745.3676      213.4178       45516.263      92.967081    
     49260   301.89391     -5805.2362     -5745.3361      13.517453      45553.577      93.030595    
     49270   298.2472      -5804.4771     -5745.3005     -128.42703      45591.271      93.107865    
     49280   297.25582     -5804.2397     -5745.2599     -276.74833      45627.877      93.194621    
     49290   298.63273     -5804.454      -5745.201      -367.23326      45662.017      93.286255    
     49300   298.99804     -5804.4573     -5745.1318     -406.06445      45692.698      93.375387    
     49310   296.60089     -5803.9028     -5745.053      -392.14866      45719.55       93.452762    
     49320   294.2562      -5803.3407     -5744.9561     -430.96692      45742.589      93.50964     
     49330   293.94785     -5803.1572     -5744.8338     -531.5989       45761.42       93.542143    
     49340   297.31813     -5803.6729     -5744.6807     -666.28947      45775.029      93.551335    
     49350   298.91575     -5803.8135     -5744.5043     -745.8571       45782.137      93.541081    
     49360   295.60562     -5802.9675     -5744.3151     -728.20208      45781.956      93.515979    
     49370   294.36481     -5802.5105     -5744.1043     -709.73997      45774.541      93.478482    
     49380   298.27472     -5803.0518     -5743.8698     -730.78281      45760.014      93.428038    
     49390   301.0474      -5803.3531     -5CHGNet v0.3.0 initialized with 412,525 parameters
CHGNet will run on cuda:0
CHGNet will run on cuda:0
743.621      -710.90427      45738.253      93.364032    
     49400   301.1218      -5803.1166     -5743.3697     -596.80722      45709.504      93.286997    
     49410   301.63602     -5802.9752     -5743.1263     -428.92244      45674.833      93.200762    
     49420   302.96628     -5803.002      -5742.8891     -293.65818      45635.808      93.113409    
     49430   303.13107     -5802.8112     -5742.6656     -176.44641      45593.763      93.030821    
     49440   302.43719     -5802.4658     -5742.4579      24.556808      45549.984      92.954197    
     49450   305.71849     -5802.921      -5742.2621      143.41629      45506.261      92.882315    
     49460   312.64837     -5804.1259     -5742.0919      243.41417      45463.854      92.812574    
     49470   316.33154     -5804.7345     -5741.9698      401.97347      45423.803      92.742235    
     49480   315.97011     -5804.6019     -5741.9089      564.7983       45387.565      92.669943    
     49490   315.7338      -5804.5635     -5741.9174      669.57116      45356.689      92.598024    
     49500   313.3081      -5804.1515     -5741.9867      833.50399      45332.367      92.53356     
     49510   309.43072     -5803.507      -5742.1115      949.8882       45316.051      92.487323    
     49520   306.40226     -5803.0734     -5742.2788      1010.5966      45308.884      92.468022    
     49530   304.95501     -5802.9862     -5742.4788      980.46755      45311.439      92.479157    
     49540   303.04212     -5802.8317     -5742.7038      852.46163      45323.389      92.520475    
     49550   300.17368     -5802.4977     -5742.9389      714.14529      45343.623      92.586208    
     49560   301.71674     -5803.0441     -5743.1791      454.29529      45370.709      92.667994    
     49570   303.83115     -5803.704      -5743.4195      211.56007      45402.295      92.757202    
     49580   304.68307     -5804.1185     -5743.665       52.235162      45436.09       92.837907    
     49590   307.14079     -5804.8612     -5743.9201     -31.51064       45470.531      92.896884    
     49600   309.25971     -5805.5537     -5744.1922     -69.202401      45504.762      92.935691    
     49610   308.25096     -5805.6372     -5744.4758     -79.501363      45538.366      92.96646     
     49620   308.15001     -5805.9075     -5744.7661     -147.88493      45571.157      93.004128    
     49630   306.40655     -5805.8386     -5745.0432     -212.20468      45602.537      93.058706    
     49640   303.68989     -5805.5537     -5745.2973     -240.27076      45631.944      93.132695    
     49650   303.50232     -5805.7361     -5745.5169     -284.60545      45659.028      93.222461    
     49660   304.36783     -5806.0968     -5745.7059     -334.18254      45683.331      93.319042    
     49670   304.54956     -5806.2975     -5745.8705     -311.57355      45704.45       93.410807    
     49680   305.83667     -5806.6985     -5746.0161     -239.1215       45722.552      93.489815    
     49690   306.51484     -5806.9702     -5746.1533     -193.22871      45738.259      93.555917    
     49700   305.08042     -5806.8259     -5746.2936     -151.11544      45752.052      93.612069    
     49710   301.7288      -5806.2938     -5746.4265     -140.28138      45764.3        93.662631    
     49720   300.70659     -5806.2136     -5746.5491     -250.05675      45775.024      93.715084    
     49730   301.40929     -5806.4648     -5746.6609     -438.13252      45783.165      93.773451    
     49740   301.01825     -5806.4923     -5746.766      -556.76179      45787.03       93.834165    
     49750   297.42621     -5805.8833     -5746.8697     -566.0308       45785.488      93.890239    
     49760   295.02636     -5805.4955     -5746.958      -484.25172      45778.442      93.933861    
     49770   297.65993     -5806.0844     -5747.0244     -435.39537      45766.547      93.959844    
     49780   302.97078     -5807.1995     -5747.0857     -408.3925       45750.373      93.966489    
     49790   303.78786     -5807.4287     -5747.1528     -348.70139      45730.281      93.952726    
     49800   300.87677     -5806.9292     -5747.2309     -294.00888      45706.784      93.920814    
     49810   297.85585     -5806.4073     -5747.3085     -215.51956      45680.53       93.879525    
     49820   297.07494     -5806.3206     -5747.3766     -137.59809      45652.295      93.840954    
     49830   296.8099      -5806.3228     -5747.4314     -74.294584      45622.798      93.810558    
     49840   294.4488      -5805.8939     -5747.4711      41.547672      45592.775      93.785326    
     49850   291.93655     -5805.4146     -5747.4902      123.82612      45563.241      93.756375    
     49860   292.12952     -5805.4417     -5747.479       181.3894       45535.048      93.715466    
     49870   294.15412     -5805.8064     -5747.442       288.55827      45508.833      93.661353    
     49880   297.08998     -5806.3242     -5747.3773      364.39763      45485.472      93.600087    
     49890   298.57393     -5806.5406     -5747.2993      463.29078      45465.767      93.542954    
     49900   299.18835     -5806.5692     -5747.206       502.80192      45450.55       93.500426    
     49910   301.08263     -5806.8479     -5747.1088      476.35435      45440.193      93.475759    
     49920   302.15384     -5806.9622     -5747.0105      419.2779       45434.45       93.469121    
     49930   300.41954     -5806.5176     -5746.91        351.12121      45432.773      93.479272    
     49940   299.68751     -5806.2675     -5746.8052      264.81388      45434.485      93.50384     
     49950   297.77026     -5805.7727     -5746.6908      208.93709      45438.764      93.53879     
     49960   292.7205      -5804.6331     -5746.5531      242.96607      45445.121      93.5779      
     49970   289.36306     -5803.7911     -5746.3774      313.65662      45453.835      93.616951    
     49980   291.94429     -5804.0709     -5746.145       319.96943      45465.515      93.652458    
     49990   297.09635     -5804.8037     -5745.8555      320.52569      45480.257      93.682883    
     50000   299.97117     -5805.0487     -5745.5301      381.95988      45498.101      93.712344    
Loop time of 8079.29 on 1 procs for 20000 steps with 1536 atoms

Performance: 0.214 ns/day, 112.212 hours/ns, 2.475 timesteps/s, 3.802 katom-step/s
122.5% CPU use with 1 MPI tasks x 1 OpenMP threads

MPI task timing breakdown:
Section |  min time  |  avg time  |  max time  |%varavg| %total
---------------------------------------------------------------
Pair    | 7941.9     | 7941.9     | 7941.9     |   0.0 | 98.30
Bond    | 0.061268   | 0.061268   | 0.061268   |   0.0 |  0.00
Neigh   | 6.0198     | 6.0198     | 6.0198     |   0.0 |  0.07
Comm    | 0.77103    | 0.77103    | 0.77103    |   0.0 |  0.01
Output  | 128.7      | 128.7      | 128.7      |   0.0 |  1.59
Modify  | 1.6675     | 1.6675     | 1.6675     |   0.0 |  0.02
Other   |            | 0.2032     |            |       |  0.00

Nlocal:           1536 ave        1536 max        1536 min
Histogram: 1 0 0 0 0 0 0 0 0 0
Nghost:           2580 ave        2580 max        2580 min
Histogram: 1 0 0 0 0 0 0 0 0 0
Neighs:              0 ave           0 max           0 min
Histogram: 1 0 0 0 0 0 0 0 0 0
FullNghs:        52476 ave       52476 max       52476 min
Histogram: 1 0 0 0 0 0 0 0 0 0

Total # of neighbors = 52476
Ave neighs/atom = 34.164062
Ave special neighs/atom = 0
Neighbor list builds = 2000
Dangerous builds = 2000
System init for write_data ...
System init for write_restart ...
Total wall time: 3:19:36
