LAMMPS (29 Sep 2021 - Update 3)
OMP_NUM_THREADS environment is not set. Defaulting to 1 thread. (src/comm.cpp:98)
  using 1 OpenMP thread(s) per MPI task
Reading data file ...
  orthogonal box = (0.0000000 0.0000000 0.0000000) to (16.534670 17.767358 74.594796)
  1 by 2 by 8 MPI processor grid
  reading atoms ...
  864 atoms
Finding 1-2 1-3 1-4 neighbors ...
  special bond factors lj:    0        0        0       
  special bond factors coul:  0        0        0       
     0 = max # of 1-2 neighbors
     0 = max # of 1-3 neighbors
     0 = max # of 1-4 neighbors
     1 = max # of special neighbors
  special bonds CPU = 0.001 seconds
  read_data CPU = 0.026 seconds
Neighbor list info ...
  update every 1 steps, delay 10 steps, check yes
  max neighbors/atom: 2000, page size: 100000
  master list distance cutoff = 6.22
  ghost atom cutoff = 6.22
  binsize = 3.11, bins = 6 6 24
  1 neighbor lists, perpetual/occasional/extra = 1 0 0
  (1) pair quip, perpetual
      attributes: full, newton on
      pair build: full/bin
      stencil: full/bin/3d
      bin: standard
Setting up Verlet run ...
  Unit style    : metal
  Current step  : 0
  Time step     : 0.001
Per MPI rank memory allocation (min/avg/max) = 8.894 | 8.906 | 8.915 Mbytes
Step Temp PotEng TotEng Press Volume c_msd[4] 
       0            0   -8413.4292   -8413.4292   -12531.916    21914.265            0 
      10    63.367096   -8420.5059   -8413.4372   -13062.757    21914.265 0.00028900792 
      20    162.23389   -8431.5423   -8413.4448   -13580.932    21914.265 0.0035442006 
      30    203.76318   -8436.1707   -8413.4406   -13263.999    21914.265  0.011998633 
      40     225.5427      -8438.6   -8413.4404   -13091.981    21914.265  0.023619499 
      50    238.39464   -8440.0352   -8413.4419   -13192.953    21914.265  0.036411648 
      60    237.91747   -8439.9798   -8413.4397    -13151.82    21914.265  0.049420327 
      70    242.25882   -8440.4649   -8413.4405   -12986.142    21914.265  0.062561747 
      80    243.33226   -8440.5825   -8413.4384   -12841.846    21914.265  0.075987004 
      90     256.1439    -8442.014   -8413.4408   -12985.089    21914.265  0.088683986 
     100    260.92723   -8442.5467   -8413.4399   -13129.532    21914.265   0.10092572 
     110    263.36735   -8442.8185   -8413.4395   -13314.209    21914.265   0.11296329 
     120    267.45703   -8443.2754   -8413.4402   -13403.997    21914.265   0.12509928 
     130    267.20277   -8443.2463   -8413.4395   -13198.457    21914.265   0.13819283 
     140    269.21359   -8443.4705   -8413.4393   -12839.711    21914.265   0.15259322 
     150     276.3754   -8444.2699   -8413.4398   -12564.061    21914.265   0.16775295 
     160    282.09052   -8444.9077   -8413.4401   -12400.914    21914.265   0.18315323 
     170    283.74907   -8445.0928   -8413.4402     -12430.3    21914.265    0.1989762 
     180    279.57367   -8444.6271   -8413.4402   -12727.353    21914.265   0.21536827 
     190    272.01519   -8443.7829   -8413.4391   -12943.608    21914.265   0.23180139 
     200    272.98877   -8443.8921   -8413.4397   -13066.814    21914.265    0.2476891 
     210    278.28656   -8444.4833     -8413.44   -13119.162    21914.265   0.26290373 
     220    281.61115   -8444.8543   -8413.4402    -13052.65    21914.265   0.27743582 
     230    283.45537   -8445.0589    -8413.439   -12948.839    21914.265   0.29133107 
     240    292.81696   -8446.1046   -8413.4404   -13016.029    21914.265    0.3048675 
     250    295.20203   -8446.3705   -8413.4402   -13077.887    21914.265   0.31931215 
     260    290.46684   -8445.8415   -8413.4394   -13040.528    21914.265   0.33532684 
     270    290.61991    -8445.858   -8413.4389   -13235.455    21914.265   0.35239777 
     280    301.25443   -8447.0456   -8413.4402   -13515.282    21914.265   0.36952956 
     290    308.28623   -8447.8304   -8413.4406   -13611.572    21914.265   0.38667041 
     300    309.20907   -8447.9319   -8413.4392   -13455.868    21914.265    0.4041006 
     310     314.5316   -8448.5273   -8413.4408   -13198.597    21914.265   0.42152557 
     320    312.09261   -8448.2546   -8413.4402   -12968.083    21914.265   0.43866959 
     330    305.84421   -8447.5573   -8413.4399   -12657.381    21914.265   0.45536472 
     340    303.20988   -8447.2632   -8413.4397   -12498.026    21914.265   0.47172581 
     350    307.13857   -8447.7018     -8413.44   -12492.368    21914.265   0.48754232 
     360    312.15901   -8448.2619   -8413.4401   -12369.505    21914.265   0.50223919 
     370     318.6847   -8448.9898     -8413.44   -12195.898    21914.265   0.51545083 
     380    326.66636   -8449.8808   -8413.4407   -12030.164    21914.265   0.52751087 
     390    328.67292   -8450.1043   -8413.4403   -11786.931    21914.265   0.53983918 
     400    329.42172   -8450.1875     -8413.44   -11529.418    21914.265   0.55338123 
     410    329.12824   -8450.1558   -8413.4411   -11363.621    21914.265   0.56856317 
     420    321.17839   -8449.2675   -8413.4396   -11329.503    21914.265   0.58578319 
     430    319.73313   -8449.1067     -8413.44   -11645.546    21914.265   0.60460993 
     440    321.87014   -8449.3455   -8413.4404   -12168.872    21914.265   0.62482739 
     450    321.69175   -8449.3257   -8413.4405   -12517.526    21914.265   0.64605131 
     460    321.58625   -8449.3131   -8413.4397   -12738.117    21914.265   0.66602281 
     470    327.73765   -8450.0009   -8413.4413    -13118.13    21914.265   0.68222539 
     480    325.78012   -8449.7811   -8413.4399   -13518.975    21914.265   0.69547134 
     490    325.26696   -8449.7242   -8413.4402   -13912.333    21914.265   0.70709849 
     500    326.02809   -8449.8096   -8413.4407    -14245.82    21914.265    0.7181905 
     510     321.8067   -8449.3384   -8413.4404   -14358.421    21914.265   0.73031831 
     520    314.82643   -8448.5595   -8413.4401   -14393.561    21914.265   0.74493886 
     530    311.55922   -8448.1945   -8413.4396    -14504.26    21914.265   0.76206346 
     540    316.52181   -8448.7487   -8413.4402   -14692.451    21914.265   0.78048733 
     550    323.45997   -8449.5224     -8413.44   -14675.954    21914.265   0.79880458 
     560    332.20295   -8450.4987   -8413.4409    -14432.97    21914.265   0.81596428 
     570    332.37528   -8450.5179   -8413.4409   -14008.452    21914.265   0.83234674 
     580    324.44532    -8449.632   -8413.4397   -13682.622    21914.265   0.84880328 
     590    322.54654   -8449.4211   -8413.4405   -13611.186    21914.265   0.86493346 
     600    320.03229     -8449.14   -8413.4399   -13618.158    21914.265   0.88136827 
     610     322.0694   -8449.3667   -8413.4393   -13770.866    21914.265   0.89972436 
     620    332.97088   -8450.5844    -8413.441   -14040.679    21914.265   0.91979176 
     630    336.52886   -8450.9806   -8413.4403   -14106.634    21914.265    0.9400978 
     640    340.63169   -8451.4378   -8413.4399   -14084.373    21914.265   0.95883362 
     650     349.6267   -8452.4431   -8413.4417   -14126.089    21914.265   0.97518253 
     660     345.3101   -8451.9607   -8413.4408    -13925.09    21914.265   0.98949595 
     670    335.30236   -8450.8431   -8413.4396   -13541.064    21914.265    1.0025057 
     680    335.35657   -8450.8495     -8413.44   -13120.509    21914.265    1.0157598 
     690    342.86707   -8451.6878   -8413.4405   -12807.122    21914.265    1.0306556 
     700    350.61517   -8452.5527    -8413.441   -12613.893    21914.265    1.0481195 
     710    351.61871   -8452.6647   -8413.4411    -12558.63    21914.265     1.067876 
     720    346.37378   -8452.0785     -8413.44   -12478.274    21914.265    1.0873947 
     730    347.79156   -8452.2373   -8413.4406   -12593.955    21914.265    1.1041491 
     740    351.02442    -8452.599   -8413.4417   -12781.856    21914.265    1.1188548 
     750    344.89782   -8451.9145   -8413.4406   -12888.282    21914.265     1.133643 
     760      340.342   -8451.4064   -8413.4407   -13050.736    21914.265    1.1491825 
     770    340.04955   -8451.3737   -8413.4407   -13326.749    21914.265    1.1643304 
     780      345.357   -8451.9656   -8413.4405   -13558.373    21914.265    1.1777023 
     790    357.12317   -8453.2788   -8413.4411   -13831.043    21914.265    1.1886997 
     800    366.64045   -8454.3407   -8413.4414   -14129.874    21914.265    1.1976392 
     810    368.68447   -8454.5688   -8413.4415   -14063.484    21914.265    1.2056605 
     820    366.60174   -8454.3361   -8413.4411   -13908.726    21914.265    1.2141717 
     830    365.85586   -8454.2531   -8413.4413   -13853.131    21914.265    1.2243585 
     840     368.4524   -8454.5423   -8413.4409   -13972.673    21914.265    1.2365636 
     850    371.87492   -8454.9262    -8413.443    -14131.16    21914.265    1.2503596 
     860     358.1746   -8453.3954   -8413.4405     -13818.7    21914.265    1.2649975 
     870    354.45705   -8452.9806   -8413.4404   -13465.958    21914.265     1.278191 
     880    366.65296   -8454.3425   -8413.4418   -13399.092    21914.265    1.2880847 
     890    376.93995   -8455.4909   -8413.4426    -13274.53    21914.265    1.2959326 
     900    375.96913   -8455.3817   -8413.4418   -13062.805    21914.265    1.3041818 
     910    374.01489   -8455.1632   -8413.4413   -12824.206    21914.265    1.3130528 
     920    378.94842   -8455.7136   -8413.4414   -12747.174    21914.265    1.3222121 
     930    388.54983   -8456.7859   -8413.4426   -12880.601    21914.265    1.3329508 
     940    389.80019   -8456.9258    -8413.443   -12981.003    21914.265    1.3457299 
     950    382.52604   -8456.1127   -8413.4413   -12918.004    21914.265    1.3587946 
     960    381.75271   -8456.0275   -8413.4424   -13120.356    21914.265    1.3710856 
     970    380.20365    -8455.854   -8413.4417   -13297.868    21914.265    1.3835601 
     980    384.06597   -8456.2848   -8413.4416    -13360.21    21914.265    1.3967998 
     990    391.39252    -8457.104   -8413.4436    -13319.56    21914.265    1.4114384 
    1000    385.55287   -8456.4508   -8413.4418   -13032.957    21914.265    1.4285977 
    1010    381.98963   -8456.0536   -8413.4421   -12900.345    21914.265    1.4480597 
    1020    382.08452   -8456.0644   -8413.4423   -12891.786    21914.265    1.4678099 
    1030    380.66666   -8455.9065   -8413.4425   -12820.478    21914.265    1.4859085 
    1040    378.02017   -8455.6107    -8413.442   -12814.774    21914.265    1.5012686 
    1050    381.70997   -8456.0224   -8413.4421   -12925.622    21914.265    1.5119118 
    1060    391.42566   -8457.1073   -8413.4432    -13146.33    21914.265    1.5173209 
    1070    396.24192   -8457.6441   -8413.4428   -13102.084    21914.265    1.5196151 
    1080    397.63032   -8457.7993    -8413.443   -12889.784    21914.265    1.5211703 
    1090    396.12759   -8457.6308   -8413.4422   -12537.537    21914.265    1.5231683 
    1100    400.33119   -8458.1002   -8413.4426   -12299.668    21914.265    1.5256834 
    1110    407.17314   -8458.8635   -8413.4428   -12099.612    21914.265    1.5296348 
    1120    413.19804   -8459.5369    -8413.444   -11926.861    21914.265    1.5369315 
    1130    409.94165   -8459.1721   -8413.4425   -11927.354    21914.265    1.5487344 
    1140    411.69689   -8459.3679   -8413.4425   -12274.932    21914.265    1.5644715 
    1150    417.92932   -8460.0654   -8413.4448   -12599.199    21914.265    1.5822789 
    1160    409.45399   -8459.1175   -8413.4423   -12608.558    21914.265    1.6004412 
    1170    405.75202   -8458.7057   -8413.4435   -12496.116    21914.265    1.6169469 
    1180    399.97271   -8458.0606    -8413.443   -12466.412    21914.265    1.6317671 
    1190    393.04741   -8457.2883   -8413.4433   -12618.331    21914.265    1.6460138 
    1200    381.93867   -8456.0489   -8413.4431   -12576.103    21914.265    1.6602667 
    1210    376.72969   -8455.4667   -8413.4419   -12745.258    21914.265    1.6726433 
    1220     387.4652   -8456.6661   -8413.4437   -13270.317    21914.265    1.6819979 
    1230    392.11995   -8457.1848   -8413.4433   -13698.725    21914.265    1.6894908 
    1240    392.35374   -8457.2109   -8413.4432   -14054.078    21914.265    1.6958816 
    1250    387.63167   -8456.6848   -8413.4439   -14383.659    21914.265    1.7022745 
    1260    377.01437   -8455.4984   -8413.4419   -14780.957    21914.265    1.7098627 
    1270    380.16106   -8455.8505   -8413.4429    -15291.91    21914.265    1.7186286 
    1280    386.65141    -8456.575   -8413.4435   -15684.863    21914.265    1.7280931 
    1290    386.45138   -8456.5524   -8413.4431   -15669.118    21914.265    1.7377267 
    1300    384.49318   -8456.3333   -8413.4425   -15192.167    21914.265    1.7465203 
    1310    389.16883   -8456.8559   -8413.4435   -14748.802    21914.265    1.7543822 
    1320    395.91985   -8457.6092   -8413.4437   -14540.669    21914.265    1.7626209 
    1330    402.24128   -8458.3144   -8413.4438   -14482.176    21914.265    1.7719127 
    1340    406.72312   -8458.8138   -8413.4433   -14593.779    21914.265    1.7822942 
    1350    413.88937   -8459.6138   -8413.4438   -14633.206    21914.265    1.7929881 
    1360    418.26368   -8460.1021   -8413.4441   -14272.723    21914.265    1.8043383 
    1370    412.53709   -8459.4628   -8413.4437   -13640.472    21914.265    1.8173742 
    1380    404.03017    -8458.513   -8413.4428   -13053.663    21914.265    1.8314414 
    1390    402.11865   -8458.3013   -8413.4444   -12796.252    21914.265    1.8446224 
    1400    396.75786   -8457.7017   -8413.4428   -12890.081    21914.265    1.8555613 
    1410     401.1626   -8458.1945   -8413.4442   -13251.623    21914.265    1.8625402 
    1420    405.53922    -8458.683   -8413.4445   -13540.901    21914.265    1.8651673 
    1430    404.12534   -8458.5245   -8413.4437   -13662.885    21914.265    1.8648977 
    1440    405.72045   -8458.7027    -8413.444   -13771.634    21914.265    1.8643414 
    1450    406.67484   -8458.8092    -8413.444   -13873.149    21914.265    1.8661066 
    1460    406.94702   -8458.8395   -8413.4439   -13898.845    21914.265    1.8707341 
    1470    405.99802   -8458.7335   -8413.4438    -13583.81    21914.265    1.8783175 
    1480    405.25435   -8458.6503   -8413.4436   -13097.342    21914.265    1.8881067 
    1490    408.19865    -8458.979   -8413.4439   -12662.726    21914.265    1.8977467 
    1500    414.56579   -8459.6887   -8413.4433   -12296.863    21914.265    1.9065246 
    1510    429.03716   -8461.3044   -8413.4447   -11735.577    21914.265    1.9156573 
    1520    435.43303   -8462.0188   -8413.4456   -11140.275    21914.265    1.9269758 
    1530    420.46896   -8460.3486   -8413.4446     -10759.3    21914.265    1.9420002 
    1540    404.55727   -8458.5707   -8413.4417   -10562.297    21914.265    1.9594173 
    1550     414.5371   -8459.6878   -8413.4456   -10873.945    21914.265    1.9756145 
    1560    415.64167   -8459.8093   -8413.4438    -11180.84    21914.265    1.9896674 
    1570    417.51903   -8460.0192   -8413.4444   -11574.862    21914.265      2.00287 
    1580    420.71133   -8460.3754   -8413.4444   -12084.028    21914.265    2.0173903 
    1590    422.23753   -8460.5459   -8413.4446   -12650.323    21914.265    2.0354221 
    1600    420.26548   -8460.3254   -8413.4441   -13157.964    21914.265    2.0567995 
    1610    418.97614   -8460.1816   -8413.4442   -13379.664    21914.265    2.0784503 
    1620    422.99101    -8460.629   -8413.4437   -13476.483    21914.265    2.0978277 
    1630    431.41255   -8461.5707    -8413.446   -13473.665    21914.265     2.115193 
    1640    426.28653   -8460.9963   -8413.4434   -13430.412    21914.265    2.1338075 
    1650    431.13487   -8461.5387    -8413.445   -13658.596    21914.265       2.1559 
    1660    436.17822   -8462.1019   -8413.4456   -13638.641    21914.265    2.1797337 
    1670    428.12023   -8461.2022   -8413.4447   -13252.346    21914.265    2.2035441 
    1680    422.66155   -8460.5919   -8413.4434   -13022.696    21914.265    2.2262152 
    1690    430.34848   -8461.4521    -8413.446   -12966.155    21914.265    2.2464937 
    1700    426.21611   -8460.9896   -8413.4446   -12849.343    21914.265    2.2649593 
    1710    421.63281   -8460.4781   -8413.4443    -12902.06    21914.265    2.2822078 
    1720    425.52952   -8460.9136   -8413.4451   -13254.993    21914.265    2.2992296 
    1730    433.21398   -8461.7705   -8413.4448   -13760.925    21914.265    2.3170264 
    1740    441.86781   -8462.7372   -8413.4461   -14050.542    21914.265    2.3352522 
    1750    438.27813    -8462.336   -8413.4454   -13921.401    21914.265    2.3528289 
    1760    429.17186   -8461.3192   -8413.4444   -13408.002    21914.265    2.3694072 
    1770    428.81898   -8461.2807   -8413.4453    -12917.73    21914.265    2.3858611 
    1780    433.34916   -8461.7857    -8413.445   -12638.931    21914.265    2.4026666 
    1790     441.0669   -8462.6474   -8413.4457   -12705.172    21914.265     2.419074 
    1800    447.24535   -8463.3359    -8413.445   -12842.309    21914.265    2.4345236 
    1810    451.04914   -8463.7611   -8413.4459   -13058.485    21914.265    2.4502124 
    1820    445.08252   -8463.0941   -8413.4445   -13035.825    21914.265    2.4671851 
    1830    441.70858   -8462.7187   -8413.4454   -12922.342    21914.265    2.4853863 
    1840    432.65555   -8461.7082   -8413.4449   -13058.866    21914.265    2.5046773 
    1850    428.24526   -8461.2146   -8413.4432   -13494.155    21914.265    2.5239509 
    1860    442.70809   -8462.8312   -8413.4464     -14052.9    21914.265    2.5417036 
    1870    445.34398   -8463.1238   -8413.4451   -14177.248    21914.265    2.5577578 
    1880    449.56383   -8463.5931   -8413.4436   -14088.107    21914.265    2.5732932 
    1890    469.70151   -8465.8424   -8413.4465   -13965.821    21914.265    2.5900107 
    1900    475.61979   -8466.5029   -8413.4468   -13338.709    21914.265    2.6092547 
    1910    460.77113   -8464.8444   -8413.4447   -12266.897    21914.265    2.6300063 
    1920    453.29076   -8464.0097   -8413.4444   -11600.031    21914.265    2.6488623 
    1930    455.01355   -8464.2038   -8413.4464   -11532.276    21914.265     2.664581 
    1940    446.57627   -8463.2611   -8413.4448   -11610.068    21914.265    2.6787843 
    1950    442.24787   -8462.7779   -8413.4445    -12067.88    21914.265     2.691974 
    1960    445.34565   -8463.1243   -8413.4453   -12574.104    21914.265    2.7033659 
    1970     445.3849   -8463.1293   -8413.4459   -12683.518    21914.265    2.7130116 
    1980    438.45896   -8462.3558    -8413.445   -12521.804    21914.265    2.7223802 
    1990    435.82997    -8462.062   -8413.4445   -12590.151    21914.265    2.7312795 
    2000    445.20858   -8463.1089   -8413.4452   -13039.215    21914.265    2.7384799 
Loop time of 1344.93 on 16 procs for 2000 steps with 864 atoms

Performance: 0.128 ns/day, 186.795 hours/ns, 1.487 timesteps/s
97.1% CPU use with 16 MPI tasks x 1 OpenMP threads

MPI task timing breakdown:
Section |  min time  |  avg time  |  max time  |%varavg| %total
---------------------------------------------------------------
Pair    | 526.79     | 830.09     | 1328.8     | 802.6 | 61.72
Bond    | 0.00023842 | 0.00069907 | 0.001688   |   0.0 |  0.00
Neigh   | 0.018458   | 0.030518   | 0.055568   |   6.4 |  0.00
Comm    | 15.625     | 454.08     | 716.11     | 994.2 | 33.76
Output  | 0.29098    | 41.429     | 92.684     | 546.1 |  3.08
Modify  | 0.010073   | 0.011925   | 0.013936   |   1.0 |  0.00
Other   |            | 19.29      |            |       |  1.43

Nlocal:        54.0000 ave          84 max          36 min
Histogram: 3 3 4 0 0 2 1 0 1 2
Nghost:        477.750 ave         592 max         348 min
Histogram: 2 0 2 1 3 3 1 0 0 4
Neighs:         0.00000 ave           0 max           0 min
Histogram: 16 0 0 0 0 0 0 0 0 0
FullNghs:      2234.12 ave        4892 max        1038 min
Histogram: 5 5 0 0 2 0 2 0 0 2

Total # of neighbors = 35746
Ave neighs/atom = 41.372685
Ave special neighs/atom = 0.0000000
Neighbor list builds = 199
Dangerous builds = 198
Setting up Verlet run ...
  Unit style    : metal
  Current step  : 2000
  Time step     : 0.001
Per MPI rank memory allocation (min/avg/max) = 8.894 | 8.907 | 8.916 Mbytes
Step Temp PotEng TotEng Press Volume c_msd[4] 
    2000        337.5   -8463.1089   -8425.4603   -13624.838    21914.265    2.7384799 
    2010    354.50108   -8465.3455   -8425.8003   -13669.954    21889.808    2.7348107 
    2020    378.59389   -8469.0106   -8426.7779    -12753.89     21817.11     2.726055 
    2030    396.01243   -8472.4113   -8428.2355    -10762.12    21700.609    2.7146953 
    2040    403.30476   -8474.8723    -8429.883   -7714.9678    21550.179    2.7029417 
    2050    409.43234   -8477.1088    -8431.436   -4447.1305    21380.796    2.6928846 
    2060    411.80238   -8478.6433   -8432.7061   -1129.0782    21209.158    2.6864082 
    2070    404.22493   -8478.6578   -8433.5659    1753.6162    21050.633    2.6828512 
    2080    410.89619    -8479.903   -8434.0669    3548.8316     20916.13    2.6792997 
    2090    422.61296   -8481.5653   -8434.4222    3981.5856    20809.912    2.6750078 
    2100    430.38265   -8482.8341   -8434.8243    3131.0825    20729.918     2.671454 
    2110    435.76844   -8483.9859   -8435.3753    1810.4709    20670.032      2.66972 
    2120     435.2499   -8484.6304   -8436.0776    526.62812    20623.347    2.6700696 
    2130    437.35653   -8485.6952   -8436.9074   -908.09874    20583.828    2.6735237 
    2140    435.86899   -8486.4638   -8437.8419   -2294.2637    20545.994    2.6811457 
    2150    429.94801   -8486.8021   -8438.8407   -2935.8165    20505.331    2.6922821 
    2160    426.39457   -8487.4197   -8439.8548   -2830.0195    20459.813    2.7047593 
    2170    421.04156    -8487.824   -8440.8562   -2268.0024    20409.783     2.716477 
    2180    415.85148   -8488.2102   -8441.8213    -1459.804    20356.912    2.7270683 
    2190    419.60478   -8489.5609   -8442.7533   -505.58886    20303.541    2.7381834 
    2200    425.10046   -8491.1098   -8443.6892    525.69899    20252.294    2.7508773 
    2210      423.083    -8491.841   -8444.6454    1456.0259    20205.814    2.7647297 
    2220    415.04008   -8491.9018   -8445.6035    2148.0761    20166.331    2.7786401 
    2230    412.66401   -8492.5789   -8446.5456    2551.9942    20135.311    2.7910509 
    2240    418.13873   -8494.1331   -8447.4891    2884.5796    20113.458    2.8010323 
    2250    417.32431   -8495.0071   -8448.4539    2997.6693    20101.125    2.8097441 
    2260    407.94773   -8494.9232   -8449.4161    2750.1094    20098.112    2.8186781 
    2270    410.44348   -8496.1553   -8450.3697     1946.424    20103.185    2.8268064 
    2280    421.45218   -8498.3713   -8451.3577    850.54217    20113.649     2.832465 
    2290    411.28521   -8498.2479   -8452.3685    195.49143    20126.291    2.8372365 
    2300    400.02455   -8497.9708   -8453.3475   -401.07084    20138.988    2.8428395 
    2310    396.81653   -8498.5544   -8454.2889   -987.30564    20149.957    2.8509241 
    2320    389.28829   -8498.6248   -8455.1991   -1267.5015    20157.629    2.8642326 
    2330    379.26701   -8498.3674   -8456.0596   -1507.7715    20161.248    2.8829396 
    2340       385.67   -8499.9127   -8456.8907   -1777.5886    20160.231    2.9029553 
    2350    391.40461   -8501.4017     -8457.74   -1628.7124    20154.124      2.92066 
    2360    380.07149   -8500.9789   -8458.5813   -1045.2898    20143.606    2.9350991 
    2370    373.94258   -8501.0948    -8459.381   -397.72065    20130.485    2.9464076 
    2380    378.78805   -8502.4084   -8460.1541    140.13536    20116.738     2.956045 
    2390    380.72214   -8503.3949   -8460.9247    796.30287     20104.04     2.966035 
    2400    374.91791   -8503.5148   -8461.6922    1500.5593    20094.248    2.9779704 
    2410    369.99225   -8503.7222    -8462.449    1793.8759    20089.187    2.9924912 
    2420    371.30809   -8504.6255   -8463.2055     1604.656    20089.492    3.0080901 
    2430    368.56199   -8505.0731   -8463.9595    1378.8884    20094.543    3.0223189 
    2440    365.06086   -8505.4177   -8464.6947    651.55492    20103.314    3.0347887 
    2450    371.21673   -8506.8257   -8465.4159   -521.12296     20113.56    3.0485019 
    2460    382.12303   -8508.7913   -8466.1649   -1736.5973    20121.823    3.0666871 
    2470    379.78473    -8509.312   -8466.9465   -2454.8685    20124.741    3.0888428 
    2480    367.54301   -8508.7181   -8467.7181   -2437.7829    20120.508    3.1114935 
    2490    356.55545    -8508.218   -8468.4437   -2223.9931    20109.291    3.1304313 
    2500    352.41375   -8508.4375   -8469.1252   -1865.3086    20092.042    3.1437596 
    2510    355.40408   -8509.4245   -8469.7787   -1460.3124     20070.04    3.1540895 
    2520    355.50623    -8510.076   -8470.4187   -882.07581     20044.73    3.1646173 
    2530     342.2038   -8509.1893    -8471.016   -33.137889    20017.991    3.1767237 
    2540    337.50164   -8509.1898    -8471.541    730.22728    19992.287      3.19101 
    2550    346.92627   -8510.7213   -8472.0212    1348.5335    19969.776    3.2065408 
    2560    349.50042   -8511.4767   -8472.4894    2216.1145     19952.25    3.2209791 
    2570    348.35563   -8511.8172   -8472.9576    3030.2105    19941.893    3.2320209 
    2580    356.83823   -8513.2595   -8473.4537    3353.8773    19940.603    3.2388758 
    2590    361.80518   -8514.3565   -8473.9966    3221.6025        19949    3.2440261 
    2600    367.68419   -8515.6075   -8474.5918    2635.2662    19966.323    3.2512164 
    2610    367.12587   -8516.1799   -8475.2265    1836.5334    19990.611    3.2636954 
    2620    357.69546   -8515.7648   -8475.8633     828.2308    20019.272    3.2818769 
    2630    354.79954   -8516.0463   -8476.4679   -306.58858     20049.23    3.3031072 
    2640    358.23216   -8517.0115   -8477.0502   -1288.2076    20077.173     3.323815 
    2650    354.98075   -8517.2195   -8477.6208    -2030.343    20100.316    3.3425745 
    2660    351.58987   -8517.4017   -8478.1813   -2594.6095    20116.645    3.3605736 
    2670     348.0265   -8517.5568    -8478.734   -2935.4689    20124.739    3.3795202 
    2680    348.75168   -8518.1907   -8479.2869    -2823.948    20123.974    3.3999438 
    2690    351.97638   -8519.1125    -8479.849   -2408.6203    20114.964    3.4217304 
    2700    346.60567     -8519.07   -8480.4057    -1797.636    20099.232     3.444281 
    2710    340.51256   -8518.9148   -8480.9301   -891.53713    20078.892    3.4650501 
    2720    334.88505    -8518.768    -8481.411   -30.541069    20056.724    3.4824334 
    2730    336.35349   -8519.3729   -8481.8522    573.47542     20035.32    3.4982938 
    2740    348.08226   -8521.1118   -8482.2827    930.90863    20016.387    3.5155856 
    2750    341.36436   -8520.7877   -8482.7079    1360.8918    20000.979    3.5353895 
    2760    325.98992   -8519.4637    -8483.099    1511.0927    19990.113    3.5559789 
    2770    322.48096    -8519.418   -8483.4447     1130.366    19983.968    3.5741359 
    2780    326.35184    -8520.161    -8483.756    490.47595    19981.301    3.5864875 
    2790    329.64765   -8520.8189   -8484.0462   -92.715981    19980.179    3.5923501 
    2800    331.22472   -8521.2642   -8484.3156   -490.52387    19978.872    3.5958247 
    2810    338.33421   -8522.3074   -8484.5657   -701.08271     19976.24    3.6022182 
    2820    340.57029   -8522.8042   -8484.8131   -916.73515    19971.683    3.6136149 
    2830    336.25833   -8522.5755   -8485.0654   -1084.2254    19964.669    3.6273725 
    2840     338.9328   -8523.1338   -8485.3253   -1099.4479    19954.839    3.6393575 
    2850    338.84554   -8523.3908   -8485.5921    -976.3417    19942.249    3.6480132 
    2860    335.40366   -8523.2734   -8485.8587   -722.07502     19927.38    3.6529099 
    2870    331.35683   -8523.0776   -8486.1143   -266.76439     19911.08    3.6547245 
    2880    322.33003   -8522.2971   -8486.3407    548.31776     19894.78    3.6550538 
    2890    313.90551   -8521.5235   -8486.5069    1306.3686    19880.743    3.6545406 
    2900    319.68582   -8522.2733   -8486.6119    1379.6025    19870.883    3.6542092 
    2910    326.34314   -8523.0847   -8486.6806    893.43986    19865.257    3.6558268 
    2920    331.15848   -8523.6762    -8486.735    252.14181    19862.387    3.6597446 
    2930    332.40476    -8523.863   -8486.7827   -378.52654    19860.348    3.6659665 
    2940    334.19466   -8524.1111   -8486.8312   -712.84188    19857.385     3.674479 
    2950    334.37954   -8524.1807   -8486.8802   -745.48675    19852.578    3.6850079 
    2960    338.98144   -8524.7429    -8486.929   -695.67113     19845.85     3.696532 
    2970    340.11681   -8524.9204   -8486.9798    -224.2072    19837.539    3.7074858 
    2980    333.30667   -8524.2111   -8487.0302    506.13189        19829    3.7174938 
    2990    332.16895    -8524.128   -8487.0741    978.61981      19822.2    3.7286713 
    3000     336.0705   -8524.5962    -8487.107    1124.4883    19818.426    3.7443153 
    3010    338.93178   -8524.9377   -8487.1293    1046.3664    19817.982    3.7662001 
    3020    334.29834   -8524.4336   -8487.1421    988.10864    19820.559    3.7933357 
    3030    332.04933   -8524.1801   -8487.1395    995.05284    19825.914    3.8217276 
    3040    342.18943   -8525.2997    -8487.128    869.43265    19833.879     3.846429 
    3050    338.67578   -8524.9031   -8487.1233    866.39128     19844.09    3.8646759 
    3060    338.82359   -8524.9278   -8487.1315    495.81019    19856.317    3.8773129 
    3070    345.65607   -8525.7084   -8487.1499   -139.83275    19869.436    3.8879325 
    3080    339.06873   -8525.0042   -8487.1806   -517.45006    19881.734    3.9002985 
    3090    338.69749   -8525.0047   -8487.2225   -801.74477    19892.104    3.9164414 
    3100    345.49624   -8525.8165   -8487.2759   -1051.2635    19899.753    3.9373538 
    3110    346.12667   -8525.9587   -8487.3477   -1113.2477    19904.142    3.9617867 
    3120    346.96325   -8526.1443     -8487.44   -1335.7674    19905.096    3.9866721 
    3130    347.76707    -8526.345   -8487.5511   -1319.8416    19902.217    4.0095952 
    3140     349.0677   -8526.6166   -8487.6775   -900.92117     19895.74    4.0301592 
    3150    351.60656    -8527.047   -8487.8247   -416.74194    19886.913    4.0475666 
    3160    348.84307   -8526.9123   -8487.9983    75.820196    19877.244    4.0594633 
    3170    347.95985   -8527.0157   -8488.2003    273.72641    19868.096    4.0674676 
    3180    349.76166    -8527.451   -8488.4346    329.53545    19860.064    4.0763157 
    3190    344.94135   -8527.1726   -8488.6938    448.74477    19853.326    4.0890228 
    3200    346.95876   -8527.6711   -8488.9674    460.03171    19848.109    4.1070503 
    3210    353.22305   -8528.6652   -8489.2626    286.01033    19844.346    4.1308772 
    3220    350.56042   -8528.6896    -8489.584    184.55576    19841.561    4.1596973 
    3230    347.81549    -8528.724   -8489.9246    243.67617     19839.44    4.1914705 
    3240    345.61795   -8528.8277   -8490.2735    400.40735     19838.14    4.2246405 
    3250    348.36067   -8529.4917   -8490.6315    302.49304    19837.945    4.2576396 
    3260    347.34695   -8529.7457   -8490.9986    390.00985    19838.672    4.2881667 
    3270    343.24884   -8529.6523   -8491.3624    747.28702    19840.577    4.3139228 
    3280    345.84068   -8530.3006   -8491.7215    928.08413    19844.559    4.3353174 
    3290    353.18509   -8531.4899   -8492.0916    508.70326    19850.931    4.3527774 
    3300    359.12974    -8532.548   -8492.4865   -233.00165    19858.485    4.3659436 
    3310    359.61226   -8533.0301   -8492.9148   -844.49371     19865.19    4.3780826 
    3320    354.49674   -8532.9097    -8493.365   -1455.1253    19869.256    4.3926796 
    3330     350.0806   -8532.8754   -8493.8234   -2172.9374    19868.938    4.4092628 
    3340    342.20532   -8532.4545    -8494.281   -2571.7748    19862.428    4.4243516 
    3350    330.97583    -8531.639   -8494.7181    -2444.606    19848.834     4.435392 
    3360     332.8756   -8532.2597   -8495.1269   -1935.5526    19828.705    4.4434641 
    3370    336.64506    -8533.062   -8495.5088   -1225.6806    19803.665    4.4503508 
    3380    344.96685   -8534.3379   -8495.8563   -507.23628    19775.934    4.4544413 
    3390    359.24919   -8536.2775   -8496.2027   -143.80814    19747.568    4.4539081 
    3400    348.22692   -8535.4046   -8496.5593    615.91039    19719.883    4.4487066 
    3410     340.3227    -8534.868   -8496.9045    1303.3492     19694.84    4.4424563 
    3420    343.37993    -8535.547   -8497.2425    1776.7049    19674.299    4.4399969 
    3430    340.18326   -8535.5234   -8497.5754      2105.69    19659.463    4.4408127 
    3440    343.12498   -8536.1872   -8497.9111    2223.3781    19651.005    4.4410311 
    3450    338.25824   -8535.9844   -8498.2512    2285.9695    19649.102    4.4397891 
    3460    334.11648   -8535.8554   -8498.5842    1939.0393    19653.613    4.4369966 
    3470      338.609   -8536.6847   -8498.9123    1267.8878    19663.373    4.4330203 
    3480    337.33695   -8536.8579   -8499.2274     498.3239    19676.401    4.4294193 
    3490    338.63159   -8537.2958   -8499.5209   -366.39063     19690.41    4.4282484 
    3500    331.42792   -8536.7537   -8499.7824   -787.82949    19703.078    4.4294535 
    3510    329.51769   -8536.7695   -8500.0113   -1043.7064    19713.126    4.4304733 
    3520    335.02124   -8537.5945   -8500.2224   -991.45416    19719.956    4.4304221 
    3530    330.56519   -8537.3024   -8500.4274   -476.67664    19723.884     4.430032 
    3540    327.41772   -8537.1455   -8500.6216   -232.08856    19726.269    4.4288349 
    3550    326.41108   -8537.2074   -8500.7958   -277.87791    19727.854    4.4250287 
    3560     316.9413   -8536.2874   -8500.9321   -174.81891     19728.64     4.418881 
    3570    318.97081   -8536.6068   -8501.0251    98.814571    19728.961    4.4129084 
    3580    325.21453   -8537.3591   -8501.0809    354.13511    19729.552     4.409268 
    3590    328.62579   -8537.7699   -8501.1112    557.40512    19731.139      4.40862 
    3600     329.0771   -8537.8331    -8501.124    655.43183    19734.248    4.4099283 
    3610    325.87781   -8537.4741   -8501.1219    717.27343    19739.165    4.4116329 
    3620    324.89628   -8537.3416    -8501.099     411.9528    19745.909     4.412957 
    3630    331.85739    -8538.074   -8501.0548   -302.44899    19753.519     4.413923 
    3640    332.40253   -8538.0742   -8500.9942   -989.10682    19760.073     4.416081 
    3650    327.52832   -8537.4491   -8500.9128   -1597.8053    19763.637    4.4217476 
    3660     332.5165   -8537.8996   -8500.8068   -2260.9607    19762.498    4.4286973 
    3670    336.81966   -8538.2651   -8500.6923   -2676.6511    19754.971    4.4316659 
    3680    338.05462   -8538.2997   -8500.5892   -2526.1616    19740.139    4.4282349 
    3690    334.54321   -8537.8135   -8500.4947   -2044.8514    19718.594    4.4195829 
    3700    333.52568   -8537.6013    -8500.396   -1558.1504    19691.839    4.4082653 
    3710    337.63463   -8537.9485   -8500.2848   -1039.1298    19661.458    4.3965083 
    3720    342.21363   -8538.3393   -8500.1648   -540.65459    19629.034    4.3857037 
    3730    344.35639   -8538.4576   -8500.0441    140.31684     19596.12    4.3765648 
    3740    339.90488   -8537.8336   -8499.9167    1275.0848    19564.738      4.36986 
    3750    343.24396   -8538.0688   -8499.7794    2477.6677    19537.918    4.3678499 
    3760    345.95812   -8538.2398   -8499.6477     3354.049    19518.794    4.3729461 
    3770    342.13888   -8537.7108   -8499.5447    3573.6747    19509.479    4.3853822 
    3780    346.25588   -8538.1022   -8499.4768    3041.2963    19510.255    4.4045492 
    3790    353.51313   -8538.8772   -8499.4422    2038.5054    19519.388    4.4298892 
    3800    352.37321   -8538.7499   -8499.4421    891.32395    19533.941    4.4597692 
    3810    355.45202    -8539.124   -8499.4728   -325.94448    19550.569    4.4918614 
    3820    359.55745   -8539.6479   -8499.5387   -1230.1684    19565.907    4.5252085 
    3830    358.52815   -8539.6449   -8499.6505   -1563.3252    19577.506    4.5590602 
    3840    367.51941   -8540.8193    -8499.822   -1665.7058    19584.406    4.5914256 
    3850    364.09031   -8540.6737   -8500.0589   -1611.9518    19586.486    4.6215532 
    3860    363.84229   -8540.9471     -8500.36   -1831.2372    19583.881    4.6480494 
    3870    373.78331   -8542.4305   -8500.7344   -1920.4827    19576.224    4.6682716 
    3880    372.87092   -8542.7804   -8501.1861   -1566.4597    19563.491    4.6813745 
    3890    362.67317   -8542.1351   -8501.6784   -1103.6228    19546.751    4.6877747 
    3900    355.25673   -8541.7937   -8502.1643    -884.3187    19527.331    4.6892026 
    3910    359.87282   -8542.7782   -8502.6339   -639.39047     19505.99    4.6875509 
    3920    361.80616   -8543.4515   -8503.0915    62.547466    19483.605    4.6858028 
    3930    356.55359   -8543.2975   -8503.5234    829.77656    19462.042    4.6868375 
    3940    362.10538   -8544.3302   -8503.9368     1277.963    19443.328     4.690558 
    3950    366.22885   -8545.2145   -8504.3611    1604.5257    19428.648    4.6957077 
    3960    362.28312   -8545.2112    -8504.798    1910.4388    19418.809    4.7026741 
    3970    359.87965   -8545.3839   -8505.2388    1897.5001    19414.446    4.7127986 
    3980    363.79603   -8546.2695   -8505.6875     1669.468    19415.401    4.7261613 
    3990    363.56659   -8546.7089   -8506.1525    1241.5764    19420.908    4.7424965 
    4000     349.6983   -8545.6203   -8506.6109    675.15427    19429.692     4.760879 
    4010    339.81216   -8544.9306    -8507.024   -118.04968    19440.077    4.7788905 
    4020    347.48821   -8546.1528     -8507.39   -1063.3717    19449.849    4.7948589 
    4030    365.29663   -8548.5105   -8507.7611   -1919.7058    19456.434     4.809139 
    4040    356.95925   -8547.9831   -8508.1638   -2053.2226    19457.716    4.8229108 
    4050    341.35547   -8546.6395   -8508.5608   -1820.3136    19453.348    4.8354531 
    4060    343.88892   -8547.3051   -8508.9437   -1434.5259    19444.089    4.8466098 
    4070    336.28584   -8546.8242    -8509.311   -1028.3146    19431.104    4.8606005 
    4080    338.25489   -8547.3928     -8509.66   -919.62228    19415.498     4.881724 
    4090    344.88216   -8548.4718   -8509.9996   -752.05623    19397.767    4.9115212 
    4100    349.20421   -8549.3004   -8510.3461   -742.50235    19378.376    4.9481937 
    4110    351.06842   -8549.8852   -8510.7229   -701.74358    19357.451    4.9899446 
    4120    340.38882   -8549.0816   -8511.1108    73.962699    19335.389    5.0367555 
    4130    346.33528   -8550.1189   -8511.4847    632.09383    19314.083    5.0890307 
    4140    357.59951   -8551.7297    -8511.839     1135.842    19295.201    5.1451917 
    4150    358.34932   -8552.1474    -8512.173    1259.2469    19279.974    5.2020634 
    4160    354.29387   -8552.0261   -8512.5041    959.78984    19268.592    5.2558175 
    4170    343.78494   -8551.1757    -8512.826     829.2949    19260.259    5.3040528 
    4180    342.33275    -8551.316   -8513.1283    677.41976    19254.484    5.3471424 
    4190    350.46079   -8552.5245   -8513.4301    146.05412    19250.666    5.3859725 
    4200    350.52009    -8552.845   -8513.7439   -399.78178    19247.395    5.4196161 
    4210    345.79693     -8552.64   -8514.0659    -908.5185    19243.167    5.4465234 
    4220    348.18932   -8553.2334   -8514.3923   -1615.4626    19236.587    5.4648434 
    4230    357.42682   -8554.6154   -8514.7439   -2291.0722    19225.877    5.4751226 
    4240    350.13169   -8554.1796   -8515.1219   -2067.6653    19209.602    5.4816235 
    4250    339.27466     -8553.33   -8515.4834    -1375.378    19188.503    5.4868836 
    4260    353.19544   -8555.2281   -8515.8286   -1031.2812    19164.407    5.4901518 
    4270    367.48937   -8557.1891   -8516.1951   -751.98502    19138.442    5.4912628 
    4280    364.15016   -8557.2202   -8516.5987   -332.42818    19111.491    5.4908802 
    4290    357.64127    -8556.908   -8517.0126    187.30386    19084.724    5.4897532 
    4300     362.6835    -8557.888   -8517.4301    249.41155    19059.337    5.4897383 
    4310    361.70198   -8558.2103   -8517.8619    633.14205    19035.654     5.490691 
    4320    351.59623   -8557.4934   -8518.2723    1429.7342    19014.651    5.4887009 
    4330    369.81493   -8559.9341   -8518.6807    1855.2041    18998.093    5.4822748 
    4340    369.80247   -8560.3749   -8519.1229    2297.6059    18987.023    5.4754815 
    4350    345.46153   -8558.0952   -8519.5584       2836.1    18982.463    5.4738427 
    4360    350.30868    -8559.044   -8519.9665    2414.6806    18985.327    5.4792294 
    4370    370.17019   -8561.6723   -8520.3792    1046.6086    18994.221    5.4889588 
    4380    370.60894   -8562.1614   -8520.8194   -18.972511     19005.66      5.50022 
    4390    363.43266   -8561.8126   -8521.2711   -644.69418    19016.782    5.5141018 
    4400    368.63184   -8562.8585   -8521.7371   -1257.3957    19025.789    5.5330895 
    4410    359.12437   -8562.2683   -8522.2074   -1341.0169    19031.307    5.5572507 
    4420    356.08812   -8562.3837   -8522.6615   -1540.5472    19033.044    5.5835378 
    4430    360.83021   -8563.3602   -8523.1091   -1887.9212    19030.601    5.6070237 
    4440     357.5856   -8563.4447   -8523.5555   -2001.6858    19023.295    5.6230174 
    4450     356.5641   -8563.7721   -8523.9968   -1940.3074    19010.947    5.6303263 
    4460    357.20348   -8564.2829   -8524.4363   -1433.5532    18993.983    5.6324556 
    4470    356.31054   -8564.6144   -8524.8674   -720.15528    18973.807     5.634941 
    4480    363.31384   -8565.8297   -8525.3015   -149.32303    18952.336    5.6416071 
    4490    356.11611   -8565.4618   -8525.7365    179.11562    18931.124    5.6524908 
    4500    361.63427   -8566.5113   -8526.1704   -68.146125    18910.893    5.6658236 
    4510     376.1768   -8568.5997   -8526.6366   -630.32729    18891.041     5.682204 
    4520    380.94131   -8569.6546     -8527.16   -928.31107    18870.246    5.7020097 
    4530    383.60268   -8570.5267   -8527.7353   -932.77429     18847.73    5.7234725 
    4540    385.11376   -8571.3009   -8528.3409   -606.31362     18823.61    5.7443479 
    4550    389.24387   -8572.3843   -8528.9636   -418.07489    18798.629    5.7624646 
    4560    390.72323   -8573.1836   -8529.5979    45.926907    18773.452    5.7771906 
    4570    398.44266    -8574.694   -8530.2471    771.97434    18749.278    5.7906132 
    4580    402.64169    -8575.845   -8530.9297    1306.7986    18727.823    5.8067276 
    4590    388.51954   -8574.9656   -8531.6257    1532.9099     18710.38     5.827457 
    4600     375.5169    -8574.181   -8532.2915    1164.0487    18697.299    5.8524039 
    4610    373.36879   -8574.5807   -8532.9308    88.882322     18687.42     5.880108 
    4620    369.51082   -8574.7713   -8533.5518   -766.67446     18678.12    5.9092832 
    4630    368.12052   -8575.2183   -8534.1539   -987.25703    18667.286     5.939721 
    4640    372.99997   -8576.3668   -8534.7581   -815.89618    18654.365    5.9691066 
    4650    378.25533   -8577.5786   -8535.3836   -571.03888    18639.806      5.99422 
    4660    380.21522   -8578.4518   -8536.0382   -582.60134    18624.177    6.0134369 
    4670    363.92728   -8577.2782   -8536.6816   -150.36382    18607.718    6.0284481 
    4680    355.18982    -8576.879   -8537.2571     416.2332    18591.469    6.0431225 
    4690    363.90088   -8578.3734   -8537.7797    947.30747    18576.819    6.0590365 
    4700      371.813   -8579.7698   -8538.2935    1609.2909     18565.11    6.0761406 
    4710    369.12652   -8580.0063   -8538.8296     2134.912    18557.832    6.0965531 
    4720     367.2752   -8580.3551    -8539.385    1980.0135    18556.035    6.1231591 
    4730    375.71821   -8581.8869    -8539.975    1019.2717    18559.105    6.1564439 
    4740    375.69059   -8582.5022   -8540.5933    93.179651     18564.65    6.1943078 
    4750    381.42695   -8583.7804   -8541.2316   -520.71493    18570.291    6.2344204 
    4760    386.58622    -8585.014   -8541.8897   -724.77798    18574.539    6.2741483 
    4770    381.47716   -8585.1219   -8542.5675   -877.37952    18576.794    6.3120791 
    4780    363.13502   -8583.7315   -8543.2232   -630.01579    18576.889    6.3497304 
    4790    360.58641   -8584.0653   -8543.8413   -624.08064    18575.344    6.3895203 
    4800    361.86963   -8584.8091    -8544.442   -655.97129    18572.266    6.4298232 
    4810    357.72025   -8584.9195   -8545.0153   -619.08685    18567.669    6.4670286 
    4820     366.2158   -8586.4243   -8545.5724   -858.32369    18561.599    6.4990393 
    4830     367.3021   -8587.0977   -8546.1246    -1069.171    18553.586    6.5247794 
    4840    374.76231   -8588.4985   -8546.6932   -1129.9628    18543.184    6.5437435 
    4850     371.0457    -8588.686   -8547.2953    -618.4512     18530.45    6.5580036 
    4860    358.44166   -8587.8703   -8547.8856    130.20288    18516.677    6.5691614 
    4870    365.69204   -8589.2567   -8548.4632    355.75434    18503.605     6.576103 
    4880    364.15566   -8589.6653   -8549.0432    271.79659    18491.832    6.5794802 
    4890    362.89319   -8590.0925   -8549.6112   -141.23432    18481.072    6.5823456 
    4900    372.37861   -8591.7292   -8550.1898   -553.36323    18470.332    6.5866607 
    4910     372.3497   -8592.3243   -8550.7881   -722.52358    18458.637    6.5937282 
    4920    375.71548   -8593.3222   -8551.4105   -1074.9747     18445.49    6.6051785 
    4930    374.08494   -8593.7873   -8552.0576   -1175.3212    18430.179    6.6229387 
    4940    370.13846    -8593.997   -8552.7075   -770.66656    18412.609    6.6478609 
    4950    371.58031   -8594.8046   -8553.3542   -446.29726    18393.693    6.6779082 
    4960    369.46453   -8595.2071   -8553.9928     20.22347    18374.349    6.7095353 
    4970    365.48582   -8595.3872   -8554.6167    830.28859    18355.819    6.7406066 
    4980    359.28791   -8595.3071   -8555.2279    1545.0931    18339.944    6.7732365 
    4990    359.44637   -8595.9214   -8555.8246    1814.0735    18328.317    6.8104328 
    5000    368.35474   -8597.5021   -8556.4115    1636.6005    18321.477    6.8515388 
Loop time of 2032.06 on 16 procs for 3000 steps with 864 atoms

Performance: 0.128 ns/day, 188.153 hours/ns, 1.476 timesteps/s
95.8% CPU use with 16 MPI tasks x 1 OpenMP threads

MPI task timing breakdown:
Section |  min time  |  avg time  |  max time  |%varavg| %total
---------------------------------------------------------------
Pair    | 764.62     | 1374.8     | 1997.5     | 999.3 | 67.66
Bond    | 0.00048351 | 0.0010745  | 0.0031297  |   2.3 |  0.00
Neigh   | 0.028746   | 0.04833    | 0.083859   |   8.3 |  0.00
Comm    | 7.7053     | 423.17     | 1064.2     |1426.5 | 20.82
Output  | 0.21081    | 0.22302    | 0.40425    |   9.9 |  0.01
Modify  | 2.0906     | 233.8      | 671.1      |1405.0 | 11.51
Other   |            | 0.01694    |            |       |  0.00

Nlocal:        54.0000 ave          81 max          33 min
Histogram: 1 5 1 3 0 0 1 2 1 2
Nghost:        532.062 ave         687 max         368 min
Histogram: 1 1 1 1 6 0 2 0 2 2
Neighs:         0.00000 ave           0 max           0 min
Histogram: 16 0 0 0 0 0 0 0 0 0
FullNghs:      2706.00 ave        5320 max        1014 min
Histogram: 3 4 3 0 0 0 3 1 0 2

Total # of neighbors = 43296
Ave neighs/atom = 50.111111
Ave special neighs/atom = 0.0000000
Neighbor list builds = 300
Dangerous builds = 300
Setting up Verlet run ...
  Unit style    : metal
  Current step  : 5000
  Time step     : 0.001
Per MPI rank memory allocation (min/avg/max) = 8.899 | 8.909 | 8.922 Mbytes
Step Temp PotEng TotEng Press Volume c_msd[4] 
    5000    368.35474   -8597.5021   -8556.4115    1636.6005    18321.477    6.8515388 
    5010    376.28675   -8598.4304    -8556.455    756.26882    18323.176    6.8759532 
    5020    378.46449   -8598.8137   -8556.5954   -240.87617    18326.751    6.9011989 
    5030    372.11895   -8598.3471   -8556.8367   -1015.6556    18329.773    6.9274985 
    5040    361.67025   -8597.4979    -8557.153   -1638.8883    18330.279    6.9566639 
    5050    367.90067   -8598.5757   -8557.5359   -2112.6624    18326.688    6.9880872 
    5060    361.28288   -8598.2695   -8557.9678    -1680.947    18318.012     7.018494 
    5070    350.62613   -8597.4969   -8558.3841   -881.42165    18305.206    7.0454708 
    5080    361.84887   -8599.1255   -8558.7607   -520.27133    18290.086    7.0710428 
    5090    370.64747   -8600.4655   -8559.1192   -188.13054    18273.692    7.0994353 
    5100    365.82637   -8600.2672   -8559.4587   -48.270679    18256.822    7.1318657 
    5110    367.12876   -8600.7299   -8559.7761   -488.60694    18239.722    7.1661472 
    5120    372.20818   -8601.6077   -8560.0874   -623.92895    18221.518    7.2002508 
    5130    366.19099   -8601.2453   -8560.3961   -194.82833      18201.9    7.2316451 
    5140    368.17744   -8601.7695   -8560.6988    504.35487    18181.881    7.2551232 
    5150    382.67094   -8603.7151   -8561.0276    1185.7207    18163.121    7.2690112 
    5160    382.56374   -8604.0884   -8561.4128    1937.9329    18147.306    7.2767865 
    5170    379.07184   -8604.1391    -8561.853    2458.1078    18136.215    7.2827135 
    5180    380.20551   -8604.7525     -8562.34    2476.9879    18131.069    7.2921167 
    5190    377.17055    -8604.928    -8562.854    2040.3006    18131.892    7.3070272 
    5200    381.17354   -8605.8991   -8563.3786    1480.1408    18137.705    7.3250172 
    5210     387.5091   -8607.1463   -8563.9191    965.77636    18147.161    7.3455621 
    5220    387.38345    -8607.685   -8564.4718    622.81735    18159.036    7.3710464 
    5230    393.27549   -8608.9192   -8565.0488    185.76827    18172.415    7.4061572 
    5240      394.231   -8609.6263   -8565.6492   -559.56183    18186.174    7.4543717 
    5250    397.72722   -8610.6459   -8566.2788   -1323.6785    18198.522    7.5125424 
    5260    384.53316   -8609.8069   -8566.9116   -1229.8107    18207.805    7.5785796 
    5270    381.73369   -8610.1069   -8567.5239   -710.94252    18214.127    7.6504452 
    5280    397.71848   -8612.5076   -8568.1415   -394.74496    18218.646    7.7231991 
    5290      403.571   -8613.8174   -8568.7985   -150.12874      18222.2    7.7913706 
    5300    401.80519   -8614.3187   -8569.4968   -71.990979    18225.349    7.8523325 
    5310    401.27307    -8614.987   -8570.2244   -347.58224    18228.259    7.9107726 
    5320    395.29475   -8615.0606   -8570.9649    -954.9454    18230.232    7.9717406 
    5330    390.91197   -8615.3009   -8571.6941   -2086.8461    18229.708    8.0341886 
    5340    396.07084   -8616.6162   -8572.4339   -2866.8094    18224.151    8.0937215 
    5350    391.04053   -8616.8183   -8573.1971    -2731.286    18211.732    8.1473719 
    5360    382.84702   -8616.6603   -8573.9531   -1677.2064    18192.876    8.1956839 
    5370    378.64343   -8616.9305   -8574.6923   -795.09316     18169.95    8.2390956 
    5380    375.84764   -8617.3195   -8575.3931   -285.13453    18145.147    8.2781967 
    5390     390.7197   -8619.6661   -8576.0807   -142.71684    18119.744    8.3148367 
    5400    396.26978   -8620.9906   -8576.7861    298.44644    18094.309    8.3486259 
    5410    388.08695   -8620.7799   -8577.4882    1133.7295    18069.995    8.3776239 
    5420    385.27294   -8621.1511   -8578.1733    1740.3991    18048.686    8.4048906 
    5430    388.63388    -8622.213   -8578.8603    1871.4948    18031.715    8.4350325 
    5440    394.35961   -8623.5625   -8579.5711    1965.2897    18019.457    8.4678536 
    5450     396.8026   -8624.5824   -8580.3185     1838.976    18012.038    8.5007858 
    5460    388.03178   -8624.3711   -8581.0856     1499.408    18009.083    8.5325688 
    5470    378.25093   -8624.0274    -8581.833     1058.583    18009.748    8.5613541 
    5480    379.15188   -8624.8513   -8582.5563    248.22532    18012.843     8.584075 
    5490    384.88682   -8626.2107    -8583.276   -514.25128    18016.496    8.5982449 
    5500    385.80519   -8627.0475   -8584.0103   -890.16129     18018.95    8.6040575 
    5510    376.02945   -8626.6875   -8584.7409   -586.39846    18019.402    8.6047738 
    5520    366.59355   -8626.3265   -8585.4325   -185.88208    18018.473      8.60722 
    5530    373.22418    -8627.731   -8586.0972   -288.41792    18017.009    8.6182541 
    5540    383.44401   -8629.5573   -8586.7836   -601.95349    18014.836    8.6400105 
    5550    382.34014   -8630.1516    -8587.501   -443.58114    18011.333    8.6708749 
    5560    379.10779   -8630.5177   -8588.2276    334.72771    18006.964    8.7085957 
    5570    378.87041   -8631.2171   -8588.9535    913.89738    18003.418    8.7504978 
    5580    380.96309   -8632.1801    -8589.683    742.74782    18001.927    8.7944023 
    5590    382.20943   -8633.0616   -8590.4256    295.72559    18002.185    8.8391067 
    5600    375.52841   -8633.0549   -8591.1641    30.211506    18003.192    8.8827977 
    5610    375.21125    -8633.735   -8591.8796   -290.74671    18004.264    8.9243881 
    5620    383.51983   -8635.3842    -8592.602   -597.83063    18004.634    8.9647889 
    5630    373.40328   -8634.9814   -8593.3277   -192.13955    18003.765     9.006924 
    5640     360.4303   -8634.2134   -8594.0068    127.71492    18002.444    9.0521509 
    5650    364.73477   -8635.3417   -8594.6549   -23.273616    18001.321    9.0974017 
    5660    362.05493   -8635.6788    -8595.291    408.36753    18000.318    9.1381078 
    5670    368.01601   -8636.9743   -8595.9216    524.38163    18000.241    9.1724832 
    5680    375.42507   -8638.4588   -8596.5795   -23.624327    18001.291    9.2037884 
    5690    369.13126   -8638.4222   -8597.2451   -650.58425    18002.277    9.2358387 
    5700    379.16457   -8640.2183   -8597.9219    -1573.981    18001.627    9.2697144 
    5710      375.017   -8640.4582   -8598.6245   -1980.3143    17997.321    9.3040195 
    5720    360.27609    -8639.502   -8599.3127    -1360.947    17988.522     9.336798 
    5730     356.1641   -8639.6944   -8599.9637   -561.43032    17976.572    9.3679557 
    5740    358.29928    -8640.551   -8600.5822    43.158516    17963.364     9.398188 
    5750    371.97304   -8642.6967   -8601.2026    526.54842    17950.389    9.4285909 
    5760    376.59826   -8643.8674   -8601.8573    1024.2886    17938.839    9.4610301 
    5770    370.65049     -8643.88   -8602.5334    1514.3126    17929.835    9.4972253 
    5780    368.11267   -8644.2813   -8603.2178    1962.1547    17924.526    9.5388154 
    5790    358.11913    -8643.839   -8603.8902    2133.5562    17923.901    9.5845446 
    5800    355.87989   -8644.2213   -8604.5223     2046.591    17928.323    9.6303679 
    5810    361.97752   -8645.5092   -8605.1301     1817.857    17937.564    9.6757808 
    5820     360.5682   -8645.9531   -8605.7312     1448.347    17951.004    9.7220666 
    5830    351.26685   -8645.4958   -8606.3114    920.29114    17967.749    9.7677528 
    5840    363.66714   -8647.4393   -8606.8717   -350.60442    17986.332    9.8116775 
    5850    379.84033   -8649.8285   -8607.4568   -1521.4034    18003.904    9.8565307 
    5860    373.10318   -8649.7098   -8608.0896    -2261.067    18017.686     9.904192 
    5870    356.19268   -8648.4605   -8608.7267   -2526.0652    18025.976    9.9531319 
    5880    361.44116   -8649.6766   -8609.3573   -2853.8263    18028.068    10.003074 
    5890    363.88107   -8650.5823   -8609.9908   -2646.6187    18023.423    10.054479 
    5900    366.32913   -8651.4917   -8610.6272   -2307.3509    18012.497    10.103517 
    5910    369.65939   -8652.5143   -8611.2782   -1683.5678    17996.278    10.143199 
    5920    363.41358   -8652.4657   -8611.9263   -599.18632    17976.393    10.169404 
    5930    362.45312   -8652.9892    -8612.557    40.553859    17955.258    10.181255 
    5940    350.11293     -8652.22   -8613.1644    819.04382    17934.607    10.181361 
    5950    335.98782   -8651.1834   -8613.7035    1939.1109    17916.328    10.173479 
    5960     343.5872   -8652.5226   -8614.1949    2511.1896    17902.836    10.161228 
    5970    352.25181   -8653.9725   -8614.6783    2315.7486    17895.339    10.147345 
    5980    353.18277   -8654.5689   -8615.1709    1951.8081    17893.424    10.133956 
    5990    355.89932   -8655.3692   -8615.6681    1122.9102    17896.018    10.123847 
    6000    356.46307    -8655.936    -8616.172    305.44701    17901.257    10.118272 
    6010    350.84359   -8655.8165   -8616.6793   -159.77368    17907.204     10.11889 
    6020    346.69838   -8655.8532   -8617.1784   -577.76061    17912.673      10.1276 
    6030    349.36786   -8656.6356   -8617.6631   -1326.2785    17916.588    10.145901 
    6040    347.25236   -8656.8732   -8618.1367   -1973.7646    17917.306    10.171213 
    6050    343.19868   -8656.8898   -8618.6054   -2308.0169     17913.39    10.196918 
    6060    334.62959   -8656.3889   -8619.0605   -2100.4857      17904.2    10.218066 
    6070    339.13247    -8657.327   -8619.4963   -1799.4491    17890.205    10.236848 
    6080     353.9165    -8659.414   -8619.9341   -1255.7133     17872.27    10.260858 
    6090    354.99179   -8659.9916   -8620.3917   -191.18684    17851.821    10.294428 
    6100    333.42358   -8658.0183   -8620.8244    1312.0617    17831.434    10.335907 
    6110    332.70386   -8658.3196    -8621.206    2267.7021    17814.395    10.381184 
    6120    348.88998   -8660.4954   -8621.5762    2943.8598    17802.962    10.430498 
    6130    352.82978   -8661.3279   -8621.9692    3059.4261    17798.521    10.486939 
    6140    349.01124   -8661.3184   -8622.3857    2760.4045    17801.235    10.551318 
    6150    343.02255   -8661.0674   -8622.8028    2167.7011    17810.262    10.622439 
    6160    358.12015   -8663.1708    -8623.222    1236.5087    17824.138    10.698966 
    6170    369.25877   -8664.8643   -8623.6729    322.29348    17840.662    10.776237 
    6180    364.10221   -8664.7853   -8624.1691    100.08658    17857.795    10.848382 
    6190     356.9037   -8664.4997   -8624.6866   -27.109695    17874.862    10.911704 
    6200    364.50832   -8665.8827   -8625.2213   -747.71634    17891.386    10.965625 
    6210    357.16983   -8665.6118    -8625.769   -1253.8395    17905.869    11.010927 
    6220    343.74654   -8664.6267   -8626.2813     -1759.06    17917.095    11.048879 
    6230    354.55341   -8666.3225   -8626.7715   -1976.9513    17923.985    11.080874 
    6240    350.37609   -8666.3453   -8627.2603   -913.35775    17926.347    11.112027 
    6250    351.50959   -8666.9491   -8627.7377   -24.631271    17926.445    11.147253 
    6260    368.26727   -8669.3216   -8628.2408    81.750947    17926.298    11.186922 
    6270     362.9982   -8669.2737   -8628.7807    534.10685    17926.466    11.228118 
    6280    356.33963   -8669.0831   -8629.3329     933.7078    17927.885    11.266966 
    6290    351.03389   -8669.0414    -8629.883    1196.7103    17931.448     11.30328 
    6300    351.75056   -8669.6604   -8630.4221    1423.0079    17937.792    11.340931 
    6310    350.77846    -8670.085   -8630.9552    1185.2779    17947.278    11.384338 
    6320    351.29241   -8670.6581   -8631.4709    707.74985    17959.374    11.432564 
    6330    359.00873   -8672.0246   -8631.9766   0.89663838    17972.903    11.478066 
    6340    351.69632   -8671.7041   -8632.4719   -110.53238    17986.332    11.517192 
    6350    355.97877   -8672.6647   -8632.9548   -257.69238    17999.209    11.554156 
    6360    363.28912   -8673.9831   -8633.4577    -406.5026    18011.271    11.592788 
    6370    351.38532   -8673.1575   -8633.9599   -662.61398    18022.134    11.633698 
    6380    358.16487   -8674.4089   -8634.4551    -1395.529    18031.072    11.673289 
    6390    361.97925   -8675.3424   -8634.9631   -1741.8393    18036.613     11.70481 
    6400    365.67908   -8676.2945   -8635.5025   -2016.3168     18037.88    11.721607 
    6410    355.82466   -8675.7604   -8636.0676   -1779.2975    18034.422    11.720267 
    6420    350.91212   -8675.7615   -8636.6167   -1453.0608    18026.785    11.702342 
    6430    370.57015   -8678.5182   -8637.1806   -1264.2882    18015.735    11.677634 
    6440    363.57045   -8678.3224   -8637.7656   -50.756119    18002.092    11.657441 
    6450     358.8482   -8678.3643   -8638.3342    1529.8002    17988.657    11.648942 
    6460    366.82545   -8679.8157   -8638.8957    2380.8093    17978.973    11.655207 
    6470    370.44973   -8680.8048   -8639.4806    2487.3457     17975.01    11.676712 
    6480    355.18577   -8679.6849   -8640.0634    2125.0466    17976.976    11.714326 
    6490    354.01078   -8680.1091   -8640.6187    1138.1835    17983.844    11.765034 
    6500    355.54255   -8680.8194   -8641.1581   -79.708744    17993.278     11.82153 
    6510     347.0775   -8680.3882   -8641.6711   -1106.7785    18002.393    11.876967 
    6520    342.31793   -8680.3404   -8642.1544   -1492.8339    18008.841    11.927629 
    6530    336.92425   -8680.1923   -8642.6079    -1091.009    18011.778    11.971297 
    6540    333.37427   -8680.2119   -8643.0235   -425.73257    18012.116    12.007026 
    6550    346.58012   -8682.0816   -8643.4201   -293.14835    18011.309    12.039154 
    6560    354.41012   -8683.3617   -8643.8267   -378.98948    18009.773     12.07219 
    6570    351.36294   -8683.4501    -8644.255   -318.67155    18007.385    12.107279 
    6580    337.28449   -8682.3067   -8644.6821    49.132184    18004.341    12.142753 
    6590    330.19684   -8681.9096   -8645.0757    334.31179    18001.439    12.176281 
    6600    329.99679   -8682.2321   -8645.4205    488.16474    17999.389    12.208631 
    6610    329.13459   -8682.4301   -8645.7147    700.84594    17998.587    12.241195 
    6620    336.90123   -8683.5633   -8645.9815    563.42607    17999.388    12.271487 
    6630    333.72563   -8683.4692   -8646.2416    308.89034    18001.502    12.294377 
    6640    326.06405   -8682.8617   -8646.4888    20.304926    18004.331    12.306267 
    6650    332.42124   -8683.8032   -8646.7211   -70.918904    18007.191    12.308665 
    6660    339.34927   -8684.7994   -8646.9445    692.52333    18010.024    12.306598 
    6670    344.94219   -8685.6519   -8647.1731     1676.187    18014.535    12.306745 
    6680    340.66709   -8685.4188   -8647.4169    2556.7928    18023.018    12.318554 
    6690    338.61983   -8685.4519   -8647.6783    2637.2383    18037.397    12.348924 
    6700    341.08827   -8685.9974   -8647.9484    1563.5845    18057.755    12.395477 
    6710    332.53805   -8685.2932   -8648.1981   -2.7386492    18081.591    12.447879 
    6720    333.45172    -8685.609    -8648.412   -1473.5411    18105.225    12.494046 
    6730    341.96276   -8686.7538   -8648.6073   -2699.4736    18125.111    12.526266 
    6740    337.35677   -8686.4418   -8648.8092   -3073.6048     18138.44    12.541993 
    6750    331.29967   -8685.9716   -8649.0147   -3000.9825    18144.252    12.543869 
    6760    340.37131   -8687.1959   -8649.2269   -2766.6144    18142.714    12.536291 
    6770     341.1244   -8687.4998   -8649.4469   -1950.8482    18134.585    12.524031 
    6780      335.987   -8687.1417   -8649.6618   -943.12595    18121.849     12.51235 
    6790    337.44832   -8687.5115   -8649.8686   -279.20577    18106.852    12.506635 
    6800    338.37255    -8687.818    -8650.072    238.53277    18091.295    12.508978 
    6810    333.64385   -8687.4918   -8650.2733     716.2221     18076.46    12.517645 
    6820    323.41708   -8686.5348   -8650.4571    1047.8721    18063.481    12.533081 
    6830    327.52446   -8687.1501   -8650.6142    857.33966     18053.06    12.556712 
    6840     351.0427   -8689.9232   -8650.7638    24.937509    18044.653    12.588497 
    6850    364.43729      -8691.6   -8650.9465   -380.52615     18036.47    12.625839 
    6860    357.08231   -8691.0162   -8651.1832    64.246329    18027.613    12.665416 
    6870    355.47035   -8691.1174   -8651.4641    489.82766    18018.935    12.701468 
    6880    363.95938   -8692.3898   -8651.7896    469.49099    18011.388    12.728351 
    6890    360.19579    -8692.339   -8652.1586    190.55831    18004.999    12.744446 
    6900    361.10153   -8692.8538   -8652.5724   -471.68448    17999.026    12.747944 
    6910    358.25468    -8692.986   -8653.0222   -872.89015    17992.017    12.739275 
    6920    341.45293   -8691.5566    -8653.467   -700.23054    17983.073    12.724896 
    6930    332.57009   -8690.9664   -8653.8677   -106.38932     17972.61     12.70992 
    6940    337.64924   -8691.8905   -8654.2252    218.19698     17961.92    12.695631 
    6950    348.01601   -8693.3954   -8654.5737    268.90555    17951.765    12.677301 
    6960    345.89008   -8693.5093   -8654.9247    705.37808     17942.43    12.649447 
    6970    347.75549   -8694.0767    -8655.284    942.09212    17934.796    12.611182 
    6980    344.88306   -8694.1189   -8655.6466     840.2307    17929.401     12.56296 
    6990    355.93717   -8695.7265   -8656.0212    480.64341    17926.004    12.509193 
    7000    361.79121   -8696.7867   -8656.4284    428.00787    17923.868     12.45982 
    7010    349.67371   -8695.8532   -8656.8466    955.14574    17922.932    12.420011 
    7020    344.85494   -8695.7098   -8657.2407    907.52068    17924.164    12.386091 
    7030     346.1313   -8696.2218   -8657.6103     214.0976    17927.405     12.35476 
    7040    352.44308    -8697.288   -8657.9725   -799.62303    17931.067    12.329834 
    7050     360.5699    -8698.583   -8658.3609   -1759.7054    17932.802    12.313774 
    7060    360.77826   -8699.0346   -8658.7893   -2123.9138    17930.426    12.300731 
    7070    361.10938   -8699.5321   -8659.2498   -1952.5356    17923.106    12.280546 
    7080     359.2773   -8699.8165   -8659.7386   -1266.0004    17911.284    12.249402 
    7090    346.96383   -8698.9088   -8660.2045   -178.00526    17896.616    12.210395 
    7100    350.29333   -8699.7108    -8660.635    802.06842    17881.608     12.17186 
    7110    347.96133   -8699.8477   -8661.0321    1553.3837    17868.581    12.144892 
    7120    355.01723   -8701.0221   -8661.4194    1634.0227    17859.178    12.133303 
    7130    355.85365   -8701.5193   -8661.8233     1480.566    17853.676     12.13128 
    7140    347.15107   -8700.9575   -8662.2323    1093.3778    17851.708    12.132196 
    7150    348.81864   -8701.5513     -8662.64   -14.682735    17852.187    12.135423 
    7160    343.81722   -8701.3929   -8663.0395   -608.12399    17852.772    12.142033 
    7170    338.15701   -8701.1362   -8663.4143     -858.251    17851.965    12.152786 
    7180    349.82544    -8702.797   -8663.7734   -957.14873    17849.137    12.164478 
    7190    355.84332     -8703.83   -8664.1351    -549.7148    17844.189    12.173099 
    7200     358.0311   -8704.4481   -8664.5092   -295.11117    17837.964    12.175008 
    7210    354.22096   -8704.4241   -8664.9102   -323.73115    17831.004    12.166771 
    7220    336.64935   -8702.8514   -8665.2977   -350.14053    17823.338    12.149278 
    7230    346.38466   -8704.3062   -8665.6665   -1209.2884    17814.682    12.128306 
    7240    360.73596   -8706.3034   -8666.0627   -1554.5016    17803.345    12.107908 
    7250    349.05956   -8705.4179   -8666.4798   -850.27411     17788.63    12.087409 
    7260    344.88469   -8705.3502   -8666.8778   -55.809941    17771.992    12.065671 
    7270    345.91708   -8705.8359   -8667.2483    658.92499    17755.297    12.045914 
    7280     340.6145    -8705.582   -8667.5859    1510.7493    17740.289    12.033387 
    7290    348.11955   -8706.7413   -8667.9081     1884.449    17728.776    12.029322 
    7300    350.69572   -8707.3618   -8668.2412    1807.3855    17721.654     12.02698 
    7310    342.68758   -8706.8087   -8668.5814    1418.1495    17718.754    12.020574 
    7320    334.32928   -8706.2008   -8668.9059    821.85199    17719.159    12.015459 
    7330    342.89679   -8707.4618   -8669.2111   -230.18701    17721.379    12.020611 
    7340    355.10672   -8709.1419   -8669.5292   -878.01991    17723.138    12.036033 
    7350    350.58259   -8708.9801    -8669.872   -616.97276    17723.006    12.055564 
    7360    335.44997     -8707.63     -8670.21    88.236124    17721.525    12.079684 
    7370     337.2636   -8708.1409   -8670.5186    391.50845    17720.181    12.113072 
    7380     346.2767   -8709.4457    -8670.818    172.87609    17719.646     12.15375 
    7390    336.74096   -8708.6718   -8671.1079   -32.826172    17719.541     12.19437 
    7400    344.41402   -8709.8091   -8671.3892   -443.79403    17719.264    12.228342 
    7410    342.38883    -8709.871   -8671.6771   -37.982734    17718.122    12.255371 
    7420    318.54791   -8707.4698   -8671.9353    912.61757    17717.017    12.278939 
    7430    332.19304   -8709.2189   -8672.1622    790.59188    17717.796    12.304887 
    7440    335.29058   -8709.7724   -8672.3702      209.453    17720.371    12.338131 
    7450    332.02622   -8709.6005   -8672.5625   -493.40417    17723.439    12.377258 
    7460    355.00874   -8712.3593   -8672.7576   -1470.2186    17725.273    12.415193 
    7470    351.85789   -8712.2335   -8672.9832   -1278.8131    17723.952    12.447094 
    7480    336.62718   -8710.7707   -8673.2194   -465.89627    17719.752    12.472793 
    7490    343.06693   -8711.7198   -8673.4502    675.05052    17714.525    12.492069 
    7500    354.55224   -8713.2439   -8673.6931    2300.5211    17711.001    12.505494 
    7510    357.13393   -8713.8219   -8673.9831     3406.319    17712.741    12.517604 
    7520    349.64348   -8713.3253   -8674.3221    3623.5426    17722.271    12.534006 
    7530    347.63359   -8713.4673   -8674.6882    2609.7832    17740.044    12.558859 
    7540    339.54594   -8712.9173   -8675.0405     907.4772    17763.867    12.595503 
    7550    334.47841   -8712.6516   -8675.3401   -1106.4725    17789.774    12.641096 
    7560     345.6764   -8714.1588   -8675.5981   -2956.3855    17813.127    12.689953 
    7570    345.80055   -8714.4278   -8675.8532   -3633.9972    17829.757     12.74022 
    7580    342.38607   -8714.3197   -8676.1261   -3274.8755    17837.979    12.790321 
    7590     347.0223   -8715.1229    -8676.412   -2471.1726    17838.528    12.834452 
    7600    349.42105   -8715.6832   -8676.7047   -1472.4669    17833.232    12.865197 
    7610    348.32238   -8715.8535   -8676.9976    9.6853948    17824.564    12.879836 
    7620    347.32046   -8716.0323   -8677.2882     1220.231    17815.862    12.882747 
    7630    350.72935   -8716.7174    -8677.593    1527.8813    17809.845    12.881627 
    7640    348.53601   -8716.7989   -8677.9192    1340.6728    17807.347    12.885787 
    7650    356.38196   -8718.0159    -8678.261    1065.3029    17808.011    12.901964 
    7660     365.9472   -8719.4556   -8678.6336    920.13016    17811.207    12.929705 
    7670    350.41619   -8718.1068   -8679.0173    1078.7434    17816.669    12.964377 
    7680     348.0324   -8718.2077   -8679.3842     1054.285    17824.658    13.000221 
    7690    359.45626   -8719.8463   -8679.7484     1076.715    17835.181    13.035801 
    7700    362.71024   -8720.6077   -8680.1468    903.27968    17848.211    13.079533 
    7710    360.35824   -8720.7862   -8680.5877    247.55068    17863.285    13.140653 
    7720    346.98275   -8719.7289   -8681.0224    -686.1176    17878.897    13.217546 
    7730    349.75445   -8720.4418   -8681.4261   -1975.8195    17892.802    13.303224 
    7740    353.28576     -8721.21   -8681.8005   -2899.9899    17902.073    13.392323 
    7750    351.52072   -8721.3646   -8682.1519   -2823.0783    17904.631    13.479165 
    7760    348.50005    -8721.351   -8682.4753   -2251.3856      17900.6    13.558071 
    7770    339.20445    -8720.613   -8682.7742   -1572.7919    17891.232    13.625315 
    7780    335.26208    -8720.442    -8683.043   -405.83034     17878.29    13.683119 
    7790    345.93925   -8721.8828   -8683.2928    814.05184    17864.462    13.736696 
    7800    340.44064   -8721.5135   -8683.5368    2739.8174     17852.84     13.78765 
    7810    332.74705   -8720.8796   -8683.7611     4681.742    17847.777    13.837008 
    7820    344.95377   -8722.4786   -8683.9985    5443.1556    17853.561    13.888713 
    7830    349.85595   -8723.3066   -8684.2796    4615.6092    17871.867    13.946369 
    7840     346.8872   -8723.2829   -8684.5871    2498.5296    17900.722    14.007695 
    7850    347.00788   -8723.5823   -8684.8731    12.007897    17935.267    14.064736 
    7860    355.72959   -8724.8116   -8685.1294    -1993.761     17969.68    14.111477 
    7870    364.11885   -8726.0141   -8685.3961   -2910.4305    17999.258    14.147995 
    7880    368.73215   -8726.8481   -8685.7154   -3048.3992    18021.716     14.17666 
    7890    359.05423   -8726.1381    -8686.085   -2377.3061    18036.815    14.198766 
    7900    354.25521   -8725.9876   -8686.4699    -1491.893     18046.08    14.216246 
    7910    363.20702   -8727.3809   -8686.8646   -778.75827    18051.598    14.232723 
    7920    367.37738   -8728.2699   -8687.2884   -54.039201    18055.183    14.252073 
    7930     359.7217   -8727.8566   -8687.7291    875.15513    18058.665    14.280035 
    7940    353.36911   -8727.5854   -8688.1665    1422.3487    18064.159    14.326627 
    7950    340.95825   -8726.6108   -8688.5764    1221.7876    18072.901    14.398352 
    7960    334.81245    -8726.283   -8688.9341    112.86258    18084.297    14.491121 
    7970    336.83556   -8726.8167   -8689.2421   -1083.8796    18095.829    14.593407 
    7980    330.13467   -8726.3323   -8689.5053   -1463.9436    18104.809    14.695368 
    7990    340.50053    -8727.729   -8689.7457   -1642.1714    18110.167    14.794894 
    8000    346.04896   -8728.5807   -8689.9784   -1342.8683      18111.6    14.891812 
    8010    345.85755   -8728.7836   -8690.2027   -801.42582     18109.78    14.985197 
    8020    340.58245   -8728.4051   -8690.4126   -324.68248    18106.055    15.073653 
    8030    326.37545   -8727.0056   -8690.5979    2.3423537    18101.568    15.153527 
    8040    324.38919   -8726.9334   -8690.7473    400.90345     18097.19    15.220946 
    8050    334.85393   -8728.2263   -8690.8729    573.46718    18093.795    15.274967 
    8060    332.42434   -8728.0709   -8690.9884    721.42704    18091.827    15.314555 
    8070    335.17655   -8728.4991   -8691.1096    795.35942    18091.613    15.340276 
    8080    330.12188   -8728.0572   -8691.2316    668.62408    18093.306    15.358166 
    8090    325.87322   -8727.6936   -8691.3419    416.13402    18096.576    15.372601 
    8100    323.10166   -8727.4713   -8691.4289    601.41626    18100.906    15.382781 
    8110    321.80635   -8727.3805   -8691.4825    792.15681    18106.641    15.387217 
    8120    335.24517   -8728.9055   -8691.5084    581.38833    18114.122     15.38763 
    8130    342.11416   -8729.6878   -8691.5244    269.12858    18122.923    15.390853 
    8140    340.64755    -8729.549   -8691.5492   -437.71175    18132.208    15.403281 
    8150    338.75684   -8729.3693   -8691.5805   -1317.3765    18140.281    15.424782 
    8160    351.15403   -8730.8006   -8691.6289    -1895.624    18145.125    15.452644 
    8170    349.50984   -8730.6983   -8691.7099   -1662.1669    18145.457    15.486046 
    8180    336.40296    -8729.341   -8691.8148   -430.61959    18141.962    15.526029 
    8190    329.61158   -8728.6775   -8691.9089    863.99669    18137.466    15.573959 
    8200     330.1407   -8728.8031   -8691.9754    1541.3767     18135.03    15.627382 
    8210    338.32372   -8729.7695    -8692.029    1132.4611    18136.145    15.680656 
    8220     342.2132   -8730.2646   -8692.0902    510.75614    18139.988    15.725696 
    8230    340.97489   -8730.2031   -8692.1668    128.56329    18145.095    15.754865 
    8240    349.55963   -8731.2621   -8692.2682   -49.512611    18150.493    15.768486 
    8250    344.17699   -8730.7919   -8692.3984    135.06272    18155.784    15.774734 
    8260     332.4848    -8729.631   -8692.5419    649.34549    18161.434     15.78043 
    8270    340.30529   -8730.6503   -8692.6888    973.90416    18168.581    15.788085 
    8280    341.69512   -8730.9575   -8692.8409    966.74667    18177.951    15.800944 
    8290    341.49482   -8731.0979   -8693.0037    583.05444    18189.513     15.82229 
    8300    338.79088   -8730.9653   -8693.1727   -264.28723    18202.275    15.851963 
    8310    342.34121   -8731.5328   -8693.3441   -1385.7614    18214.263    15.886187 
    8320     354.3517   -8733.0618   -8693.5333   -2877.6896    18222.664    15.921782 
    8330    352.86805   -8733.1306   -8693.7676   -3457.7561     18224.12    15.955604 
    8340    355.07569    -8733.666   -8694.0568   -3207.0614    18217.208    15.985314 
    8350    359.17925   -8734.4641   -8694.3971    -2158.008    18202.616    16.007938 
    8360    346.17751   -8733.3589   -8694.7423   -282.32289    18183.053    16.023102 
    8370    343.03492   -8733.3126   -8695.0465      1155.51    18162.899    16.035827 
    8380     348.8921   -8734.2375   -8695.3181    1835.5956    18145.606     16.04945 
    8390    342.21479   -8733.7475   -8695.5729    2223.6298    18132.882     16.05964 
    8400    329.58255   -8732.5737   -8695.8083     2479.145    18125.695    16.065271 
    8410    318.83612   -8731.5655   -8695.9989    2288.3946    18124.519    16.073746 
    8420    326.76818   -8732.5934   -8696.1419    1599.1065    18128.792    16.089951 
    8430    328.64062   -8732.9083    -8696.248    905.61147    18136.959    16.113788 
    8440    326.39826   -8732.7312    -8696.321    171.00419    18147.265    16.143724 
    8450     332.6012   -8733.4651    -8696.363   -382.27493     18157.95    16.178722 
    8460    326.40525   -8732.7879   -8696.3769   -540.58104    18167.721    16.217317 
    8470    329.31747   -8733.1016   -8696.3657    -925.0298    18176.057    16.254939 
    8480    335.36315   -8733.7471   -8696.3368   -1494.4447    18182.012    16.284987 
    8490    332.69853   -8733.4192   -8696.3062   -1514.9097    18184.428    16.303447 
    8500     333.2336   -8733.4508    -8696.278   -1222.2261    18183.195     16.31353 
    8510    323.44716   -8732.3198   -8696.2388   -825.48912    18178.986    16.321865 
    8520    325.62408   -8732.4972   -8696.1734   -661.20963    18172.724    16.333827 
    8530    335.77816   -8733.5392   -8696.0826   -406.80618    18164.891    16.351133 
    8540    330.20028   -8732.8101   -8695.9758    438.99929    18156.279    16.372129 
    8550    336.53195   -8733.3957    -8695.855    1134.9061    18148.776    16.392008 
    8560    342.29363   -8733.9083   -8695.7249    1227.0051     18143.97    16.408182 
    8570    332.25922   -8732.6595   -8695.5955    1002.6478    18142.159    16.424492 
[...]
   22890    359.17295     -8814.31   -8774.2437   -1756.3853    17769.781     19.94447 
   22900    353.35696   -8813.7484   -8774.3309   -2244.6703    17775.678    19.956649 
   22910    350.80626   -8813.5977   -8774.4647   -2132.2031    17776.441    19.955433 
   22920    340.26717   -8812.5806   -8774.6233   -1423.7324    17772.336    19.939648 
   22930     342.3503   -8812.9802   -8774.7906   -941.12848    17764.822    19.913183 
   22940     343.6113   -8813.2951   -8774.9647   -472.40939    17755.123    19.879193 
   22950    343.60956   -8813.4784   -8775.1482   -21.421818    17744.314    19.839755 
   22960    341.56851   -8813.4367   -8775.3343     630.5809    17733.503    19.800196 
   22970     337.5905   -8813.1639   -8775.5052    1577.5719     17724.23    19.768576 
   22980    337.37567   -8813.2956   -8775.6609     2203.699    17718.577    19.749726 
   22990    334.70918   -8813.1447   -8775.8074    2126.8438    17717.955    19.741239 
   23000    331.29445   -8812.8963   -8775.9399     1242.934     17722.15    19.738802 
   23010    332.90492   -8813.1823   -8776.0462   -375.14708    17729.107    19.739913 
   23020    339.86724   -8814.0413   -8776.1286   -1682.8826    17735.302    19.740938 
   23030    342.91371   -8814.4611   -8776.2085   -1948.6565    17737.776    19.739639 
   23040    336.35751   -8813.8111   -8776.2899   -1572.6633    17735.798     19.73803 
   23050    335.70003   -8813.8106   -8776.3628   -1164.1948    17730.125    19.738898 
   23060     336.5466    -8813.969   -8776.4267   -699.94878    17721.715    19.742685 
   23070    324.22923   -8812.6386   -8776.4704   -116.52706    17711.645    19.746575 
   23080    330.56603   -8813.3601    -8776.485    492.01827    17701.269    19.746817 
   23090    337.76121   -8814.1522   -8776.4744    1126.6995    17692.018    19.741775 
   23100    338.83485   -8814.2538   -8776.4563    1878.1457    17685.433    19.728349 
   23110       351.11   -8815.6263   -8776.4595      1889.08    17683.036    19.704238 
   23120    338.35039   -8814.2347   -8776.4912    1512.9247    17684.966    19.675281 
   23130    338.00239   -8814.2403   -8776.5356    705.95073    17690.352    19.650745 
   23140    344.36838   -8814.9925   -8776.5777    -111.6338    17697.403    19.633935 
   23150    332.29353   -8813.6841   -8776.6163   -596.23387    17704.293    19.622682 
   23160    333.42309   -8813.8381   -8776.6443   -1320.6597    17709.758    19.611417 
   23170    339.65753   -8814.5443    -8776.655   -1878.0737      17712.2    19.593527 
   23180    337.52545   -8814.3061   -8776.6547   -1732.0448      17710.4    19.564742 
   23190    337.99618   -8814.3555   -8776.6516   -864.77825    17704.688    19.525934 
   23200    343.55044   -8814.9754   -8776.6518      362.476    17697.046    19.483988 
   23210    340.93173   -8814.6967   -8776.6653    1245.4696    17690.185    19.447611 
   23220    330.37295   -8813.5411   -8776.6875    1359.4634    17686.061    19.423426 
   23230    335.18854   -8814.0959   -8776.7051    590.63592    17684.947    19.414532 
   23240    342.30798   -8814.9035   -8776.7185   -575.89996    17685.136    19.418864 
   23250    335.09998   -8814.1172   -8776.7363   -1064.9242    17684.155    19.424806 
   23260    329.11073   -8813.4634   -8776.7506   -1266.7867    17680.731    19.417654 
   23270    333.67161   -8813.9763   -8776.7547   -1093.0781    17674.448    19.393863 
   23280     333.2333   -8813.9231   -8776.7504   -605.80348    17665.642    19.361458 
   23290    323.29029   -8812.7904   -8776.7268    645.67933    17655.572    19.329887 
   23300     330.2448   -8813.5108   -8776.6715    1966.8337    17646.961    19.304747 
   23310     341.9078   -8814.7344    -8776.594    3060.0739    17642.872    19.287645 
   23320    339.17963   -8814.3591   -8776.5231    2909.1898    17645.607    19.275652 
   23330    330.29878   -8813.2982   -8776.4529    1467.6572    17654.875    19.264791 
   23340    339.94248   -8814.2806   -8776.3595   -656.76567    17667.465    19.253025 
   23350    349.29233   -8815.2107   -8776.2466   -2291.1604    17678.713    19.237245 
   23360    343.47422   -8814.4607   -8776.1456   -2752.7586    17684.922    19.215139 
   23370    328.49519   -8812.6959   -8776.0517   -1973.0346    17685.016    19.188364 
   23380    331.62899   -8812.9226   -8775.9289   -1189.5471    17680.477    19.163982 
   23390     345.4907   -8814.3009   -8775.7609   -543.09159    17673.084    19.149528 
   23400    348.24882   -8814.4198   -8775.5721    848.70095    17664.557    19.147834 
   23410    345.40911    -8813.908   -8775.3771    2328.6642    17657.967    19.157749 
   23420    349.27738   -8814.1436   -8775.1812    3057.6225    17656.593    19.179111 
   23430    350.74625   -8814.1126   -8774.9863    3067.6154    17662.215    19.213935 
   23440     353.5397   -8814.2371   -8774.7992    2383.3695    17674.911    19.264407 
   23450    351.15778   -8813.7882   -8774.6161    1094.2931    17693.143    19.328231 
   23460    353.74045   -8813.8907   -8774.4305   -945.82082    17713.944     19.39707 
   23470    359.13737   -8814.3006   -8774.2383   -2848.1599    17732.747    19.462481 
   23480    349.85039   -8813.0931   -8774.0668   -3754.5725    17745.177    19.517301 
   23490    339.31649   -8811.7749   -8773.9237   -3498.3231    17749.085    19.553955 
   23500    343.47816   -8812.1119   -8773.7964   -2293.5009    17744.977    19.568873 
   23510    340.49483   -8811.6573   -8773.6746   -135.64488    17735.695    19.569129 
   23520    344.10288   -8811.9325   -8773.5473    1634.0304    17725.974    19.566347 
   23530    369.36442   -8814.6398   -8773.4366     2241.166    17719.789    19.566027 
   23540    352.67921   -8812.7252   -8773.3833      2673.05    17718.791    19.568694 
   23550    326.43651   -8809.7905    -8773.376    2549.0691    17723.958    19.572534 
   23560    355.82011   -8813.0797   -8773.3874    649.31504    17734.761    19.572757 
   23570    369.13533   -8814.6131   -8773.4355   -922.37507    17747.262    19.559747 
   23580     349.0329   -8812.4799   -8773.5448   -1012.9547    17757.968    19.529338 
   23590    347.65945   -8812.4592   -8773.6772   -896.57037    17766.392     19.48719 
   23600    359.76114   -8813.9623   -8773.8304   -1412.7973     17772.59    19.442284 
   23610    357.77735   -8813.9495   -8774.0389   -1906.1887    17775.494    19.397398 
   23620     360.1164   -8814.5024   -8774.3309   -2122.7009    17773.948     19.35006 
   23630    347.73651   -8813.4953   -8774.7048   -1591.3317    17767.528    19.301821 
   23640    330.24982   -8811.9291   -8775.0892   -387.10233     17757.48    19.257976 
   23650    332.09003   -8812.4897   -8775.4445    665.72345    17746.461    19.229167 
   23660    325.21964   -8812.0272   -8775.7485    1321.0037    17736.928    19.227734 
   23670    339.01716   -8813.8174   -8775.9996      743.452    17730.181    19.256526 
   23680    349.75381   -8815.2388   -8776.2233    200.86996    17725.163    19.302493 
   23690    339.14526   -8814.2569   -8776.4248    506.37197     17720.81    19.346254 
   23700    340.69528   -8814.6087   -8776.6036    454.03363    17717.528    19.377097 
   23710    346.68175   -8815.4444   -8776.7716    68.879625    17715.233    19.393441 
   23720    341.77444   -8815.0586   -8776.9331   -41.565506    17713.149     19.39908 
   23730    338.89571   -8814.8912   -8777.0869    256.84049    17711.057    19.399515 
   23740    338.33212   -8814.9725    -8777.231    213.86357    17709.456    19.399032 
   23750    334.99235   -8814.7332   -8777.3643    383.04815    17708.404    19.394366 
   23760    335.92246   -8814.9543   -8777.4816    928.81815    17708.332    19.382477 
   23770    335.96019   -8815.0597   -8777.5828    1451.1826    17710.425    19.368094 
   23780    323.34548   -8813.7278   -8777.6581    1837.8743    17715.904    19.355967 
   23790    330.77071   -8814.6094   -8777.7114    1406.4171    17725.552    19.344382 
   23800    337.54347   -8815.3992   -8777.7457    347.07548    17738.421    19.332712 
   23810    324.09221   -8813.9124   -8777.7594    -546.2356    17752.186    19.326142 
   23820    323.01527   -8813.7823   -8777.7495   -1553.9557    17764.701    19.327765 
   23830    333.70028   -8814.9464   -8777.7216   -2533.0492    17773.623    19.331587 
   23840    343.22016   -8815.9842   -8777.6975   -2920.6432    17776.719    19.328822 
   23850    335.96702   -8815.1529   -8777.6753    -2573.245     17773.13    19.319177 
   23860    340.19436   -8815.6026   -8777.6534    -2131.056    17763.479    19.305144 
   23870    341.86417    -8815.765   -8777.6296   -1350.7633     17748.85     19.28572 
   23880    332.50366   -8814.6996   -8777.6083   -418.84821    17730.968    19.258124 
   23890    332.63398    -8814.681   -8777.5752      823.214    17712.099    19.225592 
   23900    339.27493   -8815.3701   -8777.5234    2116.2042    17695.111    19.196198 
   23910    336.04075   -8814.9508    -8777.465      2655.37    17682.834    19.174504 
   23920    334.27572    -8814.696    -8777.407    2555.1329    17676.565    19.161171 
   23930    336.85746   -8814.9267   -8777.3497    2564.4434    17676.262     19.15563 
   23940    336.92532   -8814.8792   -8777.2947    2427.6204    17681.904    19.160202 
   23950    337.59974   -8814.9009   -8777.2411    2008.0141    17693.208    19.176331 
   23960     335.3909   -8814.5947   -8777.1813    1255.3555    17709.222    19.202171 
   23970    337.60873   -8814.7551   -8777.0943   -343.41339    17728.123    19.236502 
   23980    344.75464   -8815.4345   -8776.9766   -2326.7297    17746.248    19.278761 
   23990    332.38429   -8813.9173   -8776.8393   -3053.9441    17759.318    19.321203 
   24000    342.16482   -8814.8577   -8776.6887   -3183.7592    17765.411    19.354095 
   24010    350.09404   -8815.5839   -8776.5304   -2617.0388      17764.2    19.373629 
   24020    330.55618   -8813.2463   -8776.3722   -894.73142    17757.111    19.381134 
   24030    337.86687   -8813.8788   -8776.1893    331.97257     17747.74    19.378073 
   24040    350.60653    -8815.078   -8775.9673    1047.5176     17739.01    19.366672 
   24050    339.55267   -8813.6188   -8775.7412    1535.9763    17732.624    19.353266 
   24060    336.23978    -8813.036   -8775.5279    1524.1036    17729.712    19.344274 
   24070    340.47664   -8813.2955   -8775.3148    856.57835    17730.225    19.340201 
   24080     345.5296   -8813.6389   -8775.0946    155.30052     17732.79    19.336878 
   24090    358.11602   -8814.8145   -8774.8661   -480.18319    17735.774    19.330274 
   24100    365.50358   -8815.4318   -8774.6593   -688.69561    17737.713     19.31675 
   24110    340.85578     -8812.52    -8774.497    25.976116    17738.276    19.294865 
   24120    347.67868   -8813.1434   -8774.3593    146.56879    17738.756    19.268863 
   24130    360.26118   -8814.4202   -8774.2325   -205.02596    17739.465    19.247081 
   24140    342.82553   -8812.3886   -8774.1459   -8.4442043    17739.844    19.236869 
   24150    344.32402   -8812.5042   -8774.0944    18.309025    17740.147    19.239906 
   24160    346.41154   -8812.7021   -8774.0593    485.41849     17740.63    19.250297 
   24170    344.57305   -8812.4836    -8774.046    946.10399    17742.257    19.261191 
   24180    358.68633    -8814.073    -8774.061    935.28613    17746.045    19.264374 
   24190    357.50664    -8814.001   -8774.1206    832.06973    17752.111    19.258933 
   24200    346.43717   -8812.8687   -8774.2231   -160.51238    17759.993    19.256252 
   24210    353.02946   -8813.7368   -8774.3558   -1805.3782    17767.424    19.262947 
   24220    348.55187   -8813.4114   -8774.5299   -2647.6272    17770.875    19.276903 
   24230    344.55393    -8813.197   -8774.7615   -3012.4338    17768.191    19.291328 
   24240    350.05661   -8814.1105   -8775.0612   -2689.5835    17758.513    19.302066 
   24250    338.40783   -8813.1522   -8775.4023   -1038.2897    17742.715    19.308121 
   24260    340.62137   -8813.7451   -8775.7482    454.11207    17724.275    19.309853 
   24270    344.88994   -8814.5671   -8776.0941    1440.3848    17706.613    19.305152 
   24280    335.53371    -8813.854   -8776.4247      2568.56    17692.241    19.291734 
   24290    343.02096   -8814.9957   -8776.7312    2501.7806    17683.492    19.271332 
   24300    346.38218   -8815.6722   -8777.0328    1508.6869    17680.354    19.249341 
   24310    336.87151   -8814.8866    -8777.308    363.09389    17680.724    19.229309 
   24320     339.9952   -8815.4844   -8777.5574   -699.01826    17681.943    19.210555 
   24330    331.79539   -8814.7953    -8777.783   -1020.5702    17681.721    19.187583 
   24340     324.4945   -8814.1691   -8777.9713   -1296.7915    17679.147    19.154661 
   24350    328.78469   -8814.7888   -8778.1124   -1650.6812    17673.469    19.103282 
   24360    322.06025   -8814.1032   -8778.1769   -710.24726    17664.205    19.030864 
   24370    328.76808   -8814.8344   -8778.1598    308.30362    17653.229    18.951122 
   24380    341.61373    -8816.206   -8778.0985    917.14574     17642.81    18.881442 
   24390    331.38843   -8814.9981   -8778.0312    1961.8894    17634.583     18.82666 
   24400    330.79413   -8814.8696    -8777.969    2474.4934    17630.772    18.784574 
   24410    341.15644   -8815.9785    -8777.922    1798.5607     17632.43     18.75712 
   24420    328.90708   -8814.5779   -8777.8878    1137.9811    17638.302    18.744062 
   24430    321.12715   -8813.6673   -8777.8451    459.55373    17646.846    18.741239 
   24440    335.19892   -8815.1707   -8777.7788   -390.36663    17656.471    18.744552 
   24450    339.92836   -8815.6214   -8777.7019   -685.42433    17665.394    18.750575 
   24460    335.00046   -8815.0054   -8777.6356   -552.47087    17672.848    18.758078 
   24470    337.37439   -8815.2014   -8777.5668   -813.73597    17678.951    18.768434 
   24480    342.53733   -8815.6972   -8777.4867   -1373.0309     17683.14    18.785258 
   24490    335.19785   -8814.7955   -8777.4037    -1366.968    17684.321    18.810103 
   24500    339.11173   -8815.1459   -8777.3175   -1329.2841    17682.313    18.837168 
   24510    355.75619   -8816.9302   -8777.2451   -1142.2877    17677.228    18.853471 
   24520    347.79444   -8816.0044   -8777.2074   -218.45116    17669.628    18.851728 
   24530     338.9698    -8815.006   -8777.1934    657.05854    17661.461    18.833782 
   24540    337.34787   -8814.8143   -8777.1826    997.59079    17654.671    18.804904 
   24550    330.62624   -8814.0445   -8777.1626    781.85385     17650.05     18.77457 
   24560    336.74757   -8814.6994   -8777.1348    144.65396    17647.115    18.753964 
   24570    330.26187   -8813.9322    -8777.091   -213.40919    17644.583    18.747978 
   24580    332.88167   -8814.1718   -8777.0384   -681.21624    17641.496    18.751883 
   24590    334.61544   -8814.2979    -8776.971   -684.26371    17636.907    18.756876 
   24600    332.29705   -8813.9531   -8776.8848    26.768448     17630.87    18.759095 
   24610    344.90312   -8815.2544     -8776.78    745.39191    17624.838    18.759535 
   24620    340.29344   -8814.6223   -8776.6621    1652.3584    17620.544    18.760505 
   24630    345.20917   -8815.0595   -8776.5509    2049.9152     17619.92    18.761786 
   24640    345.71708   -8815.0111   -8776.4459    2185.4442    17624.022    18.761713 
   24650    338.44682   -8814.1017   -8776.3474    2143.6116    17633.246    18.762577 
   24660    337.64207   -8813.8973   -8776.2328    1245.1351    17647.364    18.768966 
   24670    342.34359   -8814.2744   -8776.0855   -212.37047    17664.414    18.780543 
   24680    351.23299   -8815.0974   -8775.9168   -1805.6081    17681.131    18.792437 
   24690    351.90457   -8815.0065    -8775.751   -3094.6277    17693.899     18.80251 
   24700    350.62105   -8814.7322   -8775.6199   -3673.6271    17699.677    18.810765 
   24710    340.63165   -8813.5249   -8775.5269   -3212.4773    17697.128    18.816117 
   24720    336.86102   -8813.0351   -8775.4577   -2190.5734    17687.146    18.819993 
   24730    338.50208   -8813.1383   -8775.3779   -759.12851     17672.03    18.826344 
   24740    348.73047   -8814.1677   -8775.2663    587.48499    17654.998    18.837411 
   24750    356.91057    -8814.947   -8775.1331     1235.555    17639.041    18.850534 
   24760    347.67765   -8813.7901   -8775.0062      1663.26    17625.845    18.860786 
   24770    347.92187   -8813.7135   -8774.9023    1521.6795      17616.3    18.870076 
   24780    355.69689   -8814.5089   -8774.8304    1334.5345     17610.17    18.883317 
   24790    347.91039    -8813.608   -8774.7981    2100.5348     17607.28    18.901479 
   24800    350.97374   -8813.9602   -8774.8086    2896.0159    17609.216    18.923826 
   24810    361.63671   -8815.2215   -8774.8804    2881.2007    17617.729    18.953139 
   24820    350.62191   -8814.1264    -8775.014     1979.235    17632.866    18.991337 
   24830    345.69039    -8813.741   -8775.1787    655.53549    17652.678    19.029038 
   24840    356.91577   -8815.1967   -8775.3822   -496.33838    17674.222    19.056736 
   24850    350.55698   -8814.7408   -8775.6356   -1228.7589    17694.873    19.070583 
   24860    338.87301   -8813.7148    -8775.913   -1691.7875    17712.834    19.069353 
   24870    327.91276   -8812.7408   -8776.1617   -1739.4432    17727.083    19.056287 
   24880    342.67803   -8814.6143    -8776.388    -2280.368    17737.233    19.041475 
   24890    343.30804   -8814.9378   -8776.6412   -2543.9986     17742.16    19.030074 
   24900    323.24779   -8812.9694   -8776.9106   -2251.4608    17741.279    19.019387 
   24910    330.14993   -8813.9992   -8777.1705   -1998.1333    17735.081    19.005821 
   24920    336.10679   -8814.9058   -8777.4126   -935.56994     17724.35    18.989069 
   24930     338.0153   -8815.3222   -8777.6161    374.95346    17711.408    18.973654 
   24940    355.64406   -8817.4666   -8777.7939    1246.5077    17699.162    18.962932 
   24950    345.46279   -8816.4993   -8777.9624     1983.789    17689.753     18.95674 
   24960    335.86164   -8815.5821   -8778.1163    1981.2184    17684.776    18.955108 
   24970    343.04696   -8816.5335   -8778.2661    1408.0056    17684.277    18.957276 
   24980    334.73861    -8815.753   -8778.4124    885.92093    17687.083    18.962494 
   24990    332.07161   -8815.5897   -8778.5466    259.26557    17691.964    18.965072 
   25000    336.17365   -8816.1654   -8778.6647   -517.91273    17697.473    18.961191 
Loop time of 14374.3 on 16 procs for 20000 steps with 864 atoms

Performance: 0.120 ns/day, 199.643 hours/ns, 1.391 timesteps/s
95.8% CPU use with 16 MPI tasks x 1 OpenMP threads

MPI task timing breakdown:
Section |  min time  |  avg time  |  max time  |%varavg| %total
---------------------------------------------------------------
Pair    | 3454.2     | 8005.2     | 14344      |4034.2 | 55.69
Bond    | 0.0024555  | 0.0054839  | 0.013977   |   4.4 |  0.00
Neigh   | 0.17627    | 0.37081    | 0.67487    |  29.5 |  0.00
Comm    | 3.512      | 4499.6     | 8539.8     |4784.5 | 31.30
Output  | 1.3996     | 1.4254     | 1.7946     |   8.0 |  0.01
Modify  | 24.254     | 1867.6     | 7818.4     |5591.7 | 12.99
Other   |            | 0.1053     |            |       |  0.00

Nlocal:        54.0000 ave          88 max          31 min
Histogram: 5 2 1 1 1 0 1 1 2 2
Nghost:        539.875 ave         678 max         340 min
Histogram: 2 0 3 1 1 1 0 2 1 5
Neighs:         0.00000 ave           0 max           0 min
Histogram: 16 0 0 0 0 0 0 0 0 0
FullNghs:      2835.25 ave        5748 max         884 min
Histogram: 7 0 1 2 0 0 0 1 3 2

Total # of neighbors = 45364
Ave neighs/atom = 52.504630
Ave special neighs/atom = 0.0000000
Neighbor list builds = 2000
Dangerous builds = 2000
Total wall time: 4:55:56
