LAMMPS (29 Sep 2021 - Update 3)
OMP_NUM_THREADS environment is not set. Defaulting to 1 thread. (src/comm.cpp:98)
  using 1 OpenMP thread(s) per MPI task
Reading data file ...
  orthogonal box = (0.0000000 0.0000000 0.0000000) to (15.857269 15.758596 73.856324)
  2 by 1 by 8 MPI processor grid
  reading atoms ...
  864 atoms
Finding 1-2 1-3 1-4 neighbors ...
  special bond factors lj:    0        0        0       
  special bond factors coul:  0        0        0       
     0 = max # of 1-2 neighbors
     0 = max # of 1-3 neighbors
     0 = max # of 1-4 neighbors
     1 = max # of special neighbors
  special bonds CPU = 0.001 seconds
  read_data CPU = 0.042 seconds
Neighbor list info ...
  update every 1 steps, delay 10 steps, check yes
  max neighbors/atom: 2000, page size: 100000
  master list distance cutoff = 6.22
  ghost atom cutoff = 6.22
  binsize = 3.11, bins = 6 6 24
  1 neighbor lists, perpetual/occasional/extra = 1 0 0
  (1) pair quip, perpetual
      attributes: full, newton on
      pair build: full/bin
      stencil: full/bin/3d
      bin: standard
Setting up Verlet run ...
  Unit style    : metal
  Current step  : 0
  Time step     : 0.001
Per MPI rank memory allocation (min/avg/max) = 8.896 | 8.907 | 8.915 Mbytes
Step Temp PotEng TotEng Press Volume c_msd[4] 
       0            0   -6680.0933   -6680.0933   -8281.1165    18455.831            0 
      10    70.089017   -6687.9205    -6680.102   -9637.9304    18455.831 0.00053514082 
      20    180.09083   -6700.2003   -6680.1109   -11326.743    18455.831 0.0066144209 
      30    218.60542   -6704.4933   -6680.1075   -10699.378    18455.831  0.022432956 
      40    219.14865   -6704.5494    -6680.103   -8951.3193    18455.831  0.042690684 
      50    240.47609   -6706.9311   -6680.1056   -8003.5149    18455.831  0.059191698 
      60    253.66901   -6708.4039   -6680.1068    -7626.627    18455.831   0.07070925 
      70     242.9182   -6707.2018   -6680.1039   -7466.6829    18455.831  0.079364222 
      80    245.92472    -6707.537   -6680.1038   -7609.4954    18455.831  0.086633288 
      90    257.49674   -6708.8305   -6680.1063   -7851.5904    18455.831  0.095173812 
     100    252.46946   -6708.2676   -6680.1043   -7551.0395    18455.831   0.10676573 
     110    248.46405   -6707.8212   -6680.1047   -7097.6705    18455.831   0.12025968 
     120    250.68872   -6708.0687    -6680.104   -6824.8497    18455.831   0.13340609 
     130      258.818   -6708.9777   -6680.1062   -6596.3887    18455.831   0.14573975 
     140    253.60976   -6708.3953   -6680.1047   -6185.2051    18455.831   0.15889724 
     150    247.40375   -6707.7026   -6680.1043   -5947.5032    18455.831   0.17318983 
     160    248.95468   -6707.8762   -6680.1049   -5851.7986    18455.831   0.18766652 
     170    251.06346   -6708.1121   -6680.1056   -5590.4969    18455.831   0.20144657 
     180    246.23782    -6707.572   -6680.1038   -5247.2261    18455.831   0.21382042 
     190    251.48989   -6708.1586   -6680.1045   -5416.1608    18455.831   0.22371169 
     200    260.44308   -6709.1586   -6680.1058   -5793.9896    18455.831   0.23141162 
     210    257.82494   -6708.8658    -6680.105   -6133.6533    18455.831   0.23844771 
     220    250.73963   -6708.0747   -6680.1043   -6257.2025    18455.831   0.24564622 
     230    248.07271   -6707.7773   -6680.1044   -6243.0592    18455.831   0.25309034 
     240    248.93862   -6707.8742   -6680.1047   -6226.9294    18455.831   0.26091643 
     250    248.99388   -6707.8804   -6680.1047   -6334.5414    18455.831   0.26913526 
     260    251.27669   -6708.1344   -6680.1041   -6551.8246    18455.831   0.27705303 
     270    260.34527   -6709.1477   -6680.1058        -6764    18455.831   0.28421607 
     280    260.83001   -6709.2011   -6680.1051   -6639.8092    18455.831   0.29163604 
     290    256.24266   -6708.6893    -6680.105   -6449.9322    18455.831   0.29974682 
     300    250.69638     -6708.07   -6680.1044   -6471.1016    18455.831   0.30849754 
     310    250.05901    -6707.999   -6680.1046   -6562.0942    18455.831   0.31777754 
     320    252.23509   -6708.2423   -6680.1051   -6693.6464    18455.831   0.32755563 
     330    250.81469   -6708.0833   -6680.1046   -6713.8004    18455.831   0.33779883 
     340    250.65515   -6708.0657   -6680.1047     -6614.52    18455.831   0.34801692 
     350    252.94275   -6708.3202   -6680.1041   -6588.7327    18455.831   0.35730468 
     360    261.50627   -6709.2774    -6680.106   -6797.9362    18455.831   0.36504658 
     370    261.10007   -6709.2316   -6680.1055   -6831.7443    18455.831   0.37190178 
     380    253.99916   -6708.4387   -6680.1047   -6726.1215    18455.831   0.37827271 
     390    253.05009   -6708.3325   -6680.1044    -6835.806    18455.831   0.38397661 
     400    258.03703   -6708.8906   -6680.1062   -6768.7818    18455.831   0.38955387 
     410      252.036   -6708.2195   -6680.1045   -6292.4532    18455.831   0.39652014 
     420    250.52201   -6708.0507   -6680.1046   -5826.2725    18455.831   0.40500255 
     430    256.29495   -6708.6954   -6680.1053    -5546.315    18455.831    0.4145153 
     440    262.43605   -6709.3808   -6680.1057   -5439.0868    18455.831   0.42473971 
     450    264.26046   -6709.5844   -6680.1058   -5272.9671    18455.831   0.43527985 
     460    262.52327   -6709.3894   -6680.1046   -5195.9426    18455.831   0.44476232 
     470    267.68384   -6709.9661   -6680.1056   -5304.7962    18455.831   0.45177569 
     480    270.55653   -6710.2863   -6680.1053   -5291.2639    18455.831   0.45687774 
     490    270.72724   -6710.3054   -6680.1053   -5218.7322    18455.831   0.46120142 
     500    269.05227   -6710.1187   -6680.1055   -5175.8745    18455.831   0.46642946 
     510    263.94553   -6709.5489   -6680.1053   -5239.9274    18455.831   0.47407361 
     520    257.63711   -6708.8446   -6680.1048   -5291.7388    18455.831   0.48412853 
     530    257.06548   -6708.7811   -6680.1051   -5321.5334    18455.831   0.49506416 
     540    260.38526   -6709.1518   -6680.1055   -5376.0867    18455.831   0.50501047 
     550    260.91759   -6709.2118    -6680.106    -5479.615    18455.831   0.51322197 
     560    255.01677   -6708.5518   -6680.1043   -5675.0057    18455.831   0.52041437 
     570     259.1908   -6709.0183   -6680.1051   -6233.3417    18455.831    0.5272333 
     580    265.73933   -6709.7494   -6680.1058   -6810.0612    18455.831   0.53425593 
     590    267.07214   -6709.8973    -6680.105   -7271.0617    18455.831   0.54173358 
     600    270.59769   -6710.2906    -6680.105   -7669.4363    18455.831   0.54966243 
     610    275.51295   -6710.8394   -6680.1055   -7859.4286    18455.831   0.55825095 
     620    275.26386   -6710.8118   -6680.1057   -7564.3126    18455.831   0.56786247 
     630    267.62803    -6709.959   -6680.1047   -6980.9593    18455.831   0.57832835 
     640    265.09163   -6709.6761   -6680.1047   -6568.2152    18455.831   0.58820723 
     650    267.67247   -6709.9653    -6680.106    -6347.284    18455.831   0.59641333 
     660    264.01415   -6709.5562    -6680.105   -5916.0469    18455.831   0.60309646 
     670    263.52965    -6709.502   -6680.1049   -5671.0684    18455.831   0.60844331 
     680    269.00124    -6710.113   -6680.1055   -5692.2827    18455.831    0.6132683 
     690    271.45591    -6710.387   -6680.1057   -5574.8525    18455.831   0.61933075 
     700     270.0884   -6710.2336   -6680.1048   -5412.3704    18455.831   0.62727776 
     710    274.16504    -6710.689   -6680.1055   -5445.9009    18455.831   0.63604213 
     720    276.77226   -6710.9801   -6680.1057   -5459.4182    18455.831   0.64454539 
     730    275.88502   -6710.8806   -6680.1052    -5417.932    18455.831   0.65171241 
     740    275.85971   -6710.8783   -6680.1057   -5536.9233    18455.831   0.65662341 
     750    272.97993   -6710.5569   -6680.1056   -5708.1328    18455.831    0.6598394 
     760    268.28422    -6710.033   -6680.1055   -5761.8441    18455.831   0.66298993 
     770    264.14144   -6709.5705   -6680.1051   -5775.8492    18455.831   0.66717813 
     780    263.51726    -6709.501   -6680.1053   -5700.2554    18455.831   0.67265545 
     790    266.55703   -6709.8409    -6680.106    -5605.591    18455.831   0.67864068 
     800    265.59911   -6709.7343   -6680.1063   -5512.5062    18455.831   0.68325498 
     810    257.26872   -6708.8037    -6680.105    -5609.846    18455.831   0.68551207 
     820    257.02246   -6708.7759   -6680.1047   -5957.2323    18455.831   0.68532325 
     830    268.49996   -6710.0576    -6680.106   -6395.3276    18455.831   0.68384718 
     840      275.603   -6710.8497   -6680.1057   -6790.5333    18455.831   0.68323699 
     850    277.81756   -6711.0961   -6680.1052   -7039.0507    18455.831   0.68429619 
     860    281.61629     -6711.52   -6680.1053    -7112.387    18455.831   0.68675849 
     870    285.63694   -6711.9688   -6680.1055   -6936.0551    18455.831    0.6904508 
     880    286.29079   -6712.0419   -6680.1057   -6480.6542    18455.831   0.69538495 
     890    281.96956   -6711.5596   -6680.1055   -6039.8274    18455.831   0.70113257 
     900    274.65893   -6710.7442   -6680.1055     -5564.23    18455.831   0.70667182 
     910    267.20366   -6709.9114   -6680.1045   -5257.3591    18455.831   0.71136984 
     920     269.3838   -6710.1555   -6680.1053    -5367.122    18455.831   0.71512054 
     930    273.08823   -6710.5689   -6680.1055   -5720.7294    18455.831   0.71853359 
     940    275.14424   -6710.7982   -6680.1055   -5917.6904    18455.831   0.72236347 
     950    276.67291   -6710.9689   -6680.1056   -5610.0935    18455.831   0.72713733 
     960    276.62748   -6710.9635   -6680.1053   -5046.3658    18455.831   0.73337224 
     970     278.3434   -6711.1556   -6680.1059   -4610.3497    18455.831   0.74121898 
     980    276.50421   -6710.9503   -6680.1058   -4305.2609    18455.831   0.75038076 
     990    274.46428   -6710.7216   -6680.1047   -4327.9119    18455.831   0.75935205 
    1000    282.87647   -6711.6614   -6680.1061   -4696.6429    18455.831   0.76641954 
    1010    286.63377   -6712.0812   -6680.1068   -4990.2699    18455.831   0.77271728 
    1020    279.06324   -6711.2352   -6680.1053   -4771.2676    18455.831   0.78024384 
    1030    275.82234   -6710.8738   -6680.1054    -4403.339    18455.831   0.78871428 
    1040    278.66942   -6711.1919   -6680.1059   -3941.2604    18455.831   0.79675694 
    1050    279.04998   -6711.2352   -6680.1068   -3356.1301    18455.831   0.80429238 
    1060    270.39607   -6710.2685   -6680.1054   -2836.7873    18455.831   0.81167046 
    1070    268.92869   -6710.1046   -6680.1052   -2775.6081    18455.831   0.81774479 
    1080    276.86697   -6710.9921   -6680.1072   -2982.0197    18455.831   0.82183502 
    1090    273.51021   -6710.6167   -6680.1062   -3002.8881    18455.831   0.82504043 
    1100    268.10286   -6710.0129   -6680.1056    -3041.916    18455.831   0.82859974 
    1110    268.86345   -6710.0983   -6680.1061   -3274.5241    18455.831   0.83307382 
    1120    271.12867   -6710.3511   -6680.1063   -3502.0504    18455.831   0.83788345 
    1130    271.41072   -6710.3825   -6680.1063   -3567.0764    18455.831   0.84210043 
    1140    271.86949   -6710.4327   -6680.1053   -3657.0206    18455.831   0.84510588 
    1150    281.86599   -6711.5491   -6680.1065   -4076.7437    18455.831    0.8468347 
    1160    288.73127   -6712.3154    -6680.107   -4317.2032    18455.831    0.8485126 
    1170    284.72713   -6711.8682   -6680.1065   -4221.6867    18455.831   0.85124425 
    1180    277.76624   -6711.0907   -6680.1055   -3786.2546    18455.831   0.85522238 
    1190    278.42764   -6711.1658   -6680.1068   -3453.5254    18455.831   0.86063272 
    1200    274.57485   -6710.7358   -6680.1066   -3135.4804    18455.831   0.86799772 
    1210    268.17301   -6710.0207   -6680.1056   -3061.7485    18455.831   0.87596914 
    1220    269.73514   -6710.1951   -6680.1058   -3498.6687    18455.831   0.88197829 
    1230    275.57277   -6710.8475    -6680.107   -3998.6686    18455.831   0.88464671 
    1240    273.28864   -6710.5919   -6680.1062   -4275.4959    18455.831   0.88485118 
    1250    269.21341   -6710.1371    -6680.106   -4301.1389    18455.831   0.88413656 
    1260    268.47841   -6710.0549   -6680.1057   -4311.1873    18455.831   0.88296339 
    1270    272.54156   -6710.5085   -6680.1061   -4356.8217    18455.831   0.88172746 
    1280    277.77621   -6711.0926   -6680.1063   -4588.2508    18455.831   0.88180594 
    1290    280.19269   -6711.3629    -6680.107   -4852.3632    18455.831   0.88389526 
    1300    274.38994   -6710.7142   -6680.1056   -4801.0391    18455.831   0.88737003 
    1310    272.68687   -6710.5248   -6680.1062   -4600.8128    18455.831   0.89133871 
    1320    273.33879   -6710.5972   -6680.1059   -4506.2257    18455.831   0.89528436 
    1330    275.86937     -6710.88   -6680.1064   -4590.7459    18455.831   0.89889495 
    1340    276.57557   -6710.9584    -6680.106   -4592.8619    18455.831   0.90245999 
    1350    276.61512   -6710.9634   -6680.1066   -4506.7758    18455.831   0.90646299 
    1360    272.26073   -6710.4771    -6680.106   -4467.2196    18455.831   0.91136845 
    1370    268.73878   -6710.0839   -6680.1057   -4589.1112    18455.831   0.91701889 
    1380    269.83102   -6710.2061    -6680.106   -4803.1401    18455.831   0.92344131 
    1390    271.01809   -6710.3391   -6680.1066   -4995.7936    18455.831   0.93117145 
    1400    266.53417   -6709.8383   -6680.1061   -4887.7324    18455.831   0.93925395 
    1410    264.34979   -6709.5941   -6680.1054   -4661.6641    18455.831   0.94440069 
    1420    271.24246   -6710.3639   -6680.1064   -4782.1646    18455.831   0.94464645 
    1430    278.14891   -6711.1341   -6680.1062   -5345.1098    18455.831   0.94130273 
    1440    284.26073    -6711.816   -6680.1063   -5956.3496    18455.831    0.9366539 
    1450    286.06102   -6712.0176    -6680.107   -6473.9841    18455.831   0.93338269 
    1460    278.13817   -6711.1322   -6680.1055    -6637.014    18455.831   0.93336514 
    1470    274.95588   -6710.7774   -6680.1057   -6848.7234    18455.831   0.93597431 
    1480    275.34081   -6710.8209   -6680.1062   -7017.9963    18455.831   0.93943367 
    1490    271.96867   -6710.4442   -6680.1057   -6827.7136    18455.831   0.94245071 
    1500    271.43894   -6710.3851   -6680.1057   -6399.8258    18455.831   0.94456699 
    1510    273.11981   -6710.5738   -6680.1069   -5919.9683    18455.831   0.94612167 
    1520    266.58025   -6709.8431   -6680.1057   -5429.0631    18455.831   0.94681802 
    1530    264.24493   -6709.5825   -6680.1056   -5386.7007    18455.831   0.94511663 
    1540    268.14703   -6710.0187   -6680.1065   -5636.8718    18455.831   0.94138542 
    1550    270.20911    -6710.248   -6680.1058   -5845.7424    18455.831   0.93815309 
    1560    276.27553   -6710.9252   -6680.1062   -5792.6983    18455.831   0.93754478 
    1570    281.48981   -6711.5074   -6680.1068   -5440.6487    18455.831   0.94039184 
    1580    279.21915   -6711.2534    -6680.106   -4999.2991    18455.831   0.94601391 
    1590     277.1071   -6711.0177    -6680.106   -4867.2447    18455.831   0.95254979 
    1600    278.30993   -6711.1519    -6680.106   -4854.7315    18455.831   0.95811089 
    1610    283.09805   -6711.6862   -6680.1062   -4922.4033    18455.831   0.96206314 
    1620    285.07138   -6711.9077   -6680.1076   -4696.0901    18455.831   0.96577017 
    1630    273.23535   -6710.5854   -6680.1056   -4246.7962    18455.831   0.97096923 
    1640     267.7179   -6709.9697   -6680.1053   -4035.6486    18455.831     0.977191 
    1650    272.52244   -6710.5064   -6680.1061   -4111.8074    18455.831   0.98346373 
    1660     277.8589   -6711.1018   -6680.1062   -4253.7363    18455.831   0.98934697 
    1670    281.07361    -6711.461   -6680.1068   -4561.0787    18455.831   0.99446833 
    1680    278.83973   -6711.2107   -6680.1057   -4801.2753    18455.831   0.99855733 
    1690    282.27607   -6711.5942   -6680.1059   -5070.8212    18455.831    1.0013333 
    1700    288.92729   -6712.3376   -6680.1074   -5075.7299    18455.831    1.0032748 
    1710    283.97303   -6711.7838   -6680.1062   -4524.3033    18455.831    1.0056492 
    1720    280.32496   -6711.3763   -6680.1056   -4088.2037    18455.831    1.0090707 
    1730    285.00962   -6711.9005   -6680.1072   -4166.6509    18455.831    1.0129097 
    1740    281.71349    -6711.532   -6680.1064   -4428.6075    18455.831    1.0162807 
    1750    277.27178   -6711.0355   -6680.1055   -4669.9286    18455.831    1.0185587 
    1760    282.23006   -6711.5895   -6680.1063   -4723.6015    18455.831    1.0199448 
    1770    285.90961   -6712.0006   -6680.1069   -4414.9618    18455.831      1.02094 
    1780    282.38129   -6711.6061    -6680.106   -3873.7091    18455.831    1.0213084 
    1790    282.44165    -6711.613   -6680.1062   -3619.8434    18455.831    1.0208436 
    1800    287.55602   -6712.1841   -6680.1067   -3726.4708    18455.831    1.0207901 
    1810    288.11308   -6712.2473   -6680.1079    -3934.633    18455.831    1.0230701 
    1820    276.98552   -6711.0034   -6680.1052    -4186.202    18455.831    1.0283135 
    1830    277.15263   -6711.0235   -6680.1067   -4345.9838    18455.831    1.0350393 
    1840    276.23823   -6710.9215   -6680.1067   -4368.7653    18455.831    1.0414724 
    1850    273.19513   -6710.5804   -6680.1051   -4416.5455    18455.831    1.0455768 
    1860    283.83055   -6711.7684   -6680.1067   -4696.8368    18455.831    1.0462471 
    1870    291.37755   -6712.6113   -6680.1077   -4729.2468    18455.831    1.0448258 
    1880    283.33807   -6711.7134   -6680.1066   -4658.1696    18455.831    1.0428769 
    1890    273.10669    -6710.571   -6680.1055   -4806.2478    18455.831     1.040683 
    1900    272.25017   -6710.4761   -6680.1062   -4992.1727    18455.831    1.0384095 
    1910    274.11365   -6710.6842   -6680.1065    -4851.611    18455.831    1.0367748 
    1920     274.3815    -6710.714   -6680.1064   -4374.9654    18455.831    1.0362621 
    1930    273.80361   -6710.6496   -6680.1064   -3953.3671    18455.831    1.0369737 
    1940    273.81216   -6710.6506   -6680.1064   -3660.7249    18455.831     1.038631 
    1950     274.0972   -6710.6826   -6680.1067   -3555.6748    18455.831    1.0408007 
    1960     275.1804   -6710.8028    -6680.106   -3995.0323    18455.831    1.0431217 
    1970    281.99645   -6711.5638   -6680.1067   -4818.7611    18455.831    1.0450424 
    1980     287.0536   -6712.1285   -6680.1072   -5430.2829    18455.831    1.0464652 
    1990    282.90097   -6711.6645   -6680.1064   -5324.8363    18455.831    1.0478613 
    2000    278.29624   -6711.1501   -6680.1058   -5003.2499    18455.831    1.0492005 
Loop time of 1474.79 on 16 procs for 2000 steps with 864 atoms

Performance: 0.117 ns/day, 204.833 hours/ns, 1.356 timesteps/s
97.5% CPU use with 16 MPI tasks x 1 OpenMP threads

MPI task timing breakdown:
Section |  min time  |  avg time  |  max time  |%varavg| %total
---------------------------------------------------------------
Pair    | 649.97     | 1093.1     | 1472       | 574.0 | 74.12
Bond    | 0.00018358 | 0.00072935 | 0.0017858  |   0.0 |  0.00
Neigh   | 0.019019   | 0.030692   | 0.049797   |   4.0 |  0.00
Comm    | 2.0287     | 338.9      | 781.36     | 964.4 | 22.98
Output  | 0.41749    | 23.683     | 57.703     | 445.3 |  1.61
Modify  | 0.0097053  | 0.011217   | 0.016184   |   1.8 |  0.00
Other   |            | 19.03      |            |       |  1.29

Nlocal:        54.0000 ave          86 max          35 min
Histogram: 1 1 3 7 2 1 0 0 0 1
Nghost:        537.750 ave         662 max         448 min
Histogram: 3 1 1 5 0 0 3 1 1 1
Neighs:         0.00000 ave           0 max           0 min
Histogram: 16 0 0 0 0 0 0 0 0 0
FullNghs:      2646.75 ave        5387 max        1216 min
Histogram: 2 2 3 4 3 1 0 0 0 1

Total # of neighbors = 42348
Ave neighs/atom = 49.013889
Ave special neighs/atom = 0.0000000
Neighbor list builds = 199
Dangerous builds = 198
Setting up Verlet run ...
  Unit style    : metal
  Current step  : 2000
  Time step     : 0.001
Per MPI rank memory allocation (min/avg/max) = 8.897 | 8.909 | 8.917 Mbytes
Step Temp PotEng TotEng Press Volume c_msd[4] 
    2000          825   -6711.1501   -6619.1201   -1473.7515    18455.831    1.0492005 
    2010    726.00903   -6700.0763   -6619.0889    836.24263    18455.273    1.0554212 
    2020    585.83015   -6684.2372    -6618.887    3959.7744    18455.635    1.0700195 
    2030    548.94413   -6679.6236   -6618.3881    4393.8093    18459.846    1.0834283 
    2040     530.7623   -6676.7394   -6617.5321    3824.5282    18468.547    1.0968675 
    2050    509.40014   -6673.2943   -6616.4699    3460.0296    18481.268     1.110804 
    2060    520.57402   -6673.4776   -6615.4068    2716.5847    18497.571    1.1236592 
    2070    540.26239   -6674.6932   -6614.4261    2251.9722    18516.766    1.1366414 
    2080    553.03612   -6675.1858   -6613.4938    2292.9103    18538.421    1.1503246 
    2090    556.74327   -6674.6175   -6612.5119    1908.5971    18562.494     1.163297 
    2100     576.8971   -6675.7682   -6611.4145    697.78453    18588.559    1.1748557 
    2110    611.60351   -6678.3771   -6610.1519   -881.89315    18615.371    1.1873992 
    2120    606.22813   -6676.4268   -6608.8012   -1222.9865    18641.406    1.2028674 
    2130    572.94397   -6671.3856   -6607.4729   -224.19456    18666.327    1.2190516 
    2140    575.32193   -6670.3224   -6606.1443    316.51608    18690.991    1.2331867 
    2150    574.93575   -6668.8932   -6604.7583    2.5033699    18715.947    1.2461937 
    2160    582.53923   -6668.3195   -6603.3363   -959.56512    18740.875    1.2584037 
    2170    605.39714   -6669.3817   -6601.8488   -1787.7374     18764.79    1.2705594 
    2180    607.34031   -6668.0792   -6600.3295   -1797.4758    18786.871    1.2839312 
    2190    600.92372   -6665.8593   -6598.8253   -1510.4369    18807.055    1.2973647 
    2200    610.96893    -6665.462   -6597.3075   -1547.4863    18825.586    1.3093103 
    2210    621.54085   -6665.0824   -6595.7486   -1946.0969    18842.415    1.3197286 
    2220    620.54746   -6663.3987   -6594.1757   -2155.2163    18857.168    1.3285418 
    2230    621.03541   -6661.8821   -6592.6047   -2509.8639    18869.564    1.3349001 
    2240    630.68727   -6661.3685   -6591.0144   -2988.1002    18879.244    1.3386274 
    2250    639.69115    -6660.766   -6589.4075   -3295.6474    18885.708    1.3411988 
    2260    649.66924   -6660.2646    -6587.793    -3118.744    18888.631    1.3440849 
    2270    655.62549   -6659.3141   -6586.1781   -2273.7157    18888.245    1.3488733 
    2280    662.02763   -6658.4127   -6584.5625   -1422.3476    18885.385    1.3553386 
    2290    659.39198   -6656.5005   -6582.9443   -485.14651    18881.008    1.3601224 
    2300    682.51152   -6657.4485   -6581.3133   -455.98401    18876.012    1.3605412 
    2310    706.20357    -6658.424    -6579.646   -551.22917    18870.537    1.3585568 
    2320    723.92397   -6658.7455   -6577.9907   -756.76011    18864.456    1.3568352 
    2330    724.18233    -6657.156   -6576.3724   -797.80423    18857.565    1.3574696 
    2340    703.68379   -6653.3071   -6574.8101   -384.28143    18849.863    1.3611985 
    2350    713.43191   -6652.8465   -6573.2621   -807.36667    18841.653    1.3662782 
    2360    734.67193   -6653.6349   -6571.6812   -1377.7827    18832.555    1.3715795 
    2370    731.22149   -6651.6757   -6570.1068   -751.55605    18822.085    1.3766014 
    2380    729.64226   -6649.9571   -6568.5644   -100.49226    18810.773     1.379715 
    2390    735.53381   -6649.0661   -6567.0162    341.79971    18799.327    1.3811026 
    2400    739.72682   -6647.9804   -6565.4628    721.56006     18788.23    1.3821673 
    2410    749.28211   -6647.4916   -6563.9081    1210.1949    18777.919    1.3832263 
    2420    768.87503   -6648.1257   -6562.3565    1376.5561    18768.866    1.3847941 
    2430     770.1436   -6646.7449   -6560.8342     1424.108    18761.288     1.389248 
    2440    783.45523   -6646.7484   -6559.3528    1287.5025    18755.215    1.3966669 
    2450     800.2925   -6647.1596   -6557.8858    1195.6644    18750.526    1.4064247 
    2460    815.89598   -6647.4834   -6556.4689    626.32281    18747.058    1.4169888 
    2470    829.95502   -6647.7069   -6555.1242    263.74211    18744.275    1.4279698 
    2480    811.10012   -6644.3522   -6553.8728    1188.3308    18741.907    1.4404639 
    2490    805.99675   -6642.6102   -6552.7001    2551.5365    18740.852    1.4527071 
    2500    795.16607   -6640.2546   -6551.5526    3853.2175    18742.534    1.4642641 
    2510    795.14217   -6639.1301   -6550.4308    4041.5133    18748.241    1.4757396 
    2520    823.55436   -6641.1668   -6549.2981    2898.2333    18758.161    1.4895592 
    2530    840.14471   -6641.9026   -6548.1832    1763.1657    18771.219    1.5097375 
    2540    832.15197   -6639.9645   -6547.1367    1493.5014    18786.294    1.5357759 
    2550    827.39668    -6638.462   -6546.1646    1701.2119    18803.054     1.561482 
    2560    847.26932   -6639.7431   -6545.2289    1135.0457    18821.595    1.5820567 
    2570      855.049   -6639.7262   -6544.3442     952.6768    18841.456    1.6014413 
    2580    843.41432   -6637.6356   -6543.5515    1178.6418    18862.428    1.6231211 
    2590    844.65039   -6637.0597   -6542.8377    795.72726    18884.654    1.6452178 
    2600    845.35507   -6636.4683   -6542.1677    511.39382    18907.803    1.6654989 
    2610    839.00751    -6635.153   -6541.5605    832.39906    18931.628    1.6832321 
    2620    826.85666   -6633.2357   -6540.9986    689.07168    18956.356    1.7000077 
    2630    818.96313   -6631.8025   -6540.4459    82.062397    18981.823    1.7178137 
    2640    817.65937   -6631.0893   -6539.8781   -292.73545    19007.436    1.7394746 
    2650    823.22437   -6631.1253   -6539.2934   -491.25612     19032.77    1.7653671 
    2660    838.11406   -6632.1955   -6538.7026   -737.12619    19057.574    1.7928724 
    2670    845.66366   -6632.4683   -6538.1333   -779.91194     19081.59    1.8204718 
    2680    854.47192   -6632.9337   -6537.6161   -622.49058    19104.758    1.8476692 
    2690    849.49399   -6631.9267   -6537.1644   -564.51966    19127.209    1.8762756 
    2700    835.52291   -6629.9768    -6536.773   -783.14397    19149.009    1.9069532 
    2710    830.58167   -6629.0658   -6536.4131   -1387.6971    19169.884    1.9367123 
    2720    811.78466   -6626.6142   -6536.0584   -1788.0334    19189.222    1.9629087 
    2730     800.2698   -6624.9527   -6535.6814    -2147.657    19206.565    1.9828366 
    2740    806.24882   -6625.1964   -6535.2581   -2754.6158    19221.462    1.9983725 
    2750    807.12594    -6624.827   -6534.7909    -2867.307    19233.293    2.0159239 
    2760    811.51472    -6624.819   -6534.2934   -2482.9399    19241.949    2.0361262 
    2770    835.61486   -6626.9882   -6533.7741   -2655.1637    19247.733    2.0554719 
    2780    837.88523   -6626.7302   -6533.2628   -2298.9446    19250.582    2.0751203 
    2790    831.08054   -6625.5005   -6532.7922   -1973.9439     19250.83    2.0961654 
    2800     825.4056   -6624.4181   -6532.3429   -1756.8821    19248.851    2.1140972 
    2810    802.19879   -6621.3788   -6531.8923   -1333.5448    19244.929    2.1257333 
    2820    820.95033   -6622.9909   -6531.4126   -1247.4347    19239.492    2.1304022 
    2830    849.96662   -6625.7271   -6530.9121   -1272.1081    19232.639    2.1315653 
    2840    858.59131   -6626.2313   -6530.4542   -926.82971      19224.4      2.13442 
    2850    868.97942   -6627.0101   -6530.0741   -688.03313    19215.122    2.1404093 
    2860    892.88123   -6629.4046   -6529.8024   -1024.4983    19204.995    2.1492492 
    2870    890.71405   -6629.0467   -6529.6862   -973.99498     19193.76    2.1613725 
    2880     857.7863   -6625.4007   -6529.7133   -637.11193    19181.471    2.1774566 
    2890    833.63132   -6622.8193   -6529.8264   -613.98971     19168.43     2.197366 
    2900    810.28108   -6620.3417   -6529.9536   -336.05988    19154.746     2.218808 
    2910    810.02576   -6620.4189   -6530.0593   -63.721785    19140.664    2.2390488 
    2920    807.44633   -6620.1847   -6530.1128     680.5898    19126.555    2.2605499 
    2930     829.6983   -6622.6865   -6530.1324    1090.5011    19113.149    2.2847609 
    2940    836.33012   -6623.4409    -6530.147    1280.7697    19100.919    2.3120029 
    2950    833.67327   -6623.1823   -6530.1847    1391.4498    19090.092     2.339704 
    2960    863.48257   -6626.5862   -6530.2634     1131.729    19080.755    2.3654537 
    2970    871.93195    -6627.693   -6530.4277    1234.6205      19072.7    2.3908772 
    2980    852.43195   -6625.7798   -6530.6898    1492.8116    19066.021    2.4122713 
    2990    848.52492    -6625.677   -6531.0228    1552.3912    19060.978    2.4259409 
    3000    848.66721   -6626.0827   -6531.4126    1848.4394    19057.679    2.4354269 
    3010    842.03813   -6625.7878   -6531.8571     2143.407    19056.407    2.4464638 
    3020    835.87265   -6625.5861   -6532.3432    2349.4831    19057.504    2.4627971 
    3030    829.59232   -6625.3946   -6532.8524    2246.2306    19061.202    2.4862854 
    3040    830.18971   -6625.9873   -6533.3784    1287.6691    19067.314    2.5142793 
    3050    827.15004   -6626.1782   -6533.9083    326.92232    19074.871    2.5430313 
    3060    826.11825   -6626.5792   -6534.4244      15.8725    19082.878    2.5709573 
    3070    830.47755   -6627.5762   -6534.9351    438.93492    19091.022    2.5967212 
    3080    824.16513   -6627.3867   -6535.4498    1411.9549    19099.766    2.6198745 
    3090     815.0289   -6626.8823   -6535.9646    2356.5124    19110.118    2.6417694 
    3100    796.15466    -6625.263   -6536.4507    2899.0285    19123.107    2.6665237 
    3110    782.67316   -6624.1841   -6536.8757    2224.6784    19139.265    2.6926497 
    3120    776.63894   -6623.8256   -6537.1903     581.6435    19157.898    2.7150111 
    3130    793.29368   -6625.8848   -6537.3917   -1223.2041    19177.261    2.7317054 
    3140    793.26889   -6625.9941   -6537.5038   -1964.5812    19195.459    2.7463215 
    3150    793.67369    -6626.084   -6537.5485   -2065.1682     19211.58    2.7597546 
    3160    806.58148   -6627.5125   -6537.5371   -2200.5646    19225.445    2.7734624 
    3170      809.241   -6627.7532   -6537.4811   -2362.9089    19236.899    2.7925937 
    3180    810.25669   -6627.7819   -6537.3965   -2501.3125    19245.733    2.8168455 
    3190    796.68253   -6626.1447   -6537.2735   -2006.3116    19251.859    2.8412897 
    3200    800.28013   -6626.3753   -6537.1029   -1809.0371      19255.7    2.8600309 
    3210    804.04144    -6626.567   -6536.8749   -1702.6571     19257.51     2.872378 
    3220    789.46403   -6624.6613   -6536.5954   -1493.4677     19257.42    2.8804911 
    3230     781.3353   -6623.4103   -6536.2512   -1388.7688    19255.621    2.8867196 
    3240     773.9932   -6622.1563   -6535.8162   -1470.0729    19252.221     2.893695 
    3250    786.45829   -6623.0164   -6535.2858   -1661.7434    19247.134    2.9022039 
    3260    811.28984   -6625.1704   -6534.6698   -1442.3251    19240.172    2.9122449 
    3270    820.53814   -6625.5476   -6534.0153   -309.23579    19231.639    2.9243674 
    3280    815.84307     -6624.36   -6533.3515    779.54619    19222.709    2.9375148 
    3290    825.97493   -6624.8272   -6532.6885    1208.6217    19214.528    2.9484606 
    3300    818.80334   -6623.3646   -6532.0259    1806.9119     19207.69     2.956268 
    3310    822.02734   -6623.0712   -6531.3728    2060.1134    19202.807    2.9615669 
    3320    837.52791   -6624.1543   -6530.7268    1533.4855    19200.131    2.9676216 
    3330    843.11798   -6624.1627   -6530.1116    819.63727    19199.172     2.977594 
    3340    848.80713   -6624.2351   -6529.5493    28.906836     19199.14    2.9922058 
    3350    847.57428   -6623.5919   -6529.0438   -779.08049    19199.151    3.0116752 
    3360    853.86579   -6623.8509   -6528.6009   -1167.4713    19198.332    3.0327571 
    3370    856.98791   -6623.8227   -6528.2244   -736.54443    19196.285    3.0533368 
    3380    850.80579    -6622.827   -6527.9184   -96.838515    19193.405    3.0722014 
    3390    848.09404   -6622.2816   -6527.6754     406.1576    19190.382    3.0868939 
    3400    846.80652   -6621.9459   -6527.4833    413.40184    19187.737    3.0964044 
    3410    850.43084   -6622.2103   -6527.3434    413.13699    19185.507     3.099985 
    3420    852.38911   -6622.3395   -6527.2542    840.51555    19183.767    3.1002635 
    3430    855.25284   -6622.6349   -6527.2302    696.21318    19182.895    3.1028337 
    3440    852.15035   -6622.3385   -6527.2799    296.59227    19182.776    3.1147256 
    3450    845.00898    -6621.655    -6527.393    393.39317     19183.05    3.1408547 
    3460    830.97534   -6620.2452   -6527.5487    837.04112    19183.812    3.1776905 
    3470    823.71248   -6619.6073   -6527.7209    1219.8876    19185.552    3.2142296 
    3480    821.72981   -6619.5601   -6527.8949     1230.894    19188.664    3.2409238 
    3490    829.19154   -6620.5669   -6528.0694    1038.7545     19193.19    3.2553423 
    3500    847.82192   -6622.8368    -6528.261    865.92313    19198.962    3.2598292 
    3510    858.08372   -6624.2239   -6528.5033    686.34164    19205.822    3.2595648 
    3520    839.11034   -6622.4092   -6528.8052    439.75219    19213.584    3.2612223 
    3530    837.11081   -6622.5289   -6529.1479   -35.893601    19221.971     3.266547 
    3540    842.19091   -6623.4694   -6529.5217   -593.92654    19230.479    3.2750051 
    3550     825.9643    -6622.057   -6529.9194   -513.73586    19238.544    3.2896707 
    3560     819.8762   -6621.7817   -6530.3233   -191.87994    19246.191    3.3078089 
    3570    821.58903   -6622.3693   -6530.7198   -19.464615    19253.756    3.3245973 
    3580     817.2694   -6622.2765   -6531.1089    233.90329    19261.453    3.3400185 
    3590     808.6605   -6621.6831   -6531.4758    692.45872    19269.599    3.3534101 
    3600    816.48127   -6622.8792   -6531.7994     319.0097      19278.6    3.3632757 
    3610    838.04511   -6625.5808   -6532.0956   -632.15144    19288.099    3.3697647 
    3620    856.55503   -6627.9706   -6532.4206    -1719.021    19297.061    3.3739873 
    3630     846.3131   -6627.2214   -6532.8139   -2264.4067    19304.294    3.3748601 
    3640    831.20674    -6625.974   -6533.2516   -2162.4087     19309.15    3.3754335 
    3650    828.58474   -6626.1435   -6533.7137   -1680.1419    19311.659    3.3830051 
    3660    805.42933   -6624.0072   -6534.1604   -825.92937     19312.33    3.3987846 
    3670    809.65158   -6624.8882   -6534.5704   -498.04334    19312.008    3.4182343 
    3680    807.65226   -6625.0295   -6534.9346    -122.2665    19311.147    3.4365782 
    3690    821.21957   -6626.8776   -6535.2693   -326.44408    19310.054    3.4506767 
    3700    833.53141   -6628.5865   -6535.6048   -583.99232    19308.549     3.462114 
    3710    821.43147   -6627.5844   -6535.9525    -232.5001    19306.402    3.4743699 
    3720    790.27809   -6624.4281   -6536.2713    501.94391    19303.998    3.4889579 
    3730    778.43226   -6623.3551   -6536.5198    969.99106    19302.102    3.5042661 
    3740    793.22663   -6625.1674   -6536.6817    648.73597    19301.207     3.518992 
    3750    813.31577   -6627.5118   -6536.7852   -65.996847    19301.007    3.5369074 
    3760    814.00871   -6627.6595   -6536.8557   -492.64909    19300.771    3.5620182 
    3770      810.852   -6627.3608    -6536.909   -331.11602    19300.018    3.5915843 
    3780    809.00697   -6627.1758   -6536.9299    217.47861    19298.912    3.6208089 
    3790    821.47116   -6628.5672   -6536.9309    267.76107    19297.962    3.6490212 
    3800    796.19201   -6625.7206   -6536.9042    224.85008    19297.303    3.6750771 
    3810    796.97862   -6625.7377   -6536.8336   -484.47817    19296.809    3.6952307 
    3820    803.42813   -6626.3235   -6536.6998   -872.79493    19295.777    3.7104437 
    3830    799.21435   -6625.6672   -6536.5136   -257.27309    19293.828     3.723923 
    3840    803.39777   -6625.8951   -6536.2749     353.6409    19291.524    3.7388559 
    3850    814.08829   -6626.7994   -6535.9867    36.374645     19289.46    3.7572573 
    3860    821.33682   -6627.2865   -6535.6651   -600.25109     19287.37    3.7771743 
    3870    811.71908   -6625.8779   -6535.3294    -860.1715    19284.592    3.7929289 
    3880    802.20062   -6624.4612   -6534.9745   -690.59299    19280.805    3.8008739 
    3890    812.38278   -6625.1989   -6534.5764   -487.89984    19276.135    3.8098921 
    3900    826.68399   -6626.3495   -6534.1317   -282.17766    19270.801    3.8283072 
    3910    824.81299   -6625.6776   -6533.6685   -175.55825    19265.025    3.8549092 
    3920    836.84488   -6626.5613     -6533.21   -703.36523    19258.841     3.886296 
    3930     839.4437   -6626.4247   -6532.7835   -890.47381    19251.752    3.9217725 
    3940    813.01373   -6623.0834   -6532.3905   -480.98784    19243.557    3.9587665 
    3950    803.55376   -6621.6232   -6531.9856   -88.512694    19234.635     3.996262 
    3960    819.82384    -6622.978   -6531.5254    181.94343    19225.409    4.0372469 
    3970    818.04018    -6622.282   -6531.0284    486.88908    19216.223    4.0770675 
    3980    829.00393   -6623.0119   -6530.5353    407.22441    19207.368     4.110666 
    3990    840.09701   -6623.7747   -6530.0606     754.1426    19198.875    4.1427422 
    4000    856.14593   -6625.1364    -6529.632    1291.6673    19191.103    4.1777583 
    4010    847.77719   -6623.8281   -6529.2573    2365.1258    19184.734    4.2176043 
    4020    844.83457   -6623.1895    -6528.947    2883.8919    19180.874     4.264364 
    4030    851.43375   -6623.6636   -6528.6849      2669.33    19180.149     4.317607 
    4040    840.69226   -6622.2595   -6528.4791    2458.4691    19182.416    4.3727134 
    4050    827.66228   -6620.6344   -6528.3074    2158.2159    19187.484    4.4243622 
    4060    836.86314   -6621.5022   -6528.1489    1359.2378    19195.005    4.4704523 
    4070    849.98065    -6622.828   -6528.0114    337.67417    19204.137    4.5135616 
    4080    832.33674   -6620.7497   -6527.9013   -34.722931    19213.842    4.5546726 
    4090    821.14669   -6619.4049   -6527.8048     321.7887    19223.705    4.5936395 
    4100    829.54467   -6620.2414   -6527.7045    666.05769    19234.039    4.6390374 
    4110    833.51836   -6620.6095   -6527.6293    850.95205    19245.202    4.6988106 
    4120    810.01353   -6617.9274   -6527.5692    1085.4286    19257.459    4.7697345 
    4130    814.16241   -6618.3269   -6527.5058    947.71957    19271.009    4.8416902 
    4140    812.49128   -6618.0443   -6527.4097    1138.3974    19285.809    4.9121933 
    4150      818.694   -6618.6068   -6527.2803    503.00012     19301.95    4.9759223 
    4160    830.27181   -6619.7379   -6527.1198   -490.59277    19318.778    5.0301671 
    4170    830.26321   -6619.5732   -6526.9561   -658.46826    19335.287    5.0788568 
    4180    816.05016   -6617.8222   -6526.7906   -409.53057    19351.211    5.1276684 
    4190    817.25862   -6617.7818   -6526.6154   -69.288249    19366.774    5.1808617 
    4200    806.70541   -6616.3984   -6526.4092    609.91553    19382.418    5.2425444 
    4210    810.07332   -6616.5232   -6526.1583    47.298547    19398.737    5.3106993 
    4220    845.30235    -6620.156   -6525.8612    -1288.177    19415.146    5.3805651 
    4230    853.09104   -6620.7393   -6525.5757   -2035.0373     19430.24     5.447167 
    4240    825.41747   -6617.4127   -6525.3361   -1983.1364    19443.176    5.5016623 
    4250    826.93271    -6617.362   -6525.1164   -1711.7735    19453.914    5.5422089 
    4260    831.65464   -6617.6712   -6524.8989   -878.49317    19462.784    5.5754603 
    4270    830.40306   -6617.3258    -6524.693   -125.97788    19470.681    5.6078056 
    4280    842.55371   -6618.4755   -6524.4874   -203.22399    19478.394    5.6418237 
    4290    850.38035   -6619.1603   -6524.2991   -359.87767     19485.91    5.6784949 
    4300    838.92275   -6617.7298   -6524.1467   -383.41882    19493.078    5.7174517 
    4310    827.11871   -6616.2881   -6524.0218   -629.11561    19499.808    5.7549842 
    4320    817.40312   -6615.0772   -6523.8947   -623.22894    19505.884    5.7865131 
    4330    837.80418   -6617.2132   -6523.7549   -1122.0311    19511.211    5.8115292 
    4340    841.04066    -6617.439   -6523.6197   -1704.6451    19515.259     5.833223 
    4350    827.35334    -6615.802   -6523.5095   -1856.3881    19517.419    5.8521302 
    4360     838.5312     -6616.95   -6523.4106   -1870.6141    19517.439    5.8674838 
    4370    836.37102   -6616.6254   -6523.3269   -1043.3229    19515.387    5.8825312 
    4380    836.88357   -6616.6208   -6523.2652    -958.4142    19512.025    5.8991703 
    4390    864.54939   -6619.6862   -6523.2444   -1792.4126    19507.437    5.9184466 
    4400    857.46779   -6618.9566   -6523.3048   -1878.2855     19500.85    5.9378877 
    4410    831.88351   -6616.2426   -6523.4447   -1434.5789    19492.122    5.9546897 
    4420     843.8712   -6617.7721    -6523.637   -1504.8668    19481.643    5.9653277 
    4430    855.61399   -6619.3436   -6523.8985   -1740.1955    19469.367    5.9670669 
    4440    863.92981   -6620.6455   -6524.2729   -1543.5619     19455.08    5.9584293 
    4450    853.17214   -6619.9501   -6524.7775   -832.00734    19438.998    5.9432413 
    4460    817.84588   -6616.5811   -6525.3492   -65.204533    19421.914    5.9284037 
    4470    818.52202   -6617.2616   -6525.9542   -128.54401    19404.618    5.9151416 
    4480    808.55297   -6616.7633    -6526.568    -257.7804     19387.13    5.9063895 
    4490    817.27047   -6618.3552   -6527.1874    79.696582    19369.361    5.9020949 
    4500     820.7182   -6619.3409   -6527.7886    817.91973    19351.708     5.896988 
    4510    843.50123   -6622.4869    -6528.393    952.75158    19334.895    5.8892631 
    4520    852.52071   -6624.1435   -6529.0435    1163.4823    19319.181    5.8832998 
    4530    835.53619   -6622.9297   -6529.7244    1025.2524    19304.741      5.88387 
    4540    812.62664   -6621.0261   -6530.3764    503.56146    19291.404    5.8922326 
    4550    800.01959   -6620.1781   -6530.9347    579.03389    19278.692    5.9034426 
    4560    818.03865   -6622.6552   -6531.4018    829.51479    19266.635    5.9073959 
    4570    826.62238   -6624.0146   -6531.8037    1058.8577    19255.509    5.8971787 
    4580     825.0456   -6624.1978   -6532.1627     1028.355    19245.554     5.878932 
    4590    825.39636   -6624.5624   -6532.4882      984.783    19236.772    5.8656308 
    4600    836.66411   -6626.1227   -6532.7915     937.6313     19229.09    5.8609837 
    4610    835.86066   -6626.3284   -6533.0869    1108.1476    19222.492    5.8665163 
    4620    834.53562   -6626.4631   -6533.3694    917.26227    19217.132    5.8772756 
    4630    856.83022   -6629.2515   -6533.6708    226.34884    19212.751    5.8898373 
    4640    840.75046   -6627.7953   -6534.0083    428.31623    19208.734    5.9077816 
    4650    826.73666   -6626.5861   -6534.3624    271.25025    19205.158    5.9278688 
    4660    807.91978    -6624.804   -6534.6794    37.963726    19201.906    5.9443658 
    4670    815.21086   -6625.8777   -6534.9397   -412.70125    19198.679    5.9524866 
    4680    819.06688   -6626.5106   -6535.1425   -411.00122    19195.044    5.9509432 
    4690    807.75162   -6625.3963   -6535.2904    270.22121    19191.046    5.9431662 
    4700    830.20867   -6628.0262   -6535.4152    161.66308    19187.271    5.9327234 
    4710    816.66237   -6626.6287   -6535.5288    457.75107     19183.75    5.9220691 
    4720    806.26971    -6625.555   -6535.6144    1216.0325    19180.822    5.9163354 
    4730    804.00677   -6625.3294   -6535.6412    1715.1749    19179.249    5.9244755 
    4740    810.92802   -6626.1003     -6535.64    1992.7424    19179.587       5.9489 
    4750    805.03756   -6625.4046   -6535.6014    1826.4184    19182.106    5.9825629 
    4760    815.33707    -6626.484   -6535.5319    760.10074    19186.538    6.0154218 
    4770    805.86589   -6625.3291   -6535.4335    547.21373    19191.888    6.0402751 
    4780    796.39197   -6624.1427    -6535.304    1043.8134    19197.888    6.0562129 
    4790    802.89677   -6624.6749   -6535.1106    906.14238    19204.954    6.0690264 
    4800    825.23433   -6626.9223   -6534.8662    234.34256    19212.926    6.0819369 
    4810    849.66455   -6629.3873   -6534.6059   -514.01061    19221.084    6.0946448 
    4820    839.64645    -6628.044   -6534.3802   -401.21638    19228.688    6.1085742 
    4830    813.72319   -6624.9563   -6534.1843    314.41834    19235.822    6.1230617 
    4840     827.8459   -6626.3252   -6533.9777    507.72982    19243.175    6.1392287 
    4850    840.81882   -6627.5414   -6533.7468     275.3504    19250.997     6.161273 
    4860      832.515   -6626.3906   -6533.5223    58.784307    19259.068    6.1858892 
    4870    802.24669   -6622.7687   -6533.2769   -137.11451    19267.151     6.204181 
    4880    779.95326   -6619.9702   -6532.9652    -681.2625    19274.971    6.2141333 
    4890    778.76045   -6619.3847   -6532.5128   -1256.6143    19281.958    6.2204477 
    4900    791.88219   -6620.2067    -6531.871   -1900.1414    19287.464     6.228452 
    4910     807.3153    -6621.083   -6531.0257   -2280.8272    19290.819    6.2418905 
    4920    809.92819   -6620.3564   -6530.0077   -1994.7483    19291.648    6.2601027 
    4930    826.91723    -6621.126   -6528.8822   -2004.0536    19290.185    6.2822516 
    4940    836.13426    -6621.029   -6527.7569   -2034.0593    19286.479    6.3080985 
    4950    842.82351   -6620.7858   -6526.7676   -1782.5062    19280.537    6.3329673 
    4960    838.48775    -6619.509   -6525.9744   -1100.7427    19272.679    6.3510276 
    4970    836.15064     -6618.65   -6525.3762   -491.16084    19263.649    6.3601306 
    4980    854.48162   -6620.2507    -6524.932   -439.05559    19254.082    6.3678219 
    4990    864.95087   -6621.1216   -6524.6351   -418.16774    19244.081    6.3854102 
    5000    852.73055   -6619.5958   -6524.4724    191.83291    19233.766    6.4139419 
Loop time of 2388.76 on 16 procs for 3000 steps with 864 atoms

Performance: 0.109 ns/day, 221.181 hours/ns, 1.256 timesteps/s
97.8% CPU use with 16 MPI tasks x 1 OpenMP threads

MPI task timing breakdown:
Section |  min time  |  avg time  |  max time  |%varavg| %total
---------------------------------------------------------------
Pair    | 1600.8     | 2071.9     | 2325.7     | 482.6 | 86.74
Bond    | 0.00031447 | 0.0011567  | 0.0027807  |   1.7 |  0.00
Neigh   | 0.034524   | 0.044587   | 0.05552    |   3.2 |  0.00
Comm    | 43.807     | 252.18     | 755.22     |1350.9 | 10.56
Output  | 0.17657    | 0.17927    | 0.21853    |   2.4 |  0.01
Modify  | 3.612      | 64.386     | 128.85     | 630.3 |  2.70
Other   |            | 0.01636    |            |       |  0.00

Nlocal:        54.0000 ave          65 max          43 min
Histogram: 2 0 2 1 4 2 1 1 1 2
Nghost:        513.250 ave         575 max         489 min
Histogram: 5 5 0 3 1 0 0 0 1 1
Neighs:         0.00000 ave           0 max           0 min
Histogram: 16 0 0 0 0 0 0 0 0 0
FullNghs:      2441.88 ave        3167 max        1672 min
Histogram: 2 0 2 4 1 1 0 2 1 3

Total # of neighbors = 39070
Ave neighs/atom = 45.219907
Ave special neighs/atom = 0.0000000
Neighbor list builds = 300
Dangerous builds = 300
Setting up Verlet run ...
  Unit style    : metal
  Current step  : 5000
  Time step     : 0.001
Per MPI rank memory allocation (min/avg/max) = 8.902 | 8.910 | 8.917 Mbytes
Step Temp PotEng TotEng Press Volume c_msd[4] 
    5000    852.73055   -6619.5958   -6524.4724    191.83291    19233.766    6.4139419 
    5010    826.85581   -6616.7256   -6524.4886    650.51753    19234.004    6.4488212 
    5020    836.70934   -6617.8617   -6524.5255    20.558877    19234.876    6.4715605 
    5030    852.98006   -6619.7405   -6524.5893   -978.27854    19235.741    6.4835046 
    5040    854.16568   -6620.0048   -6524.7213   -1374.3436     19235.56    6.4940073 
    5050    840.37079   -6618.6684   -6524.9238   -898.02725    19233.919    6.5117041 
    5060    823.55203   -6617.0384   -6525.1699   -210.65763    19231.295    6.5397097 
    5070    816.30178   -6616.4849   -6525.4252    284.43653    19228.421     6.570384 
    5080      817.725   -6616.8942   -6525.6758    506.41002    19225.844    6.5917188 
    5090    835.30056   -6619.1224   -6525.9434    504.67353    19223.819    6.5971926 
    5100    830.96913   -6618.9398   -6526.2439    506.76714    19222.376    6.5920825 
    5110    819.99301   -6618.0463   -6526.5749    117.75591    19221.463    6.5839949 
    5120     817.8371   -6618.1623   -6526.9313   -414.16831    19220.676    6.5798879 
    5130    816.85081   -6618.4351   -6527.3142   -599.92307     19219.45    6.5845476 
    5140    813.06407   -6618.4234   -6527.7249   -460.36147    19217.563    6.5960154 
    5150    806.30931   -6618.1037   -6528.1586   -268.15172    19215.169    6.6112901 
    5160    811.19976   -6619.1024   -6528.6119   -330.43974    19212.456    6.6293255 
    5170    823.34529   -6620.9523   -6529.1069   -686.37599    19209.334    6.6476033 
    5180    811.44887   -6620.1753   -6529.6569    -579.7035    19205.477    6.6658756 
    5190    792.22089   -6618.5945   -6530.2211   -177.01981    19200.985    6.6865061 
    5200    799.48056    -6619.962   -6530.7788   -87.528233    19196.244    6.7087243 
    5210    816.88588   -6622.4759   -6531.3511   -153.35427    19191.369    6.7297313 
    5220    806.50819   -6621.9125   -6531.9453     281.3462    19186.365    6.7495462 
    5230    797.12076   -6621.4418   -6532.5218     301.8597    19181.623    6.7689574 
    5240    807.63452   -6623.1619    -6533.069   -493.35814    19177.113    6.7860666 
    5250    799.84306     -6622.81   -6533.5863   -842.14074    19172.089    6.7996096 
    5260    794.35793   -6622.6764   -6534.0646   -687.40906    19166.163    6.8064263 
    5270    801.94948   -6623.9594   -6534.5007   -743.94549    19159.428    6.8047409 
    5280    791.00393   -6623.1181   -6534.8805   -909.33896    19151.835    6.7971236 
    5290    798.88956   -6624.3276   -6535.2102    -1189.093    19143.173    6.7877197 
    5300    796.62467   -6624.3532   -6535.4885   -604.11194    19133.256    6.7828585 
    5310    801.01402   -6625.0676   -6535.7133   -99.860198    19122.624    6.7856028 
    5320     801.2478   -6625.2699   -6535.8895   -318.30943    19111.763     6.791968 
    5330     782.3057   -6623.2732   -6536.0058    28.219194    19100.573    6.7933035 
    5340    787.45974   -6623.8813    -6536.039    779.46042    19089.425     6.784426 
    5350    809.04602   -6626.2453    -6535.995    1504.2706    19079.104    6.7715665 
    5360    820.85461    -6627.473   -6535.9054    2050.8376    19070.403    6.7644041 
    5370    832.25409   -6628.6376   -6535.7984    1859.8582    19063.872    6.7642324 
    5380    841.48786   -6629.5682   -6535.6989    1504.7264    19059.352    6.7690643 
    5390     828.2263   -6628.0002   -6535.6103    1769.0585    19056.557    6.7781975 
    5400    812.76946   -6626.1863   -6535.5207    1937.8346    19055.691    6.7875708 
    5410    803.85473   -6625.0539   -6535.3827    2022.7503    19056.972    6.7865886 
    5420    816.61249   -6626.2589   -6535.1645     1716.165    19060.474    6.7726663 
    5430    830.03729   -6627.4583   -6534.8664    1557.9845    19065.924    6.7594801 
    5440    818.04473   -6625.7538   -6534.4997    1582.3214    19073.168    6.7627234 
    5450     827.4141   -6626.3591   -6534.0598    1322.0773    19082.204    6.7910071 
    5460    852.76337   -6628.6785   -6533.5515    1376.6499    19092.802    6.8328145 
    5470    834.57734   -6626.1229   -6533.0246    2546.3463    19105.141     6.871257 
    5480     843.6818   -6626.6357   -6532.5217    2758.9843    19120.297    6.9029899 
    5490    862.07349   -6628.1799   -6532.0143    1880.9517    19138.573    6.9337277 
    5500    853.20007   -6626.7237   -6531.5479      785.339     19159.09    6.9701056 
    5510    833.57796   -6624.1152   -6531.1283    610.00897    19180.765    7.0139708 
    5520    842.98414    -6624.778   -6530.7418    1137.1972    19203.381    7.0646131 
    5530    840.88395   -6624.1945   -6530.3926    2105.6802    19227.519    7.1184063 
    5540    826.62433   -6622.3025   -6530.0913    2623.0426    19254.183     7.166446 
    5550    812.80337   -6620.4744    -6529.805    2419.4088    19283.987    7.2058018 
    5560    818.53625   -6620.8019    -6529.493    1303.4121    19316.694    7.2400788 
    5570    822.48493   -6620.8789   -6529.1294    129.86298    19351.143    7.2755348 
    5580    836.80415   -6622.0868     -6528.74   -734.56927    19386.003    7.3156184 
    5590    838.56009   -6621.8954   -6528.3527   -1272.7589    19420.272     7.360221 
    5600    828.05101    -6620.351   -6527.9806   -1387.8816    19453.319    7.4011236 
    5610    833.30751   -6620.5774   -6527.6207   -1178.7684     19484.94    7.4303779 
    5620    843.28079   -6621.3502    -6527.281   -1068.9692    19515.316    7.4528531 
    5630    838.93162   -6620.5675   -6526.9834   -889.50306    19544.587    7.4773081 
    5640    813.29976   -6617.4412   -6526.7164    -693.5754    19572.941    7.5090452 
    5650    807.85518    -6616.544   -6526.4265   -1222.8234    19600.484    7.5506261 
    5660    812.19927   -6616.6894   -6526.0874   -1683.6889    19626.669    7.6015947 
    5670    834.34594   -6618.7783   -6525.7057   -2102.7517    19650.924    7.6539501 
    5680    846.84636   -6619.7882   -6525.3212   -2339.9276    19672.775    7.6989835 
    5690    831.92205    -6617.777   -6524.9749   -2256.3519    19691.939    7.7333737 
    5700    822.29888   -6616.3784   -6524.6497   -1859.7764    19708.514    7.7566435 
    5710    827.17225   -6616.5937   -6524.3214   -1457.0703    19722.927    7.7687312 
    5720    844.21527   -6618.1563   -6523.9828   -2241.3852      19735.5    7.7709652 
    5730     872.4216   -6620.9847   -6523.6647   -3398.5957     19745.41    7.7728214 
    5740    873.87393   -6620.9175   -6523.4355   -3812.0856    19751.379    7.7823369 
    5750    863.66878   -6619.6688   -6523.3252   -3771.4333    19752.874     7.792466 
    5760     865.8361    -6619.904   -6523.3187   -3753.3176    19749.872      7.79912 
    5770    865.53434   -6619.9731   -6523.4214   -3232.6017    19742.468    7.8097447 
    5780     844.4163   -6617.8202   -6523.6243   -2529.5768    19731.236    7.8249967 
    5790     834.8366   -6617.0274   -6523.9001   -1735.8052    19717.007    7.8400887 
    5800    831.10689   -6616.9349   -6524.2237   -853.22866    19700.739    7.8558212 
    5810    834.42816   -6617.6876   -6524.6059   -518.22363    19683.397     7.873801 
    5820     832.2721   -6617.9092    -6525.068   -593.40374    19665.396    7.8925596 
    5830     809.4731   -6615.8945   -6525.5966   -418.34996    19646.728    7.9091786 
    5840     805.1543   -6615.9845   -6526.1683   -758.28993     19627.48    7.9161043 
    5850    813.80462   -6617.5667   -6526.7856   -1176.8375    19607.318    7.9113279 
    5860    799.73179   -6616.6389   -6527.4276   -726.00416    19585.883    7.9071377 
    5870    810.97528   -6618.5457   -6528.0802   -499.80899    19563.557    7.9132398 
    5880    811.87572   -6619.3069    -6528.741   -231.86758    19540.679    7.9246645 
    5890    805.37761   -6619.2372   -6529.3961    -163.8376    19517.522    7.9349233 
    5900    795.65242     -6618.77   -6530.0138   -60.587976    19494.192    7.9401142 
    5910     801.4294   -6619.9727   -6530.5721    97.436701    19470.817    7.9354283 
    5920    817.76599   -6622.3054   -6531.0824    341.59551    19447.597    7.9236377 
    5930    820.02934   -6623.0339   -6531.5584    466.62494    19424.806    7.9123338 
    5940    814.08254   -6622.8125   -6532.0004    491.88388    19402.591    7.9064899 
    5950    804.00041   -6622.0758   -6532.3883    991.17774    19381.052    7.9052111 
    5960    810.85934   -6623.1647   -6532.7122    950.84146     19360.64    7.9020986 
    5970    838.05419   -6626.5049   -6533.0187    187.34259     19341.27    7.8928515 
    5980    824.01844   -6625.2458   -6533.3253    970.22816    19322.335    7.8803678 
    5990    798.88278   -6622.7074   -6533.5908    2107.0362    19304.562    7.8729909 
    6000     792.3887   -6622.1674   -6533.7753    2639.2221     19289.17    7.8753889 
    6010    790.89457   -6622.1046   -6533.8791    2862.6808    19276.769    7.8887482 
    6020    791.55246     -6622.21   -6533.9111    2985.9421      19267.6    7.9119283 
    6030    792.55647    -6622.285   -6533.8742    3227.5835    19261.848    7.9410184 
    6040    809.38938   -6624.0744   -6533.7858    2570.9314    19259.645    7.9700742 
    6050     815.1613   -6624.5969   -6533.6644    1958.5488    19260.385    7.9947094 
    6060    818.41642   -6624.8323   -6533.5367    1799.1463    19263.394    8.0158202 
    6070    821.03991   -6624.9907   -6533.4024    1708.0818    19268.455    8.0376567 
    6080    830.92464   -6625.9688   -6533.2779    1209.3452    19275.412     8.063842 
    6090    813.17303   -6623.8712   -6533.1605    720.60192    19283.763     8.094903 
    6100    803.02447     -6622.61   -6533.0314    169.77048    19292.958    8.1258842 
    6110    816.93252   -6624.0093   -6532.8793   -686.92518    19302.322    8.1523835 
    6120    806.18154   -6622.6329   -6532.7022   -953.68898    19311.011    8.1739533 
    6130    824.87861   -6624.5369   -6532.5205   -1535.5619    19318.591    8.1893019 
    6140    822.45543   -6624.0856   -6532.3395   -1403.6084     19324.54     8.200787 
    6150     804.9771   -6621.9773   -6532.1809   -944.97921    19328.932    8.2082264 
    6160    797.95514    -6621.024   -6532.0109   -566.12712    19332.263    8.2103327 
    6170    807.10907   -6621.8568   -6531.8226   -380.42944    19334.944    8.2059873 
    6180    788.97977   -6619.6297   -6531.6178    214.14885     19337.26    8.1978004 
    6190     778.9775   -6618.2822   -6531.3861    290.48449    19339.775    8.1919919 
    6200    815.85686   -6622.1311    -6531.121   -769.83446    19342.502    8.1942254 
    6210    827.40774   -6623.1628   -6530.8643   -1325.6483    19344.416    8.2069438 
    6220    827.96002   -6623.0242    -6530.664   -1212.2684    19344.893    8.2235299 
    6230    814.83291   -6621.3966   -6530.5008   -1101.3525     19343.99     8.239488 
    6240    796.56023   -6619.2115    -6530.354   -745.21553    19341.868    8.2559638 
    6250    778.69762   -6617.0393   -6530.1745   -317.88526    19338.903    8.2684548 
    6260    791.76015   -6618.2577   -6529.9356   -233.55353     19335.53    8.2636998 
    6270    818.79108   -6620.9955   -6529.6582   -439.83485    19331.825    8.2377702 
    6280    808.20396   -6619.5326   -6529.3763   -340.94137    19327.622    8.2013545 
    6290    807.77685   -6619.2075   -6529.0988   -141.84727    19323.013    8.1663334 
    6300    816.17633   -6619.8427    -6528.797    29.469998    19318.225    8.1379134 
    6310     836.3833   -6621.8006   -6528.5008    178.33768    19313.428    8.1204011 
    6320     834.8549   -6621.3599   -6528.2306    1086.7784    19308.882    8.1193944 
    6330    828.17304   -6620.3822   -6527.9982    1952.8638    19305.534    8.1316979 
    6340    826.54397   -6619.9839   -6527.7817    1823.4719    19304.275     8.146751 
    6350    838.29631   -6621.0972    -6527.584    1184.8874    19305.044    8.1589562 
    6360    849.96804   -6622.2339   -6527.4187    689.03115    19307.198     8.163159 
    6370    842.44941   -6621.2819   -6527.3054    735.58556    19310.198    8.1571807 
    6380    831.93368   -6620.0355    -6527.232     1135.028    19314.108    8.1436991 
    6390    856.79466   -6622.7687    -6527.192    908.05684    19319.271    8.1300104 
    6400    863.92792   -6623.5774   -6527.2049    871.76554    19325.564    8.1300423 
    6410    857.41533   -6622.9573   -6527.3113    995.30444    19332.944    8.1481174 
    6420    846.47591   -6621.9256   -6527.4999      1056.27     19341.54    8.1738663 
    6430     835.8129   -6620.9819   -6527.7457    768.04095    19351.399    8.2009051 
    6440    831.22644    -6620.746   -6528.0215    159.09219    19362.242    8.2291811 
    6450    847.67888   -6622.8847   -6528.3249   -1111.4737    19373.321    8.2554908 
    6460    845.75977   -6623.0373   -6528.6915   -1633.9674    19383.332    8.2825359 
    6470    825.89046   -6621.2422   -6529.1129   -1194.1548    19391.689    8.3134356 
    6480    836.86736   -6622.9448    -6529.591   -786.04154    19398.747    8.3509267 
    6490    813.40738   -6620.8339   -6530.0971    60.391046    19405.063    8.3943237 
    6500    799.06872   -6619.7306   -6530.5933    426.66266    19411.471    8.4348217 
    6510    802.63572   -6620.5871   -6531.0519    352.02628    19418.408    8.4613544 
    6520    792.01211   -6619.8173   -6531.4672   -9.9175426    19425.839    8.4745806 
    6530    779.96737   -6618.8188   -6531.8122   -765.68846    19433.329    8.4838952 
    6540    797.23704   -6621.0211   -6532.0881   -1452.6738    19440.057     8.491871 
    6550    791.22228   -6620.5671    -6532.305    -1682.921    19445.255    8.4965987 
    6560    778.20764   -6619.2637   -6532.4535   -1957.6253    19448.571    8.4927277 
    6570    784.14351   -6619.9895   -6532.5171   -2322.4023    19449.663    8.4802866 
    6580    788.99597   -6620.5177    -6532.504    -2495.307    19448.109    8.4708281 
    6590    792.52386   -6620.8166   -6532.4094   -2440.5692    19443.669    8.4713886 
    6600     808.0646    -6622.379   -6532.2382   -2482.4066    19436.308    8.4790524 
    6610    805.74363   -6621.8668   -6531.9849   -2125.1687    19425.998    8.4824652 
    6620    820.38861   -6623.1656   -6531.6501   -2056.8883    19412.985    8.4681096 
    6630    829.77579   -6623.7822   -6531.2194   -1817.6276    19397.387     8.441677 
    6640    822.66436   -6622.4665    -6530.697   -1103.5835    19379.465    8.4187801 
    6650    821.67038   -6621.7166    -6530.058   -251.19975    19359.947    8.4063736 
    6660    818.71728   -6620.6067   -6529.2775    924.75272    19339.811     8.402032 
    6670    826.27034   -6620.5406   -6528.3689    1524.0894    19320.299    8.3953338 
    6680    836.76875   -6620.7159   -6527.3731    1392.9835    19302.101    8.3782439 
    6690    853.21266   -6621.5573   -6526.3802    1159.9229    19285.132    8.3528264 
    6700    849.58602   -6620.2459   -6525.4733    1422.5891    19269.208    8.3276371 
    6710    849.24905   -6619.4387   -6524.7037    1885.0618    19254.608    8.3047183 
    6720    851.87185   -6619.0968   -6524.0692    2229.8686    19241.842    8.2828426 
    6730    871.85882   -6620.8351    -6523.578    1851.0239    19231.265    8.2668031 
    6740    887.95107   -6622.3001   -6523.2479    1191.7512    19222.532    8.2569253 
    6750    881.74444   -6621.4537   -6523.0938    1176.5617    19215.028    8.2494574 
    6760    868.28687   -6619.9456   -6523.0869    1505.7263     19208.72    8.2430449 
    6770    846.45465   -6617.5944   -6523.1711    2071.8099    19203.996    8.2349994 
    6780    834.21561   -6616.3538   -6523.2958    2449.8525    19201.489    8.2194419 
    6790      831.963   -6616.2428   -6523.4361    2531.4592    19201.672    8.1973352 
    6800    830.52398   -6616.2288   -6523.5826    2601.2497    19204.766    8.1807792 
    6810    836.96301   -6617.1095    -6523.745    1930.2603    19210.834    8.1819891 
    6820    833.41855   -6616.8894   -6523.9203    646.18437    19219.208    8.2036532 
    6830    831.55181   -6616.8623   -6524.1014   -191.76052    19228.599    8.2328999 
    6840    830.04019   -6616.8804   -6524.2882   -287.89548    19238.107    8.2528206 
    6850    833.73792   -6617.4903   -6524.4855   -302.31829    19247.561    8.2571008 
    6860    830.66811   -6617.3492   -6524.6869   -268.42739    19256.943    8.2488123 
    6870    844.02378   -6619.0523   -6524.9002   -277.12873    19266.292    8.2351224 
    6880    859.36483   -6621.0204    -6525.157   -734.80948    19275.536    8.2242434 
    6890    855.19802   -6620.8801   -6525.4814   -951.79847    19284.243    8.2243741 
    6900    870.10528   -6622.9441   -6525.8825   -1383.2732     19292.09    8.2400526 
    6910    883.87295   -6624.9948   -6526.3975   -1032.9932    19298.671     8.268872 
    6920    864.93651   -6623.5148   -6527.0298    24.673065     19304.34    8.3003109 
    6930    838.58222   -6621.2577   -6527.7126    537.04387    19310.156    8.3232159 
    6940    835.40851   -6621.5763   -6528.3852    209.60063    19316.657    8.3322965 
    6950      834.166   -6622.0712   -6529.0188     105.8603    19323.632    8.3280253 
    6960    836.72909   -6622.9433   -6529.6049    36.501473     19330.93    8.3165641 
    6970     815.0439   -6621.0329   -6530.1135    560.61066    19338.548    8.3076436 
    6980    806.03077   -6620.4322   -6530.5183     994.8586    19347.024    8.3079407 
    6990    798.71613    -6619.911    -6530.813    795.65772    19356.833    8.3233523 
    7000    802.82019   -6620.5624   -6531.0066   -138.94944    19367.794    8.3518144 
    7010    810.78264    -6621.561    -6531.117   -1241.3205    19378.912    8.3769087 
    7020     799.4141   -6620.3394   -6531.1636   -1451.7754    19389.032    8.3912072 
    7030     805.7648   -6621.0458   -6531.1616   -1786.7519    19397.734    8.3987669 
    7040    811.65138   -6621.6631   -6531.1222   -2227.0672    19404.618    8.4080952 
    7050    798.23558   -6620.0918   -6531.0474    -2643.679    19409.086    8.4229421 
    7060    790.50978   -6619.1135   -6530.9309   -2117.8198    19410.706    8.4342891 
    7070    812.25382   -6621.3783   -6530.7701   -1880.3709    19409.869    8.4353272 
    7080    809.20605   -6620.8489   -6530.5808   -1625.0261    19406.836    8.4276202 
    7090    801.22079   -6619.7485   -6530.3711   -1456.2698    19401.816    8.4158764 
    7100    816.12883    -6621.176   -6530.1356   -1619.2988    19394.928    8.4073691 
    7110    815.92354   -6620.9032   -6529.8857   -1451.3199    19386.021    8.4053703 
    7120    812.72786   -6620.2934   -6529.6324   -1008.5712    19375.236    8.4059562 
    7130    814.51254   -6620.2161    -6529.356   -742.16932    19362.997    8.3987771 
    7140    840.05773   -6622.7779   -6529.0682   -871.73626     19349.56    8.3736326 
    7150    822.85982   -6620.5805   -6528.7893   -177.06202    19334.885    8.3398644 
    7160    789.98555   -6616.6183   -6528.4942    823.25114    19319.686    8.3131906 
    7170    799.40864    -6617.331   -6528.1558    1143.8845    19304.996    8.2947586 
    7180    798.73942   -6616.8587   -6527.7582     1395.293    19291.278      8.27975 
    7190    816.97979   -6618.4495   -6527.3141    1308.9869    19278.808    8.2608658 
    7200    840.80715   -6620.6542   -6526.8609     546.7268    19267.486    8.2312208 
    7210    849.07343   -6621.1627   -6526.4472   -3.2199209    19256.572     8.191185 
    7220    868.06979   -6622.9392   -6526.1047   -190.67658    19245.442    8.1452372 
    7230    879.51226    -6623.976   -6525.8651    359.92384    19233.937    8.0991183 
    7240     843.3919   -6619.8143   -6525.7327    1778.6766    19222.704    8.0651661 
    7250    821.14958   -6617.2564   -6525.6559    2631.1631    19213.202    8.0552863 
    7260    822.22513   -6617.3042   -6525.5838    2496.0374    19206.404    8.0678076 
    7270    814.16307    -6616.329   -6525.5079    2210.9525      19202.3    8.0928481 
    7280     818.8094    -6616.752   -6525.4126     1996.011    19200.638     8.123312 
    7290    844.57974   -6619.5235   -6525.3093    1958.9205    19201.225    8.1501132 
    7300    843.04626   -6619.2788   -6525.2357    2104.9664    19204.057    8.1649458 
    7310    848.13368   -6619.8183   -6525.2077    1613.2489    19209.276    8.1689583 
    7320    868.51047   -6622.1303   -6525.2466     552.0569    19216.364    8.1714192 
    7330    839.09615   -6618.9734    -6525.371     681.0285    19224.368      8.17992 
    7340    816.55327   -6616.6337    -6525.546    1161.3646    19233.358    8.1904572 
    7350    823.31452   -6617.5741   -6525.7321    803.80564    19243.745    8.1961491 
    7360    845.61312   -6620.2725   -6525.9431    74.033827    19255.221    8.2031208 
    7370    866.98435   -6622.9689   -6526.2555   -662.33278     19266.97    8.2238149 
    7380    856.39152   -6622.2685   -6526.7367   -68.334981    19278.349    8.2609841 
    7390    837.29929   -6620.8187   -6527.4167    623.41251    19289.872    8.3062146 
    7400    828.02832   -6620.6466   -6528.2788    608.87303     19302.26    8.3452579 
    7410    826.02649   -6621.4465    -6529.302   -193.39847    19315.498    8.3662932 
    7420    805.33628   -6620.2431   -6530.4066   -904.92878    19328.788     8.369509 
    7430     792.0766   -6619.8181   -6531.4607   -1321.4127    19341.327    8.3709832 
    7440    803.97401   -6622.0698   -6532.3853   -2037.1034    19352.535    8.3825957 
    7450    824.90446   -6625.1999   -6533.1806   -2268.3551     19361.66    8.4059976 
    7460    807.99234   -6623.9788    -6533.846   -1651.5461    19368.413    8.4420066 
    7470    797.81487   -6623.3613   -6534.3638   -1333.1471    19373.329    8.4828631 
    7480    796.67494   -6623.6157   -6534.7455   -1452.5486    19376.751    8.5162711 
    7490    790.04271   -6623.1386   -6535.0081   -1337.7773     19378.59    8.5363254 
    7500    797.85377   -6624.1753   -6535.1735    -1425.142    19378.905    8.5487135 
    7510    813.34423   -6626.0001   -6535.2704   -2157.1059    19377.515    8.5633057 
    7520    816.95579   -6626.4651   -6535.3325    -2829.022    19373.636    8.5818362 
    7530    818.33601    -6626.675   -6535.3884   -3109.2942    19366.496    8.5995614 
    7540    804.13606   -6625.1309   -6535.4283   -2376.7926    19355.808    8.6117544 
    7550    773.54232   -6621.6947   -6535.4049   -839.33462     19342.36     8.615904 
    7560    759.46179   -6619.9863   -6535.2672    688.09633    19327.844     8.617135 
    7570     767.3184   -6620.5872   -6534.9917     1135.697    19313.876     8.624664 
    7580      788.801   -6622.5808   -6534.5888     935.5367    19301.061    8.6340502 
    7590    816.25526   -6625.1675    -6534.113    579.01069    19289.226    8.6406076 
    7600    814.48151   -6624.4668   -6533.6101    862.56963    19278.044    8.6484844 
    7610    810.11069   -6623.4657   -6533.0967    968.58605    19267.765    8.6525306 
    7620     836.2711   -6625.8725   -6532.5852    221.31445    19258.444    8.6491837 
    7630    838.61639   -6625.6407   -6532.0918   -43.465947    19249.417    8.6424986 
    7640    836.81907   -6625.0164    -6531.668   -292.10373    19240.294    8.6386272 
    7650     823.8936   -6623.2096    -6531.303    -219.5573    19230.848    8.6416862 
    7660    812.61186   -6621.6015   -6530.9534    170.90402    19221.176    8.6454564 
    7670    824.01031   -6622.5113   -6530.5917   -50.041208    19211.625    8.6420144 
    7680    845.28438   -6624.5367    -6530.244   -458.85722    19201.985    8.6319501 
    7690    825.48639   -6622.0212   -6529.9369   -135.56379    19191.909    8.6227534 
    7700    825.42987   -6621.7419    -6529.664   -44.746181    19181.644    8.6216326 
    7710    844.10992    -6623.578   -6529.4163    202.10865     19171.35    8.6319998 
    7720    858.71364   -6625.0137   -6529.2229    517.05335    19161.276    8.6431018 
    7730    838.78605   -6622.6605   -6529.0927    1221.0294    19151.821     8.647135 
    7740    837.33174   -6622.4113   -6529.0057    1811.4744    19143.718    8.6485814 
    7750    845.16762   -6623.2281   -6528.9484    2314.1031    19137.644    8.6589247 
    7760    829.28919   -6621.4421   -6528.9337    2556.8088    19134.131    8.6814467 
    7770    817.71195   -6620.1462   -6528.9292    2643.9567    19133.464    8.7098832 
    7780    851.98015   -6623.9749   -6528.9353    2326.6475    19135.696    8.7405215 
    7790    866.70769   -6625.6695    -6528.987    2065.9883    19140.538    8.7740449 
    7800    844.65991   -6623.3429   -6529.1198    2254.8076    19147.747    8.8105753 
    7810    841.81718   -6623.2245   -6529.3185    2149.0602    19157.448       8.8497 
    7820    839.43652   -6623.2103   -6529.5699    2069.0475    19169.568    8.8868305 
    7830    836.62291   -6623.2048   -6529.8783    1900.6892    19183.994    8.9213628 
    7840    841.63586   -6624.1337   -6530.2479    1424.0535    19200.535    8.9604297 
    7850    832.12178   -6623.5159   -6530.6915    985.80504    19218.686    9.0061206 
    7860     805.7204   -6621.0669   -6531.1875    959.80084    19238.011    9.0549872 
    7870    805.17358   -6621.5271   -6531.7088    383.97491    19258.351    9.1056844 
    7880    791.54208   -6620.5337   -6532.2359    29.091274    19279.143    9.1597537 
    7890    788.91478   -6620.7613   -6532.7566   -45.730701    19299.986    9.2148013 
    7900     807.1568   -6623.3199   -6533.2804   -257.57818    19320.757    9.2722545 
    7910    823.89675   -6625.7508   -6533.8439   -957.59335    19341.179    9.3369491 
    7920    817.53549   -6625.6673     -6534.47   -1390.9122    19360.543    9.4067946 
    7930    800.82629    -6624.484   -6535.1506   -1091.5261    19378.391    9.4725512 
    7940    780.16362   -6622.8554    -6535.827   -854.58125    19394.994    9.5237009 
    7950      791.609   -6624.7743   -6536.4691   -1483.8744    19410.532    9.5545773 
    7960    800.53891   -6626.3764    -6537.075   -2104.8995    19424.398    9.5729099 
    7970    790.63125   -6625.8468   -6537.6507   -2158.1523    19435.911    9.5889674 
    7980     780.8238   -6625.2561    -6538.154   -1877.6316    19444.994    9.6089191 
    7990    813.61274   -6629.3689   -6538.6092   -2407.5447     19451.82    9.6314264 
    8000    808.05469    -6629.169   -6539.0292   -2414.5575     19455.95    9.6550598 
    8010    805.56538    -6629.289    -6539.427   -2360.0313    19457.283    9.6765048 
    8020    787.46812   -6627.6163   -6539.7731   -1916.3067    19455.931    9.6908141 
    8030    761.34447   -6624.9599   -6540.0307   -858.25508    19452.436     9.691264 
    8040    762.25089   -6625.1948   -6540.1645   -170.44652    19447.917    9.6819679 
    8050    765.75579   -6625.5871   -6540.1659    82.794107    19443.165    9.6780547 
    8060    778.25475   -6626.8486   -6540.0331   -364.43956    19438.442    9.6885789 
    8070    810.99169   -6630.2617   -6539.7944   -1185.9599    19433.254    9.7140471 
    8080    804.70781   -6629.2526   -6539.4863   -1151.7784    19426.807    9.7488452 
    8090    788.78928   -6627.0994   -6539.1087   -588.64216      19419.1     9.776286 
    8100    793.76567   -6627.1589   -6538.6131    -256.8699    19410.712    9.7805253 
    8110    823.95188   -6629.8917   -6537.9786   -745.97692    19401.943     9.762899 
    8120    827.34553   -6629.5247   -6537.2331   -1161.6381    19392.327    9.7302234 
    8130    798.28647   -6625.4597   -6536.4096   -1008.0159    19381.464    9.6915389 
    8140    808.03825   -6625.6203   -6535.4824   -1544.2703    19369.361    9.6576102 
    8150    829.52446    -6626.992   -6534.4573   -1694.7806    19355.547    9.6340554 
    8160    832.81527   -6626.3439   -6533.4421   -1205.2507     19339.87    9.6214386 
    8170    823.95012   -6624.4496   -6532.5367   -354.26838     19322.88    9.6194201 
    8180    831.68387   -6624.5644   -6531.7888   -24.992276    19305.448    9.6245745 
    8190    841.49066   -6625.0891   -6531.2195    268.04008    19288.018    9.6292002 
    8200    825.38385   -6622.8913   -6530.8185    984.06536    19270.975    9.6249332 
    8210    831.07342   -6623.2429   -6530.5354    924.40266    19254.979     9.610597 
    8220     851.1945    -6625.296    -6530.344    691.73155    19240.036    9.5919667 
    8230    845.16284   -6624.5167   -6530.2375    1048.0607    19225.957    9.5734389 
    8240    838.79771   -6623.7579   -6530.1887    1231.2863    19213.059    9.5600432 
    8250    851.94225   -6625.2241   -6530.1887    902.20314    19201.504    9.5544684 
    8260    848.10557   -6624.8479   -6530.2405    1057.2257    19191.038    9.5515993 
    8270     839.0484   -6623.9372   -6530.3401    1329.2014    19181.764    9.5489402 
    8280    827.43603   -6622.7646   -6530.4629      2014.18    19174.022    9.5474584 
    8290    822.07001   -6622.2884   -6530.5853     2831.436    19168.548    9.5485959 
    8300    837.18237   -6624.0973   -6530.7084    2775.7314    19166.168    9.5539112 
    8310    854.59759   -6626.1965   -6530.8649    1961.8236    19166.834    9.5613719 
    8320    857.56465   -6626.7524   -6531.0898    1148.6273    19169.695    9.5690544 
    8330    838.03587   -6624.8732   -6531.3891    1129.4852    19173.933    9.5762312 
    8340    807.71258   -6621.8066    -6531.705    1455.5099    19179.485    9.5796124 
    8350    816.38597   -6623.0667   -6531.9976    969.30196    19186.588    9.5793892 
    8360    837.73734   -6625.7221   -6532.2712   -21.339327    19194.749    9.5813004 
    8370     853.2208   -6627.7506   -6532.5725    -587.4194    19202.955    9.5886116 
    8380    854.32369   -6628.2401    -6532.939   -486.98599    19210.583    9.6000837 
    8390    847.86612   -6627.9554   -6533.3746   -79.572656    19217.712    9.6138073 
    8400    835.07254   -6627.0228   -6533.8692    146.02709    19224.742    9.6318056 
    8410    800.94162   -6623.7047   -6534.3584    526.30288    19231.974    9.6551462 
    8420    815.58889   -6625.7846   -6534.8044    270.52071    19239.749    9.6814734 
    8430    829.87169    -6627.804   -6535.2305    3.7040289    19247.853    9.7132062 
    8440    806.74114   -6625.6347   -6535.6415    396.32194    19256.069    9.7467814 
    8450    811.10909   -6626.4961   -6536.0157    31.601777    19264.669    9.7754902 
    8460    821.14373   -6627.9559   -6536.3561   -901.52424    19273.277    9.7997719 
    8470    807.14228   -6626.7062   -6536.6683   -1693.7743    19280.902      9.82606 
    8480    799.38839   -6626.1096   -6536.9366   -1893.5889    19286.704    9.8547248 
    8490     807.1609   -6627.1989   -6537.1589   -2248.2201    19290.351     9.879969 
    8500    807.60913   -6627.4294   -6537.3394   -2435.0289    19291.487    9.9021394 
    8510    820.83161   -6629.0598   -6537.4948     -2431.54    19289.894    9.9274943 
    8520    829.94666   -6630.2313   -6537.6495   -2051.9285    19285.572    9.9567889 
    8530    826.84949    -6630.055   -6537.8187   -1555.1534    19278.913    9.9847976 
    8540    810.54959   -6628.4049   -6537.9869   -1232.2972    19270.441     10.00625 
    8550    793.03161   -6626.5811   -6538.1172   -1436.9426    19260.476      10.0164 
    8560    795.83208   -6626.9665   -6538.1902   -2234.6441    19248.778    10.016613 
    8570    803.95162   -6627.8932   -6538.2112    -2766.779    19234.524    10.017263 
[...]
   22890    854.59265   -6622.5822   -6527.2511    1344.6381    19210.751    29.133187 
   22900    843.30619   -6621.4588   -6527.3867    1564.6948    19215.126    29.153495 
   22910    823.09178   -6619.4185   -6527.6014    1516.2486    19221.275    29.179393 
   22920    820.75187   -6619.4155   -6527.8594     741.3625    19229.096     29.20418 
   22930    823.77066   -6620.0529   -6528.1601   -12.552794    19237.783    29.220039 
   22940     827.2588    -6620.823   -6528.5411   -755.75506    19246.473    29.223263 
   22950    824.52859     -6621.01   -6529.0326    -1038.884    19254.408    29.214676 
   22960    825.70435   -6621.7598   -6529.6512   -976.99376    19261.204    29.207987 
   22970    827.38938   -6622.6824   -6530.3858   -622.31607    19266.923    29.220044 
   22980    823.78663   -6623.1093   -6531.2146   -341.55353    19271.934    29.253066 
   22990    809.36487   -6622.3641   -6532.0783   -269.56826    19276.527    29.299579 
   23000    787.51554    -6620.735   -6532.8864    156.66316    19280.863    29.352788 
   23010    777.93333   -6620.3429   -6533.5632   -58.051574    19285.304    29.406576 
   23020    779.21025   -6621.0179   -6534.0958   -1342.1848    19289.558    29.455401 
   23030    778.19333   -6621.2987   -6534.4901   -2658.7006    19292.287    29.496215 
   23040    798.97573   -6623.9173   -6534.7904   -3483.0841    19292.036    29.533333 
   23050    799.70332   -6624.2418   -6535.0337   -3138.4301    19287.964    29.573262 
   23060    793.65312   -6623.7504   -6535.2172   -2613.3018    19280.382    29.615267 
   23070    801.90697   -6624.7809    -6535.327   -2389.5202    19269.865    29.660032 
   23080    805.64895   -6625.2482   -6535.3769   -1962.9143    19256.732    29.706737 
   23090    805.99946   -6625.2862   -6535.3757   -1352.0113    19241.501    29.752186 
   23100    814.85313    -6626.229   -6535.3309     -973.886    19224.831    29.793596 
   23110    827.89522   -6627.6194   -6535.2665   -907.83305    19207.158    29.825607 
   23120    824.32848   -6627.1566   -6535.2016    -877.8253     19188.61    29.841074 
   23130     828.7077   -6627.5938   -6535.1502   -668.07013    19169.222     29.83837 
   23140    831.36944   -6627.8366    -6535.096    344.74229    19149.329    29.820652 
   23150    818.28115    -6626.311   -6535.0305    1838.2936    19130.047    29.795296 
   23160     803.0247   -6624.5114   -6534.9328    2954.6628    19112.941    29.764161 
   23170    809.69113   -6625.1054   -6534.7832    3150.6228    19099.173    29.725582 
   23180     818.3459   -6625.8779   -6534.5901     3429.499    19089.022    29.700489 
   23190    810.33289   -6624.7617   -6534.3678    4181.2601    19082.807    29.707673 
   23200    818.36421   -6625.4074   -6534.1177    4613.4153    19081.239    29.737971 
   23210     834.8533   -6626.9779   -6533.8488    4448.9285    19084.714    29.781658 
   23220    829.93417   -6626.1618   -6533.5813    3979.1418    19093.049    29.838565 
   23230    823.46484    -6625.159   -6533.3002    2999.5997    19105.678    29.892239 
   23240    827.44699   -6625.2782   -6532.9753    2239.2937     19121.57    29.937074 
   23250    829.93112   -6625.1935   -6532.6134    2217.0476    19139.919    29.991168 
   23260    828.95795   -6624.7022   -6532.2307    2247.4265    19160.605    30.065635 
   23270    827.63042   -6624.1425   -6531.8191    2106.5806    19183.656    30.148724 
   23280    848.75742   -6626.0501   -6531.3699    1199.4617    19208.848    30.227839 
   23290    862.99306    -6627.165   -6530.8968    10.529786    19235.198     30.29558 
   23300    859.77841     -6626.36   -6530.4504   -917.71209    19261.427    30.355169 
   23310     844.3724   -6624.2282   -6530.0372   -1330.1693    19286.519    30.418048 
   23320    839.08424   -6623.2518   -6529.6507   -1418.9508    19309.971    30.487067 
   23330    825.09959   -6621.3019   -6529.2608   -1761.1759    19331.649    30.559757 
   23340    840.08413   -6622.5611   -6528.8484   -2762.4385    19351.108    30.634765 
   23350    845.52536   -6622.7375   -6528.4178   -2955.9648    19367.388    30.703193 
   23360    837.77381   -6621.4651   -6528.0101   -2353.6838    19380.255    30.750332 
   23370    822.52621   -6619.3629   -6527.6089   -1766.7435    19390.331    30.775965 
   23380    821.68882    -6618.848   -6527.1873   -1262.6174    19398.311    30.801729 
   23390    827.93688   -6619.0774   -6526.7198   -770.36857    19404.799    30.847719 
   23400    844.90606   -6620.4742   -6526.2237   -1090.5324    19410.286    30.912136 
   23410    858.65012   -6621.5042   -6525.7204   -1965.1199    19414.432    30.971025 
   23420     856.6781   -6620.8114   -6525.2477   -2100.9753    19416.389    31.012149 
   23430    841.98189    -6618.732   -6524.8077   -1465.1376    19416.005    31.044821 
   23440    866.09726    -6621.014   -6524.3996   -1233.5824    19413.892    31.084165 
   23450    879.27943    -6622.131   -6524.0461    -1096.044    19410.383    31.135858 
   23460    858.67791   -6619.5713   -6523.7844   -56.008632    19405.755    31.188147 
   23470     846.1014    -6617.982   -6523.5982    927.39333    19401.093    31.222709 
   23480    833.86126   -6616.4599   -6523.4415    1349.7652    19397.475    31.228527 
   23490    842.99463   -6617.3379   -6523.3006    989.26301    19395.354    31.216708 
   23500    853.71517   -6618.4152    -6523.182    385.75149    19394.362    31.209345 
   23510    838.10999   -6616.6035   -6523.1111    88.831559    19393.866    31.217924 
   23520    831.76649   -6615.8586   -6523.0738   -264.64315    19393.476     31.23774 
   23530    842.32841   -6617.0175   -6523.0545   -801.12913    19392.756    31.263026 
   23540    838.03898   -6616.5461   -6523.0616   -748.68571    19391.193    31.291419 
   23550    830.54764   -6615.7436   -6523.0948   -427.14407    19388.803    31.311869 
   23560    842.23289   -6617.1196   -6523.1673   -328.54812    19385.905    31.316015 
   23570      838.754   -6616.8568   -6523.2925   -34.977191    19382.672    31.314356 
   23580    837.60369   -6616.9155   -6523.4796    635.43216     19379.49    31.319674 
   23590    840.05558   -6617.4408   -6523.7313    1004.5919    19376.997     31.34631 
   23600    837.25735   -6617.4498   -6524.0525    1266.0566    19375.671    31.399353 
   23610    848.44884   -6619.1047    -6524.459    477.56716    19375.678    31.471582 
   23620    834.94541   -6618.0929   -6524.9534    228.33889    19376.321    31.541755 
   23630    828.38563   -6617.9233   -6525.5157   -164.09271    19377.198    31.589255 
   23640    836.13178   -6619.4076   -6526.1358   -371.85868    19377.904    31.608461 
   23650    835.05194   -6619.9625   -6526.8112   -45.089559    19378.233    31.613707 
   23660     833.6208   -6620.5085   -6527.5168    281.60852    19378.535    31.616848 
   23670    852.68086     -6623.36   -6528.2422    20.715519    19379.094    31.620614 
   23680    856.57939   -6624.5502   -6528.9974   -41.484851    19379.706    31.626763 
   23690    840.92765   -6623.5649   -6529.7581    186.58201    19380.303    31.640689 
   23700    849.26797    -6625.236   -6530.4989   -76.112321    19381.055    31.674995 
   23710    841.66618   -6625.1117   -6531.2226    26.412294    19381.769    31.727807 
   23720    791.42027   -6620.1339   -6531.8498    714.65087    19382.563    31.778628 
   23730    787.59196    -6620.188   -6532.3309    960.12159    19384.121    31.812122 
   23740    806.70063   -6622.6909   -6532.7022    875.67183    19386.717    31.825366 
   23750    792.39489   -6621.3789   -6532.9861    1140.8425    19390.338    31.830653 
   23760    797.02948   -6622.0994   -6533.1896    972.26574    19395.174    31.837966 
   23770    796.13592   -6622.1258   -6533.3157     1291.328    19401.144    31.849706 
   23780    776.84309   -6620.0242   -6533.3662    1486.8592    19408.523    31.869111 
   23790    766.16715    -6618.787   -6533.3199    1233.6611    19417.505    31.887141 
   23800    776.11683   -6619.7285   -6533.1515    559.82896    19427.779    31.895185 
   23810    794.82089   -6621.5374    -6532.874   -245.20735    19438.614    31.900053 
   23820    802.84233    -6622.081   -6532.5227   -930.42972    19449.096    31.907463 
   23830    790.46785   -6620.3027   -6532.1248   -1294.6046    19458.468    31.914763 
   23840    789.40971   -6619.7325   -6531.6727   -1794.8326    19466.264    31.918823 
   23850    790.76516   -6619.3565   -6531.1454   -1989.0873    19471.985     31.92537 
   23860    816.91693   -6621.6922   -6530.5639   -2212.8145    19475.379    31.949525 
   23870    827.13542   -6622.2378   -6529.9696   -2343.8411    19476.215    31.988531 
   23880    824.02828   -6621.3305   -6529.4089   -1983.6996      19474.4    32.016356 
   23890    828.46036   -6621.3055   -6528.8895   -1485.8764    19470.333     32.01542 
   23900    831.54638   -6621.1726   -6528.4123   -1476.1705    19464.544    31.995811 
   23910     836.9607   -6621.3562   -6527.9919   -1340.8543    19457.107    31.972632 
   23920    826.76012   -6619.8526   -6527.6263   -498.81637     19448.25    31.953105 
   23930    816.91972    -6618.425   -6527.2964    552.94797    19438.913    31.936659 
   23940    833.93522   -6620.0047    -6526.978     1169.704    19430.235    31.926574 
   23950     854.8815   -6622.0592   -6526.6959    1627.6286    19422.935    31.932864 
   23960    850.69396   -6621.3787   -6526.4825    2068.3632    19417.558    31.957429 
   23970    868.75207   -6623.2711   -6526.3605    1693.1298    19414.482    31.976468 
   23980    852.13086   -6621.3849   -6526.3284     1601.126    19413.411    31.972394 
   23990    826.68233   -6618.5786    -6526.361    1474.7312    19414.183    31.951129 
   24000    818.77578   -6617.7367    -6526.401    1321.6968    19416.659     31.93094 
   24010    829.63216   -6618.9801   -6526.4334     731.2524    19420.596    31.928162 
   24020    834.35391   -6619.5465    -6526.473    198.04769    19425.369    31.960092 
   24030    831.41198   -6619.2783    -6526.533    75.721844    19430.404    32.027876 
   24040    819.66151    -6618.039   -6526.6046    209.60847    19435.534    32.112046 
   24050    808.37102   -6616.8372   -6526.6622    480.37378    19440.914    32.185028 
   24060    810.07381   -6617.0574   -6526.6924    623.82461    19446.822    32.228009 
   24070    810.32336    -6617.078   -6526.6852     503.7505    19453.423    32.244177 
   24080    814.92627   -6617.5519   -6526.6456    50.598006    19460.569    32.245812 
   24090    825.94493   -6618.7123   -6526.5769   -354.87537    19467.776    32.236311 
   24100    850.83263   -6621.4269   -6526.5152   -797.93431    19474.564    32.228928 
   24110    836.79908   -6619.8354   -6526.4892   -645.36414    19480.487    32.241646 
   24120    828.57281   -6618.9275   -6526.4989   -269.64888    19485.693     32.26885 
   24130    838.02068   -6620.0098   -6526.5274   -322.96297     19490.54    32.284163 
   24140    831.40252    -6619.324   -6526.5798   -217.05136    19495.036    32.279669 
   24150    820.32907   -6618.1672   -6526.6583    216.86049    19499.314    32.280351 
   24160    813.31107   -6617.4774   -6526.7513    615.36169    19503.842    32.320218 
   24170    811.96936    -6617.412   -6526.8356    475.14411    19509.034    32.405003 
   24180    828.56876   -6619.3318   -6526.9037    -162.8769    19514.724    32.504965 
   24190    829.64425   -6619.5306   -6526.9825   -838.68602    19520.207    32.582823 
   24200    809.85487   -6617.4215    -6527.081   -1060.3617    19524.765    32.621185 
   24210    798.58079   -6616.2498   -6527.1669   -819.11313    19528.142    32.623214 
   24220    809.17244    -6617.485   -6527.2206   -603.09302    19530.567    32.599856 
   24230     808.6766   -6617.4577   -6527.2487    -206.4257    19532.325    32.568949 
   24240    785.20666   -6614.8255   -6527.2345    163.14497     19533.85    32.554936 
   24250    794.97686   -6615.8273   -6527.1464   -305.36176    19535.489    32.567861 
   24260     800.7395   -6616.2892   -6526.9655   -835.96969    19536.786    32.609872 
   24270    818.11214   -6617.9862   -6526.7246   -1507.1348    19537.094    32.671715 
   24280    821.63916    -6618.098   -6526.4429   -1733.3947    19535.698    32.735378 
   24290    805.05574   -6615.9342    -6526.129   -1019.3813    19532.387    32.778461 
   24300    809.49598   -6616.0552   -6525.7548   -376.60409     19527.89    32.792325 
   24310    845.73311   -6619.6717   -6525.3289   -406.60025    19522.872    32.784712 
   24320    851.69716   -6619.9187   -6524.9106   -292.24116    19517.402    32.772913 
   24330    847.85368   -6619.1275   -6524.5481   -174.45406    19511.589    32.768654 
   24340    839.97148   -6617.9281    -6524.228    -124.1264    19505.558    32.762169 
   24350    841.18614   -6617.7855     -6523.95   -359.38203    19499.325    32.752458 
   24360    828.08528   -6616.0692    -6523.695   -48.836364    19492.725    32.747572 
   24370    823.79252   -6615.3402   -6523.4449    591.44438    19486.093    32.749542 
   24380    822.42067   -6614.9223   -6523.1801    942.42435     19480.13    32.757647 
   24390     811.8514   -6613.4525   -6522.8893    1150.6699    19475.248    32.763109 
   24400    828.56469   -6615.0032   -6522.5756    984.84139    19471.635    32.754621 
   24410    851.33771   -6617.2231   -6522.2551    818.47626    19469.163     32.74208 
   24420     862.8292   -6618.2316   -6521.9817    669.45771    19467.632    32.746736 
   24430    868.51292   -6618.6743   -6521.7904    827.18995    19466.915    32.773955 
   24440    880.81563   -6619.9572   -6521.7009    869.42602    19467.139    32.820033 
   24450    879.08867   -6619.8054   -6521.7418     837.7303     19468.35    32.873883 
   24460     858.9577   -6617.7197   -6521.9017    1109.6035    19470.571    32.931841 
   24470    866.25501   -6618.7972   -6522.1652    780.83072    19474.021    32.990013 
   24480    861.54308   -6618.6406   -6522.5341    723.82338    19478.431    33.038754 
   24490    852.31336   -6618.0728   -6522.9959    1288.0631    19483.774    33.072919 
   24500    856.25433   -6619.0815    -6523.565    1416.2002    19490.575    33.090189 
   24510    838.77837   -6617.7806   -6524.2136    1567.6898    19499.069     33.09782 
   24520    809.12654   -6615.1446   -6524.8853    1467.1031    19509.424    33.096732 
   24530    808.35009    -6615.683   -6525.5103    200.59747    19521.429    33.089685 
   24540    822.12879   -6617.7921   -6526.0823   -1374.5124     19533.71    33.081779 
   24550    824.69261   -6618.5985   -6526.6028   -2137.4381    19544.574    33.073542 
   24560     848.2179   -6621.7322   -6527.1122   -3050.7864    19552.977    33.069381 
   24570    858.35356   -6623.3954   -6527.6448   -3374.3388    19557.953    33.082643 
   24580    840.12244   -6621.9199   -6528.2029   -2982.0643      19559.1    33.128448 
   24590    811.80763   -6619.2835   -6528.7252   -2618.3991    19556.779    33.198221 
   24600    800.62437   -6618.4782   -6529.1673   -2960.3249    19551.306    33.266722 
   24610     781.5009   -6616.6764   -6529.4988   -2755.2595    19542.407    33.319465 
   24620    794.57571   -6618.3576   -6529.7215   -2353.4307    19530.245    33.345879 
   24630    815.37256   -6620.8189   -6529.8629   -1743.3076    19515.297    33.342777 
   24640    827.55744   -6622.2752   -6529.9599   -926.54067    19498.282    33.312385 
   24650    818.39493   -6621.3333   -6530.0401   -610.10482    19480.066    33.274818 
   24660    801.72293   -6619.5345   -6530.1011   -792.04854    19461.007    33.255695 
   24670    832.29723   -6622.9862   -6530.1422   -1088.1456    19440.928    33.256404 
   24680    829.61874   -6622.7255   -6530.1803     -358.197    19419.623    33.257841 
   24690     812.0817   -6620.8017   -6530.2127    343.03776    19397.806    33.244224 
   24700    817.55133   -6621.4196   -6530.2205    114.45272    19376.201    33.216479 
   24710    821.55383   -6621.8476    -6530.202   -16.643149     19354.67    33.190504 
   24720    846.59258   -6624.6226   -6530.1839    350.14696    19333.115     33.17634 
   24730     847.5067   -6624.7389   -6530.1982    1175.9991    19311.944    33.176458 
   24740    843.42405   -6624.3383   -6530.2531    1311.3851    19291.978    33.180201 
   24750    855.12042   -6625.7556   -6530.3656    656.41578    19273.362    33.176512 
   24760    846.20087   -6624.9316   -6530.5366    240.94854    19255.452    33.166774 
   24770    839.10847    -6624.371   -6530.7672    63.384139    19237.791    33.161106 
   24780    826.22768   -6623.1824   -6531.0155     39.18198    19220.185    33.164757 
   24790    851.31934   -6626.2599    -6531.294   -594.82845    19202.504    33.177462 
   24800    854.40194   -6626.9438   -6531.6339   -1153.0036     19184.12    33.203907 
   24810    843.36711   -6626.1272   -6532.0483   -1148.0918    19164.456    33.237871 
   24820    830.63845   -6625.1603   -6532.5013   -707.44087    19143.484    33.267817 
   24830    833.36453   -6625.9315   -6532.9684    354.32002    19121.729    33.291951 
   24840    823.97772    -6625.349    -6533.433    1722.5333    19100.342    33.313741 
   24850    804.16953   -6623.5632   -6533.8569    3202.9508    19080.836    33.323097 
   24860    804.98045   -6624.0316   -6534.2348    3864.3788    19064.767    33.312645 
   24870    810.27006   -6624.9563   -6534.5695    3661.4467    19052.862    33.296712 
   24880    821.79457   -6626.5608   -6534.8884    3337.4057    19044.966    33.299533 
   24890    811.12438   -6625.6697   -6535.1876    3569.8068    19040.813    33.336566 
   24900    814.98475   -6626.3773   -6535.4645    3489.8332    19040.569     33.40195 
   24910    818.07015   -6626.9779   -6535.7209    3025.1126    19044.158    33.473119 
   24920    803.31468   -6625.5631   -6535.9522    2978.5274    19051.172    33.524831 
   24930    801.57841   -6625.5654   -6536.1481    2499.7923    19061.458    33.546427 
   24940    796.20031   -6625.0947   -6536.2774    1868.2399    19074.572    33.536128 
   24950    810.08278   -6626.7221   -6536.3562     1003.036     19089.79    33.517648 
   24960    784.90601    -6623.932   -6536.3745    1052.9852    19106.304    33.526445 
   24970    787.70187   -6624.1934   -6536.3241    968.98896    19124.052    33.575908 
   24980    804.93093   -6625.9808   -6536.1896    943.82525    19142.991    33.667082 
   24990    790.10152   -6624.1403   -6536.0033     1554.851    19163.152    33.782421 
   25000    784.95606   -6623.3228   -6535.7597    1846.8369     19185.12    33.887786 
Loop time of 16074.6 on 16 procs for 20000 steps with 864 atoms

Performance: 0.107 ns/day, 223.258 hours/ns, 1.244 timesteps/s
97.7% CPU use with 16 MPI tasks x 1 OpenMP threads

MPI task timing breakdown:
Section |  min time  |  avg time  |  max time  |%varavg| %total
---------------------------------------------------------------
Pair    | 11463      | 14142      | 15819      |1032.4 | 87.97
Bond    | 0.0022101  | 0.0067441  | 0.013914   |   3.6 |  0.00
Neigh   | 0.2402     | 0.2982     | 0.37077    |   7.6 |  0.00
Comm    | 205.27     | 1573.8     | 4538.3     |3053.7 |  9.79
Output  | 1.1643     | 1.182      | 1.439      |   6.1 |  0.01
Modify  | 36.641     | 357.67     | 705.2      |1452.3 |  2.23
Other   |            | 0.1087     |            |       |  0.00

Nlocal:        54.0000 ave          68 max          40 min
Histogram: 1 1 1 3 2 1 4 2 0 1
Nghost:        512.875 ave         565 max         476 min
Histogram: 2 2 2 2 3 1 1 1 0 2
Neighs:         0.00000 ave           0 max           0 min
Histogram: 16 0 0 0 0 0 0 0 0 0
FullNghs:      2462.50 ave        3334 max        1555 min
Histogram: 1 2 1 3 2 1 1 2 1 2

Total # of neighbors = 39400
Ave neighs/atom = 45.601852
Ave special neighs/atom = 0.0000000
Neighbor list builds = 2000
Dangerous builds = 2000
Total wall time: 5:32:23
