LiKCl-chgnet/0.10x-LiKCl-chgnet/initial-solid.data (written by ASE) 

4096 	 atoms 
3  atom types
0.0                  83.616  xlo xhi
0.0                  20.904  ylo yhi
0.0                  41.808  zlo zhi


Masses

1 35.45
2 39.0983
3 6.94


Atoms 

     1   0   3   1.0                       0                       0                       0
     2   0   3   1.0  2.0386784348619084e-32      2.6130000000000004      2.6130000000000004
     3   0   3   1.0      2.6130000000000004                       0      2.6130000000000004
     4   0   3   1.0      2.6130000000000004      2.6130000000000004 -3.7085406217417115e-32
     5   0   1  -1.0      2.6130000000000004                       0 -1.8542703108708557e-32
     6   0   2   1.0      2.6130000000000004      2.6130000000000004      2.6130000000000004
     7   0   1  -1.0                       0                       0      2.6130000000000004
     8   0   1  -1.0  2.0386784348619084e-32      2.6130000000000004  6.7182472018613486e-33
     9   0   3   1.0                       0                       0      5.2260000000000009
    10   0   3   1.0  2.0386784348619084e-32      2.6130000000000004      7.8390000000000004
    11   0   3   1.0      2.6130000000000004                       0      7.8390000000000004
    12   0   3   1.0      2.6130000000000004      2.6130000000000004      5.2260000000000009
    13   0   1  -1.0      2.6130000000000004                       0      5.2260000000000009
    14   0   1  -1.0      2.6130000000000004      2.6130000000000004      7.8390000000000004
    15   0   1  -1.0                       0                       0      7.8390000000000004
    16   0   1  -1.0  2.0386784348619084e-32      2.6130000000000004      5.2260000000000009
    17   0   3   1.0                       0                       0      10.452000000000002
    18   0   3   1.0  2.0386784348619084e-32      2.6130000000000004      13.065000000000003
    19   0   3   1.0      2.6130000000000004                       0      13.065000000000003
    20   0   3   1.0      2.6130000000000004      2.6130000000000004      10.452000000000002
    21   0   1  -1.0      2.6130000000000004                       0      10.452000000000002
    22   0   1  -1.0      2.6130000000000004      2.6130000000000004      13.065000000000003
    23   0   1  -1.0                       0                       0      13.065000000000003
    24   0   1  -1.0  2.0386784348619084e-32      2.6130000000000004      10.452000000000002
    25   0   3   1.0                       0                       0      15.678000000000001
    26   0   3   1.0  2.0386784348619084e-32      2.6130000000000004                  18.291
    27   0   3   1.0      2.6130000000000004                       0                  18.291
    28   0   3   1.0      2.6130000000000004      2.6130000000000004      15.678000000000001
    29   0   1  -1.0      2.6130000000000004                       0      15.678000000000001
    30   0   1  -1.0      2.6130000000000004      2.6130000000000004                  18.291
    31   0   1  -1.0                       0                       0                  18.291
    32   0   1  -1.0  2.0386784348619084e-32      2.6130000000000004      15.678000000000001
    33   0   3   1.0                       0                       0      20.904000000000003
    34   0   3   1.0  2.0386784348619084e-32      2.6130000000000004      23.517000000000003
    35   0   3   1.0      2.6130000000000004                       0      23.517000000000003
    36   0   3   1.0      2.6130000000000004      2.6130000000000004      20.904000000000003
    37   0   1  -1.0      2.6130000000000004                       0      20.904000000000003
    38   0   1  -1.0      2.6130000000000004      2.6130000000000004      23.517000000000003
    39   0   2   1.0                       0                       0      23.517000000000003
    40   0   1  -1.0  2.0386784348619084e-32      2.6130000000000004      20.904000000000003
    41   0   3   1.0                       0                       0      26.130000000000006
    42   0   3   1.0  2.0386784348619084e-32      2.6130000000000004      28.743000000000006
    43   0   3   1.0      2.6130000000000004                       0      28.743000000000006
    44   0   3   1.0      2.6130000000000004      2.6130000000000004      26.130000000000006
    45   0   1  -1.0      2.6130000000000004                       0      26.130000000000006
    46   0   1  -1.0      2.6130000000000004      2.6130000000000004      28.743000000000006
    47   0   1  -1.0                       0                       0      28.743000000000006
    48   0   1  -1.0  2.0386784348619084e-32      2.6130000000000004      26.130000000000006
    49   0   3   1.0                       0                       0      31.356000000000002
    50   0   3   1.0  2.0386784348619084e-32      2.6130000000000004      33.969000000000001
    51   0   3   1.0      2.6130000000000004                       0      33.969000000000001
    52   0   3   1.0      2.6130000000000004      2.6130000000000004      31.356000000000002
    53   0   1  -1.0      2.6130000000000004                       0      31.356000000000002
    54   0   1  -1.0      2.6130000000000004      2.6130000000000004      33.969000000000001
    55   0   1  -1.0                       0                       0      33.969000000000001
    56   0   1  -1.0  2.0386784348619084e-32      2.6130000000000004      31.356000000000002
    57   0   3   1.0                       0                       0      36.582000000000001
    58   0   3   1.0  2.0386784348619084e-32      2.6130000000000004                  39.195
    59   0   3   1.0      2.6130000000000004                       0                  39.195
    60   0   3   1.0      2.6130000000000004      2.6130000000000004      36.582000000000001
    61   0   2   1.0      2.6130000000000004                       0      36.582000000000001
    62   0   1  -1.0      2.6130000000000004      2.6130000000000004                  39.195
    63   0   1  -1.0                       0                       0                  39.195
    64   0   1  -1.0  2.0386784348619084e-32      2.6130000000000004      36.582000000000001
    65   0   3   1.0                       0      5.2260000000000009                       0
    66   0   3   1.0  2.0386784348619084e-32      7.8390000000000004      2.6130000000000004
    67   0   3   1.0      2.6130000000000004      5.2260000000000009      2.6130000000000004
    68   0   3   1.0      2.6130000000000004      7.8390000000000004 -3.7085406217417115e-32
    69   0   1  -1.0      2.6130000000000004      5.2260000000000009 -1.8542703108708557e-32
    70   0   1  -1.0      2.6130000000000004      7.8390000000000004      2.6130000000000004
    71   0   1  -1.0                       0      5.2260000000000009      2.6130000000000004
    72   0   1  -1.0  2.0386784348619084e-32      7.8390000000000004  6.7182472018613486e-33
    73   0   3   1.0                       0      5.2260000000000009      5.2260000000000009
    74   0   3   1.0  2.0386784348619084e-32      7.8390000000000004      7.8390000000000004
    75   0   3   1.0      2.6130000000000004      5.2260000000000009      7.8390000000000004
    76   0   3   1.0      2.6130000000000004      7.8390000000000004      5.2260000000000009
    77   0   2   1.0      2.6130000000000004      5.2260000000000009      5.2260000000000009
    78   0   1  -1.0      2.6130000000000004      7.8390000000000004      7.8390000000000004
    79   0   1  -1.0                       0      5.2260000000000009      7.8390000000000004
    80   0   1  -1.0  2.0386784348619084e-32      7.8390000000000004      5.2260000000000009
    81   0   3   1.0                       0      5.2260000000000009      10.452000000000002
    82   0   3   1.0  2.0386784348619084e-32      7.8390000000000004      13.065000000000003
    83   0   3   1.0      2.6130000000000004      5.2260000000000009      13.065000000000003
    84   0   3   1.0      2.6130000000000004      7.8390000000000004      10.452000000000002
    85   0   1  -1.0      2.6130000000000004      5.2260000000000009      10.452000000000002
    86   0   1  -1.0      2.6130000000000004      7.8390000000000004      13.065000000000003
    87   0   1  -1.0                       0      5.2260000000000009      13.065000000000003
    88   0   2   1.0  2.0386784348619084e-32      7.8390000000000004      10.452000000000002
    89   0   3   1.0                       0      5.2260000000000009      15.678000000000001
    90   0   3   1.0  2.0386784348619084e-32      7.8390000000000004                  18.291
    91   0   3   1.0      2.6130000000000004      5.2260000000000009                  18.291
    92   0   3   1.0      2.6130000000000004      7.8390000000000004      15.678000000000001
    93   0   2   1.0      2.6130000000000004      5.2260000000000009      15.678000000000001
    94   0   1  -1.0      2.6130000000000004      7.8390000000000004                  18.291
    95   0   1  -1.0                       0      5.2260000000000009                  18.291
    96   0   1  -1.0  2.0386784348619084e-32      7.8390000000000004      15.678000000000001
    97   0   3   1.0                       0      5.2260000000000009      20.904000000000003
    98   0   3   1.0  2.0386784348619084e-32      7.8390000000000004      23.517000000000003
    99   0   3   1.0      2.6130000000000004      5.2260000000000009      23.517000000000003
   100   0   3   1.0      2.6130000000000004      7.8390000000000004      20.904000000000003
   101   0   1  -1.0      2.6130000000000004      5.2260000000000009      20.904000000000003
   102   0   1  -1.0      2.6130000000000004      7.8390000000000004      23.517000000000003
   103   0   1  -1.0                       0      5.2260000000000009      23.517000000000003
   104   0   1  -1.0  2.0386784348619084e-32      7.8390000000000004      20.904000000000003
   105   0   3   1.0                       0      5.2260000000000009      26.130000000000006
   106   0   3   1.0  2.0386784348619084e-32      7.8390000000000004      28.743000000000006
   107   0   3   1.0      2.6130000000000004      5.2260000000000009      28.743000000000006
   108   0   3   1.0      2.6130000000000004      7.8390000000000004      26.130000000000006
   109   0   1  -1.0      2.6130000000000004      5.2260000000000009      26.130000000000006
   110   0   1  -1.0      2.6130000000000004      7.8390000000000004      28.743000000000006
   111   0   2   1.0                       0      5.2260000000000009      28.743000000000006
   112   0   1  -1.0  2.0386784348619084e-32      7.8390000000000004      26.130000000000006
   113   0   3   1.0                       0      5.2260000000000009      31.356000000000002
   114   0   3   1.0  2.0386784348619084e-32      7.8390000000000004      33.969000000000001
   115   0   3   1.0      2.6130000000000004      5.2260000000000009      33.969000000000001
   116   0   3   1.0      2.6130000000000004      7.8390000000000004      31.356000000000002
   117   0   1  -1.0      2.6130000000000004      5.2260000000000009      31.356000000000002
   118   0   1  -1.0      2.6130000000000004      7.8390000000000004      33.969000000000001
   119   0   1  -1.0                       0      5.2260000000000009      33.969000000000001
   120   0   1  -1.0  2.0386784348619084e-32      7.8390000000000004      31.356000000000002
   121   0   3   1.0                       0      5.2260000000000009      36.582000000000001
   122   0   3   1.0  2.0386784348619084e-32      7.8390000000000004                  39.195
   123   0   3   1.0      2.6130000000000004      5.2260000000000009                  39.195
   124   0   3   1.0      2.6130000000000004      7.8390000000000004      36.582000000000001
   125   0   1  -1.0      2.6130000000000004      5.2260000000000009      36.582000000000001
   126   0   1  -1.0      2.6130000000000004      7.8390000000000004                  39.195
   127   0   1  -1.0                       0      5.2260000000000009                  39.195
   128   0   1  -1.0  2.0386784348619084e-32      7.8390000000000004      36.582000000000001
   129   0   3   1.0                       0      10.452000000000002                       0
   130   0   3   1.0  2.0386784348619084e-32      13.065000000000003      2.6130000000000004
   131   0   3   1.0      2.6130000000000004      10.452000000000002      2.6130000000000004
   132   0   3   1.0      2.6130000000000004      13.065000000000003 -3.7085406217417115e-32
   133   0   1  -1.0      2.6130000000000004      10.452000000000002 -1.8542703108708557e-32
   134   0   1  -1.0      2.6130000000000004      13.065000000000003      2.6130000000000004
   135   0   1  -1.0                       0      10.452000000000002      2.6130000000000004
   136   0   1  -1.0  2.0386784348619084e-32      13.065000000000003  6.7182472018613486e-33
   137   0   3   1.0                       0      10.452000000000002      5.2260000000000009
   138   0   3   1.0  2.0386784348619084e-32      13.065000000000003      7.8390000000000004
   139   0   3   1.0      2.6130000000000004      10.452000000000002      7.8390000000000004
   140   0   3   1.0      2.6130000000000004      13.065000000000003      5.2260000000000009
   141   0   1  -1.0      2.6130000000000004      10.452000000000002      5.2260000000000009
   142   0   1  -1.0      2.6130000000000004      13.065000000000003      7.8390000000000004
   143   0   1  -1.0                       0      10.452000000000002      7.8390000000000004
   144   0   1  -1.0  2.0386784348619084e-32      13.065000000000003      5.2260000000000009
   145   0   3   1.0                       0      10.452000000000002      10.452000000000002
   146   0   3   1.0  2.0386784348619084e-32      13.065000000000003      13.065000000000003
   147   0   3   1.0      2.6130000000000004      10.452000000000002      13.065000000000003
   148   0   3   1.0      2.6130000000000004      13.065000000000003      10.452000000000002
   149   0   1  -1.0      2.6130000000000004      10.452000000000002      10.452000000000002
   150   0   1  -1.0      2.6130000000000004      13.065000000000003      13.065000000000003
   151   0   1  -1.0                       0      10.452000000000002      13.065000000000003
   152   0   1  -1.0  2.0386784348619084e-32      13.065000000000003      10.452000000000002
   153   0   3   1.0                       0      10.452000000000002      15.678000000000001
   154   0   3   1.0  2.0386784348619084e-32      13.065000000000003                  18.291
   155   0   3   1.0      2.6130000000000004      10.452000000000002                  18.291
   156   0   3   1.0      2.6130000000000004      13.065000000000003      15.678000000000001
   157   0   2   1.0      2.6130000000000004      10.452000000000002      15.678000000000001
   158   0   2   1.0      2.6130000000000004      13.065000000000003                  18.291
   159   0   1  -1.0                       0      10.452000000000002                  18.291
   160   0   1  -1.0  2.0386784348619084e-32      13.065000000000003      15.678000000000001
   161   0   3   1.0                       0      10.452000000000002      20.904000000000003
   162   0   3   1.0  2.0386784348619084e-32      13.065000000000003      23.517000000000003
   163   0   3   1.0      2.6130000000000004      10.452000000000002      23.517000000000003
   164   0   3   1.0      2.6130000000000004      13.065000000000003      20.904000000000003
   165   0   1  -1.0      2.6130000000000004      10.452000000000002      20.904000000000003
   166   0   2   1.0      2.6130000000000004      13.065000000000003      23.517000000000003
   167   0   2   1.0                       0      10.452000000000002      23.517000000000003
   168   0   1  -1.0  2.0386784348619084e-32      13.065000000000003      20.904000000000003
   169   0   3   1.0                       0      10.452000000000002      26.130000000000006
   170   0   3   1.0  2.0386784348619084e-32      13.065000000000003      28.743000000000006
   171   0   3   1.0      2.6130000000000004      10.452000000000002      28.743000000000006
   172   0   3   1.0      2.6130000000000004      13.065000000000003      26.130000000000006
   173   0   1  -1.0      2.6130000000000004      10.452000000000002      26.130000000000006
   174   0   1  -1.0      2.6130000000000004      13.065000000000003      28.743000000000006
   175   0   1  -1.0                       0      10.452000000000002      28.743000000000006
   176   0   1  -1.0  2.0386784348619084e-32      13.065000000000003      26.130000000000006
   177   0   3   1.0                       0      10.452000000000002      31.356000000000002
   178   0   3   1.0  2.0386784348619084e-32      13.065000000000003      33.969000000000001
   179   0   3   1.0      2.6130000000000004      10.452000000000002      33.969000000000001
   180   0   3   1.0      2.6130000000000004      13.065000000000003      31.356000000000002
   181   0   1  -1.0      2.6130000000000004      10.452000000000002      31.356000000000002
   182   0   1  -1.0      2.6130000000000004      13.065000000000003      33.969000000000001
   183   0   1  -1.0                       0      10.452000000000002      33.969000000000001
   184   0   1  -1.0  2.0386784348619084e-32      13.065000000000003      31.356000000000002
   185   0   3   1.0                       0      10.452000000000002      36.582000000000001
   186   0   3   1.0  2.0386784348619084e-32      13.065000000000003                  39.195
   187   0   3   1.0      2.6130000000000004      10.452000000000002                  39.195
   188   0   3   1.0      2.6130000000000004      13.065000000000003      36.582000000000001
   189   0   1  -1.0      2.6130000000000004      10.452000000000002      36.582000000000001
   190   0   1  -1.0      2.6130000000000004      13.065000000000003                  39.195
   191   0   1  -1.0                       0      10.452000000000002                  39.195
   192   0   1  -1.0  2.0386784348619084e-32      13.065000000000003      36.582000000000001
   193   0   3   1.0                       0      15.678000000000001                       0
   194   0   3   1.0  2.0386784348619084e-32                  18.291      2.6130000000000004
   195   0   3   1.0      2.6130000000000004      15.678000000000001      2.6130000000000004
   196   0   3   1.0      2.6130000000000004                  18.291 -3.7085406217417115e-32
   197   0   1  -1.0      2.6130000000000004      15.678000000000001 -1.8542703108708557e-32
   198   0   1  -1.0      2.6130000000000004                  18.291      2.6130000000000004
   199   0   2   1.0                       0      15.678000000000001      2.6130000000000004
   200   0   1  -1.0  2.0386784348619084e-32                  18.291  6.7182472018613486e-33
   201   0   3   1.0                       0      15.678000000000001      5.2260000000000009
   202   0   3   1.0  2.0386784348619084e-32                  18.291      7.8390000000000004
   203   0   3   1.0      2.6130000000000004      15.678000000000001      7.8390000000000004
   204   0   3   1.0      2.6130000000000004                  18.291      5.2260000000000009
   205   0   1  -1.0      2.6130000000000004      15.678000000000001      5.2260000000000009
   206   0   1  -1.0      2.6130000000000004                  18.291      7.8390000000000004
   207   0   2   1.0                       0      15.678000000000001      7.8390000000000004
   208   0   1  -1.0  2.0386784348619084e-32                  18.291      5.2260000000000009
   209   0   3   1.0                       0      15.678000000000001      10.452000000000002
   210   0   3   1.0  2.0386784348619084e-32                  18.291      13.065000000000003
   211   0   3   1.0      2.6130000000000004      15.678000000000001      13.065000000000003
   212   0   3   1.0      2.6130000000000004                  18.291      10.452000000000002
   213   0   1  -1.0      2.6130000000000004      15.678000000000001      10.452000000000002
   214   0   1  -1.0      2.6130000000000004                  18.291      13.065000000000003
   215   0   1  -1.0                       0      15.678000000000001      13.065000000000003
   216   0   1  -1.0  2.0386784348619084e-32                  18.291      10.452000000000002
   217   0   3   1.0                       0      15.678000000000001      15.678000000000001
   218   0   3   1.0  2.0386784348619084e-32                  18.291                  18.291
   219   0   3   1.0      2.6130000000000004      15.678000000000001                  18.291
   220   0   3   1.0      2.6130000000000004                  18.291      15.678000000000001
   221   0   1  -1.0      2.6130000000000004      15.678000000000001      15.678000000000001
   222   0   1  -1.0      2.6130000000000004                  18.291                  18.291
   223   0   1  -1.0                       0      15.678000000000001                  18.291
   224   0   1  -1.0  2.0386784348619084e-32                  18.291      15.678000000000001
   225   0   3   1.0                       0      15.678000000000001      20.904000000000003
   226   0   3   1.0  2.0386784348619084e-32                  18.291      23.517000000000003
   227   0   3   1.0      2.6130000000000004      15.678000000000001      23.517000000000003
   228   0   3   1.0      2.6130000000000004                  18.291      20.904000000000003
   229   0   1  -1.0      2.6130000000000004      15.678000000000001      20.904000000000003
   230   0   1  -1.0      2.6130000000000004                  18.291      23.517000000000003
   231   0   1  -1.0                       0      15.678000000000001      23.517000000000003
   232   0   2   1.0  2.0386784348619084e-32                  18.291      20.904000000000003
   233   0   3   1.0                       0      15.678000000000001      26.130000000000006
   234   0   3   1.0  2.0386784348619084e-32                  18.291      28.743000000000006
   235   0   3   1.0      2.6130000000000004      15.678000000000001      28.743000000000006
   236   0   3   1.0      2.6130000000000004                  18.291      26.130000000000006
   237   0   1  -1.0      2.6130000000000004      15.678000000000001      26.130000000000006
   238   0   1  -1.0      2.6130000000000004                  18.291      28.743000000000006
   239   0   1  -1.0                       0      15.678000000000001      28.743000000000006
   240   0   1  -1.0  2.0386784348619084e-32                  18.291      26.130000000000006
   241   0   3   1.0                       0      15.678000000000001      31.356000000000002
   242   0   3   1.0  2.0386784348619084e-32                  18.291      33.969000000000001
   243   0   3   1.0      2.6130000000000004      15.678000000000001      33.969000000000001
   244   0   3   1.0      2.6130000000000004                  18.291      31.356000000000002
   245   0   1  -1.0      2.6130000000000004      15.678000000000001      31.356000000000002
   246   0   1  -1.0      2.6130000000000004                  18.291      33.969000000000001
   247   0   1  -1.0                       0      15.678000000000001      33.969000000000001
   248   0   1  -1.0  2.0386784348619084e-32                  18.291      31.356000000000002
   249   0   3   1.0                       0      15.678000000000001      36.582000000000001
   250   0   3   1.0  2.0386784348619084e-32                  18.291                  39.195
   251   0   3   1.0      2.6130000000000004      15.678000000000001                  39.195
   252   0   3   1.0      2.6130000000000004                  18.291      36.582000000000001
   253   0   1  -1.0      2.6130000000000004      15.678000000000001      36.582000000000001
   254   0   1  -1.0      2.6130000000000004                  18.291                  39.195
   255   0   1  -1.0                       0      15.678000000000001                  39.195
   256   0   1  -1.0  2.0386784348619084e-32                  18.291      36.582000000000001
   257   0   3   1.0      5.2260000000000009                       0                       0
   258   0   3   1.0      5.2260000000000009      2.6130000000000004      2.6130000000000004
   259   0   3   1.0      7.8390000000000004                       0      2.6130000000000004
   260   0   3   1.0      7.8390000000000004      2.6130000000000004 -3.7085406217417115e-32
   261   0   1  -1.0      7.8390000000000004                       0 -1.8542703108708557e-32
   262   0   1  -1.0      7.8390000000000004      2.6130000000000004      2.6130000000000004
   263   0   1  -1.0      5.2260000000000009                       0      2.6130000000000004
   264   0   1  -1.0      5.2260000000000009      2.6130000000000004  6.7182472018613486e-33
   265   0   3   1.0      5.2260000000000009                       0      5.2260000000000009
   266   0   3   1.0      5.2260000000000009      2.6130000000000004      7.8390000000000004
   267   0   3   1.0      7.8390000000000004                       0      7.8390000000000004
   268   0   3   1.0      7.8390000000000004      2.6130000000000004      5.2260000000000009
   269   0   1  -1.0      7.8390000000000004                       0      5.2260000000000009
   270   0   1  -1.0      7.8390000000000004      2.6130000000000004      7.8390000000000004
   271   0   1  -1.0      5.2260000000000009                       0      7.8390000000000004
   272   0   1  -1.0      5.2260000000000009      2.6130000000000004      5.2260000000000009
   273   0   3   1.0      5.2260000000000009                       0      10.452000000000002
   274   0   3   1.0      5.2260000000000009      2.6130000000000004      13.065000000000003
   275   0   3   1.0      7.8390000000000004                       0      13.065000000000003
   276   0   3   1.0      7.8390000000000004      2.6130000000000004      10.452000000000002
   277   0   1  -1.0      7.8390000000000004                       0      10.452000000000002
   278   0   1  -1.0      7.8390000000000004      2.6130000000000004      13.065000000000003
   279   0   2   1.0      5.2260000000000009                       0      13.065000000000003
   280   0   1  -1.0      5.2260000000000009      2.6130000000000004      10.452000000000002
   281   0   3   1.0      5.2260000000000009                       0      15.678000000000001
   282   0   3   1.0      5.2260000000000009      2.6130000000000004                  18.291
   283   0   3   1.0      7.8390000000000004                       0                  18.291
   284   0   3   1.0      7.8390000000000004      2.6130000000000004      15.678000000000001
   285   0   1  -1.0      7.8390000000000004                       0      15.678000000000001
   286   0   1  -1.0      7.8390000000000004      2.6130000000000004                  18.291
   287   0   1  -1.0      5.2260000000000009                       0                  18.291
   288   0   1  -1.0      5.2260000000000009      2.6130000000000004      15.678000000000001
   289   0   3   1.0      5.2260000000000009                       0      20.904000000000003
   290   0   3   1.0      5.2260000000000009      2.6130000000000004      23.517000000000003
   291   0   3   1.0      7.8390000000000004                       0      23.517000000000003
   292   0   3   1.0      7.8390000000000004      2.6130000000000004      20.904000000000003
   293   0   1  -1.0      7.8390000000000004                       0      20.904000000000003
   294   0   1  -1.0      7.8390000000000004      2.6130000000000004      23.517000000000003
   295   0   1  -1.0      5.2260000000000009                       0      23.517000000000003
   296   0   2   1.0      5.2260000000000009      2.6130000000000004      20.904000000000003
   297   0   3   1.0      5.2260000000000009                       0      26.130000000000006
   298   0   3   1.0      5.2260000000000009      2.6130000000000004      28.743000000000006
   299   0   3   1.0      7.8390000000000004                       0      28.743000000000006
   300   0   3   1.0      7.8390000000000004      2.6130000000000004      26.130000000000006
   301   0   1  -1.0      7.8390000000000004                       0      26.130000000000006
   302   0   1  -1.0      7.8390000000000004      2.6130000000000004      28.743000000000006
   303   0   1  -1.0      5.2260000000000009                       0      28.743000000000006
   304   0   1  -1.0      5.2260000000000009      2.6130000000000004      26.130000000000006
   305   0   3   1.0      5.2260000000000009                       0      31.356000000000002
   306   0   3   1.0      5.2260000000000009      2.6130000000000004      33.969000000000001
   307   0   3   1.0      7.8390000000000004                       0      33.969000000000001
   308   0   3   1.0      7.8390000000000004      2.6130000000000004      31.356000000000002
   309   0   1  -1.0      7.8390000000000004                       0      31.356000000000002
   310   0   2   1.0      7.8390000000000004      2.6130000000000004      33.969000000000001
   311   0   1  -1.0      5.2260000000000009                       0      33.969000000000001
   312   0   1  -1.0      5.2260000000000009      2.6130000000000004      31.356000000000002
   313   0   3   1.0      5.2260000000000009                       0      36.582000000000001
   314   0   3   1.0      5.2260000000000009      2.6130000000000004                  39.195
   315   0   3   1.0      7.8390000000000004                       0                  39.195
   316   0   3   1.0      7.8390000000000004      2.6130000000000004      36.582000000000001
   317   0   1  -1.0      7.8390000000000004                       0      36.582000000000001
   318   0   2   1.0      7.8390000000000004      2.6130000000000004                  39.195
   319   0   1  -1.0      5.2260000000000009                       0                  39.195