LAMMPS (29 Sep 2021 - Update 3)
OMP_NUM_THREADS environment is not set. Defaulting to 1 thread. (src/comm.cpp:98)
  using 1 OpenMP thread(s) per MPI task
units	metal
atom_style	full

read_data	mixed.data
Reading data file ...
  orthogonal box = (0.0000000 0.0000000 0.0000000) to (18.492711 18.368364 83.044081)
  2 by 1 by 8 MPI processor grid
  reading atoms ...
  864 atoms
Finding 1-2 1-3 1-4 neighbors ...
  special bond factors lj:    0        0        0       
  special bond factors coul:  0        0        0       
     0 = max # of 1-2 neighbors
     0 = max # of 1-3 neighbors
     0 = max # of 1-4 neighbors
     1 = max # of special neighbors
  special bonds CPU = 0.001 seconds
  read_data CPU = 0.046 seconds

pair_style	quip
pair_coeff	* * /ocean/projects/cts180021p/wuziqi/clease/mint-PD/PhaseDiagram-Clease/Liquid/GAP_potential/gap_LiKCl.xml "Potential xml_label=GAP_2021_9_27_0_1_17_37_618" 17 19 3

neighbor	0.3 bin
neigh_modify	delay 10

timestep	0.001
compute	msd all msd
thermo_style	custom step temp pe etotal press vol c_msd[4]
thermo	10
dump	1 all custom 10 xyz-mix.dump type id x y z
dump	2 all custom 10 force-mix.dump type id fx fy fz

fix     1 all nve
run     2000
Neighbor list info ...
  update every 1 steps, delay 10 steps, check yes
  max neighbors/atom: 2000, page size: 100000
  master list distance cutoff = 6.22
  ghost atom cutoff = 6.22
  binsize = 3.11, bins = 6 6 27
  1 neighbor lists, perpetual/occasional/extra = 1 0 0
  (1) pair quip, perpetual
      attributes: full, newton on
      pair build: full/bin
      stencil: full/bin/3d
      bin: standard
Per MPI rank memory allocation (min/avg/max) = 8.888 | 8.895 | 8.900 Mbytes
Step Temp PotEng TotEng Press Volume c_msd[4] 
       0            0   -7973.6696   -7973.6696   -2874.2394    28208.484            0 
      10    41.278351   -7978.2784   -7973.6737   -2959.4518    28208.484 0.00023887099 
      20    117.01377   -7986.7312   -7973.6782   -2971.9336    28208.484 0.0029537371 
      30    174.81925   -7993.1785   -7973.6771   -2824.2466    28208.484  0.010160551 
      40    218.44962    -7998.045   -7973.6766   -2720.6333    28208.484  0.020641735 
      50    256.00476   -8002.2349   -7973.6771   -2700.3711    28208.484  0.032489043 
      60    281.23595   -8005.0509   -7973.6786   -2720.3164    28208.484  0.045481137 
      70    279.84796   -8004.8936   -7973.6762   -2497.2427    28208.484  0.060875411 
      80    275.57271   -8004.4166   -7973.6761   -2346.6282    28208.484  0.078472831 
      90    275.14134   -8004.3684    -7973.676   -2375.5075    28208.484  0.097756432 
     100    277.97329   -8004.6843   -7973.6759   -2450.2098    28208.484   0.11838341 
     110    284.32121   -8005.3929   -7973.6764   -2585.3887    28208.484    0.1397563 
     120    288.42818   -8005.8514   -7973.6768   -2555.7238    28208.484   0.16133553 
     130    287.27066   -8005.7216   -7973.6761   -2379.8786    28208.484   0.18293983 
     140    286.58177   -8005.6454   -7973.6767   -2199.4073    28208.484   0.20440576 
     150    283.09159    -8005.256   -7973.6767   -2058.8623    28208.484   0.22545748 
     160    281.87093     -8005.12   -7973.6769   -2002.9487    28208.484   0.24504756 
     170    281.00839    -8005.024   -7973.6771   -2057.3307    28208.484   0.26222423 
     180    282.68046     -8005.21   -7973.6765   -2118.7926    28208.484   0.27648184 
     190    291.53832   -8006.1995   -7973.6779   -2237.0667    28208.484   0.28923786 
     200    293.64302   -8006.4325   -7973.6762   -2373.3356    28208.484   0.30372277 
     210    298.64228   -8006.9936   -7973.6796   -2435.1957    28208.484   0.32052492 
     220    292.65421   -8006.3221   -7973.6761   -2273.8456    28208.484   0.33666335 
     230    296.18967   -8006.7198   -7973.6794   -2277.4624    28208.484   0.34931106 
     240    282.07352   -8005.1401   -7973.6743   -2198.7147    28208.484   0.36070053 
     250    293.47873    -8006.417    -7973.679   -2346.9356    28208.484   0.37209929 
     260    294.86866   -8006.5718   -7973.6788   -2406.0825    28208.484   0.38456478 
     270    292.66954   -8006.3399   -7973.6921   -2371.6679    28208.484   0.39632792 
     280    288.22645   -8005.8424   -7973.6903   -2343.9303    28208.484   0.40740341 
     290    280.03766   -8004.9272   -7973.6886   -2399.6918    28208.484   0.41930862 
     300    280.42672   -8004.9707   -7973.6886   -2493.7264    28208.484   0.43203295 
     310    287.66524   -8005.7795     -7973.69   -2540.7382    28208.484   0.44617059 
     320    287.59248   -8005.7709   -7973.6895   -2479.6365    28208.484   0.46153129 
     330    287.30367   -8005.7384   -7973.6892   -2430.7941    28208.484   0.47558463 
     340      291.107   -8006.1632   -7973.6897   -2433.3574    28208.484   0.48761679 
     350    290.07985   -8006.0486   -7973.6898   -2407.8749    28208.484   0.49931209 
     360    283.46216   -8005.3096    -7973.689    -2324.857    28208.484   0.51138392 
     370    283.31611   -8005.2933    -7973.689   -2223.9029    28208.484   0.52363749 
     380    293.81781   -8006.4657   -7973.6899   -2201.7975    28208.484   0.53571675 
     390    300.79692   -8007.2454   -7973.6911   -2203.1603    28208.484   0.54763687 
     400    296.63974     -8006.78   -7973.6894   -2207.2978    28208.484   0.55946952 
     410     295.9675   -8006.7055   -7973.6899    -2389.454    28208.484   0.57119336 
     420    296.34311   -8006.7466   -7973.6891   -2528.2941    28208.484   0.58115249 
     430    302.08464   -8007.3879   -7973.6899   -2546.6384    28208.484   0.58802692 
     440    300.89773   -8007.2566    -7973.691   -2408.1467    28208.484   0.59313659 
     450    295.75798   -8006.6815   -7973.6893   -2201.4544    28208.484   0.59704421 
     460    298.71554   -8007.0127   -7973.6905   -2097.6901    28208.484   0.60034051 
     470    293.57038   -8006.4367   -7973.6885   -1853.8963    28208.484   0.60455383 
     480    299.68957   -8007.1205   -7973.6897   -1687.1392    28208.484   0.60898733 
     490    304.28303    -8007.634   -7973.6908   -1569.5251    28208.484   0.61372446 
     500    297.76534   -8006.9049   -7973.6887   -1520.9163    28208.484   0.61909997 
     510     298.0343    -8006.936   -7973.6898   -1578.3555    28208.484     0.624484 
     520    298.51386   -8006.9892   -7973.6895   -1617.2528    28208.484   0.63055005 
     530    299.67651    -8007.119   -7973.6896   -1583.6011    28208.484   0.63765456 
     540    301.93935   -8007.3714   -7973.6896    -1486.536    28208.484   0.64551302 
     550    304.04909   -8007.6074   -7973.6903   -1392.2763    28208.484    0.6536082 
     560    304.32541   -8007.6381   -7973.6901   -1287.1967    28208.484   0.66116979 
     570    303.65289   -8007.5627   -7973.6898   -1155.3607    28208.484   0.66831766 
     580    306.61685   -8007.8931   -7973.6895   -1197.3354    28208.484   0.67540713 
     590    314.13334   -8008.7329   -7973.6909   -1349.2051    28208.484   0.68183493 
     600    314.58012   -8008.7816   -7973.6897   -1383.1623    28208.484   0.68848067 
     610    313.36382   -8008.6461   -7973.6899   -1339.6031    28208.484   0.69624527 
     620     312.9428   -8008.5985   -7973.6893   -1300.0364    28208.484   0.70606469 
     630    317.72028    -8009.132   -7973.6899   -1341.7477    28208.484   0.71807814 
     640    322.57063   -8009.6733   -7973.6901   -1410.5145    28208.484   0.73069429 
     650    323.60168   -8009.7886   -7973.6903   -1540.2113    28208.484   0.74223138 
     660    318.39172   -8009.2068   -7973.6897   -1568.6259    28208.484   0.75263353 
     670    316.27474   -8008.9702   -7973.6892   -1586.0839    28208.484    0.7619451 
     680    320.95534   -8009.4935   -7973.6904   -1558.4885    28208.484   0.77150239 
     690    319.85933   -8009.3708     -7973.69    -1459.468    28208.484   0.78296875 
     700    315.81982   -8008.9199   -7973.6897   -1330.2989    28208.484   0.79605918 
     710    316.18394   -8008.9601   -7973.6893   -1285.6029    28208.484   0.80930055 
     720    321.99795   -8009.6098   -7973.6904   -1374.2337    28208.484   0.82124899 
     730    320.60154   -8009.4538   -7973.6902   -1440.5044    28208.484   0.83277534 
     740    316.58517   -8009.0043   -7973.6888   -1452.0725    28208.484    0.8439361 
     750    321.27163   -8009.5293    -7973.691   -1655.1798    28208.484     0.854338 
     760    314.38368   -8008.7598   -7973.6899   -1838.5562    28208.484   0.86584884 
     770     305.9368   -8007.8166   -7973.6889   -1999.9526    28208.484   0.87941766 
     780    305.71483   -8007.7927   -7973.6897   -2140.7584    28208.484   0.89394007 
     790    305.84031   -8007.8065   -7973.6896   -2209.2571    28208.484   0.90782838 
     800    306.48205   -8007.8784   -7973.6899   -2275.1918    28208.484   0.92026204 
     810    304.33355   -8007.6388   -7973.6899   -2343.4421    28208.484   0.93178116 
     820    297.82924   -8006.9125   -7973.6892   -2314.2529    28208.484    0.9431626 
     830    296.11711   -8006.7216   -7973.6893   -2340.1192    28208.484   0.95457823 
     840    299.50491   -8007.0998   -7973.6896   -2406.4366    28208.484   0.96506277 
     850    304.52466   -8007.6597   -7973.6895   -2460.7845    28208.484   0.97329313 
     860     310.8399   -8008.3649   -7973.6902   -2449.0401    28208.484   0.97916609 
     870    310.67413   -8008.3459   -7973.6897   -2327.6881    28208.484   0.98350092 
     880    309.42712   -8008.2065   -7973.6894   -2225.4629    28208.484   0.98651824 
     890    311.26126   -8008.4116   -7973.6899    -2248.854    28208.484   0.98981853 
     900    313.26109   -8008.6341   -7973.6893   -2271.1415    28208.484     0.995508 
     910    320.18937   -8009.4082   -7973.6906   -2399.0494    28208.484    1.0049166 
     920    319.06768   -8009.2826   -7973.6901    -2517.896    28208.484    1.0179539 
     930    311.48412   -8008.4358   -7973.6893   -2630.8665    28208.484    1.0322955 
     940    307.33364   -8007.9728   -7973.6893   -2692.4224    28208.484    1.0452919 
     950    306.79072   -8007.9125   -7973.6895   -2690.0291    28208.484    1.0559933 
     960    307.40028   -8007.9805   -7973.6895    -2685.778    28208.484    1.0648912 
     970    308.12458   -8008.0613   -7973.6895   -2650.3957    28208.484    1.0729687 
     980    308.40186   -8008.0924   -7973.6897   -2580.8757    28208.484    1.0808973 
     990    307.35297   -8007.9752   -7973.6895    -2481.356    28208.484    1.0887898 
    1000    307.21435     -8007.96   -7973.6898   -2353.6684    28208.484    1.0961224 
    1010    306.76152   -8007.9091   -7973.6894   -2248.7956    28208.484    1.1027335 
    1020    309.26646    -8008.189   -7973.6898   -2286.0041    28208.484    1.1099454 
    1030    310.25342   -8008.2989   -7973.6897   -2305.1256    28208.484    1.1183111 
    1040    307.62812   -8008.0062   -7973.6898    -2294.831    28208.484    1.1271276 
    1050    300.85261   -8007.2498   -7973.6892   -2274.7356    28208.484    1.1353455 
    1060    298.03491   -8006.9356   -7973.6894   -2274.0022    28208.484    1.1412949 
    1070     298.1827   -8006.9525   -7973.6898   -2240.2755    28208.484    1.1449307 
    1080    298.32389   -8006.9674   -7973.6889   -2186.0158    28208.484    1.1478628 
    1090    304.12167   -8007.6156   -7973.6903   -2224.5843    28208.484    1.1507358 
    1100    303.21342   -8007.5135   -7973.6896   -2273.1413    28208.484    1.1542182 
    1110    302.55349   -8007.4391   -7973.6888   -2350.8777    28208.484    1.1583885 
    1120    311.89752   -8008.4827   -7973.6901   -2437.4889    28208.484     1.162828 
    1130    317.78566     -8009.14   -7973.6905   -2446.8483    28208.484     1.167408 
    1140    311.56568   -8008.4454   -7973.6898   -2410.0182    28208.484    1.1717043 
    1150    303.07264   -8007.4971   -7973.6889   -2380.3816    28208.484    1.1751291 
    1160    303.70308   -8007.5677   -7973.6892    -2470.872    28208.484    1.1775178 
    1170    310.51899   -8008.3284   -7973.6895   -2617.7569    28208.484    1.1788381 
    1180    316.91994   -8009.0426   -7973.6898   -2682.3818    28208.484    1.1790698 
    1190    320.34041   -8009.4241   -7973.6896   -2666.8258    28208.484    1.1789053 
    1200    321.06279   -8009.5055   -7973.6905   -2603.0061    28208.484    1.1796194 
    1210    314.26027   -8008.7456   -7973.6894   -2485.4053    28208.484    1.1821764 
    1220    309.32884    -8008.196   -7973.6899    -2464.998    28208.484    1.1865082 
    1230    306.19371   -8007.8458   -7973.6895   -2530.8384    28208.484    1.1911967 
    1240    306.63151   -8007.8948   -7973.6896   -2616.4378    28208.484    1.1944331 
    1250    309.06475   -8008.1663   -7973.6897   -2607.8093    28208.484    1.1957913 
    1260    312.48643   -8008.5482   -7973.6898    -2462.899    28208.484    1.1957707 
    1270    312.94072   -8008.5995   -7973.6905   -2234.5909    28208.484    1.1949586 
    1280    309.44145   -8008.2076   -7973.6889   -2027.1289    28208.484    1.1941489 
    1290    314.87458   -8008.8149   -7973.6902   -1974.2087    28208.484    1.1943163 
    1300    319.36818   -8009.3159   -7973.6899   -1982.4404    28208.484     1.195877 
    1310    321.84143   -8009.5922   -7973.6903   -1943.5386    28208.484    1.1987306 
    1320    321.73486     -8009.58     -7973.69    -1845.706    28208.484    1.2036004 
    1330    320.53672   -8009.4466   -7973.6902   -1700.8294    28208.484    1.2106875 
    1340    314.45984   -8008.7682   -7973.6898   -1509.1942    28208.484    1.2186301 
    1350    308.88407   -8008.1459   -7973.6894   -1443.5528    28208.484    1.2257175 
    1360    308.85021   -8008.1421   -7973.6894   -1546.3935    28208.484    1.2310073 
    1370    314.64585   -8008.7893   -7973.6901   -1721.3694    28208.484     1.234708 
    1380    316.29012   -8008.9734   -7973.6908   -1817.9195    28208.484    1.2377498 
    1390    307.32275   -8007.9718   -7973.6895   -1803.5548    28208.484    1.2409119 
    1400    301.76471   -8007.3515   -7973.6892   -1859.1426    28208.484    1.2443267 
    1410    303.86241   -8007.5861   -7973.6897   -1936.9087    28208.484    1.2481193 
    1420    306.88628   -8007.9231   -7973.6894   -1917.1497    28208.484    1.2526965 
    1430    311.21927   -8008.4068   -7973.6898   -1887.7633    28208.484    1.2583105 
    1440    313.42496   -8008.6528   -7973.6898   -1851.4527    28208.484    1.2642026 
    1450     313.3569   -8008.6451   -7973.6897   -1798.7574    28208.484     1.269636 
    1460    313.21275   -8008.6295   -7973.6901   -1825.1156    28208.484    1.2754342 
    1470    309.64761   -8008.2313   -7973.6896   -1804.0626    28208.484    1.2823313 
    1480    309.40126   -8008.2029   -7973.6887   -1783.0935    28208.484    1.2890305 
    1490    320.42565   -8009.4341   -7973.6901   -1893.3186    28208.484    1.2938055 
    1500    328.10175   -8010.2905   -7973.6903   -1974.4184    28208.484    1.2976917 
    1510    327.81197   -8010.2577   -7973.6898    -1937.058    28208.484    1.3022885 
    1520     324.2243   -8009.8576   -7973.6899   -1828.5619    28208.484    1.3070588 
    1530    318.99753   -8009.2739   -7973.6893   -1744.3097    28208.484    1.3111416 
    1540    315.99968   -8008.9401   -7973.6899   -1679.5222    28208.484    1.3147163 
    1550    311.82694   -8008.4737   -7973.6889   -1676.3191    28208.484     1.318865 
    1560    315.99733   -8008.9396   -7973.6896   -1782.1266    28208.484    1.3245612 
    1570    321.70035   -8009.5765   -7973.6904   -1943.6277    28208.484    1.3315419 
    1580    318.91113   -8009.2648   -7973.6898   -1980.5418    28208.484     1.338424 
    1590    316.40503   -8008.9842   -7973.6888   -1871.1257    28208.484    1.3448929 
    1600    323.69059   -8009.7984   -7973.6903   -1863.2593    28208.484    1.3517889 
    1610    324.55521    -8009.895   -7973.6903   -1926.3043    28208.484    1.3589892 
    1620    317.22283   -8009.0757    -7973.689    -2033.451    28208.484    1.3640281 
    1630    315.56944   -8008.8917   -7973.6895   -2189.5743    28208.484    1.3650114 
    1640          316   -8008.9396   -7973.6894   -2246.5115    28208.484     1.363698 
    1650     317.3618   -8009.0917   -7973.6895   -2167.3771    28208.484    1.3628757 
    1660    317.92845   -8009.1553   -7973.6899   -2101.0814    28208.484    1.3639966 
    1670    314.61233   -8008.7852   -7973.6897   -2010.9785    28208.484    1.3669961 
    1680    312.18324   -8008.5133   -7973.6888   -2055.2147    28208.484     1.371293 
    1690    317.45918   -8009.1028   -7973.6897    -2191.224    28208.484    1.3761955 
    1700    321.08797   -8009.5076   -7973.6898   -2266.1824    28208.484    1.3813209 
    1710    322.36089   -8009.6492   -7973.6893   -2262.0514    28208.484    1.3861808 
    1720    325.18317   -8009.9643   -7973.6896   -2258.3202    28208.484    1.3904451 
    1730    326.15411   -8010.0728   -7973.6898    -2317.316    28208.484     1.394947 
    1740     323.8725   -8009.8181   -7973.6896   -2287.8062    28208.484    1.4007384 
    1750    320.41839   -8009.4325   -7973.6894   -2200.4994    28208.484    1.4075406 
    1760     319.2517   -8009.3028   -7973.6898   -2148.7833    28208.484     1.414045 
    1770    317.70647   -8009.1306     -7973.69    -2060.265    28208.484    1.4199919 
    1780    313.91842   -8008.7076   -7973.6895   -1900.1987    28208.484    1.4259827 
    1790    313.00692   -8008.6058   -7973.6894   -1752.6987    28208.484    1.4322179 
    1800     316.3606   -8008.9805     -7973.69   -1656.4741    28208.484    1.4376798 
    1810    317.06323    -8009.059   -7973.6901   -1611.9912    28208.484    1.4414287 
    1820    314.75826    -8008.801   -7973.6892    -1594.078    28208.484    1.4434919 
    1830    319.39788   -8009.3191   -7973.6898   -1580.2478    28208.484    1.4448335 
    1840    326.94741   -8010.1618   -7973.6903   -1586.0007    28208.484    1.4478206 
    1850     328.2751   -8010.3099   -7973.6903   -1510.9657    28208.484    1.4534245 
    1860    325.54844   -8010.0044    -7973.689   -1434.8489    28208.484    1.4597334 
    1870    330.22766   -8010.5276   -7973.6902   -1485.8246    28208.484    1.4649668 
    1880    331.47708   -8010.6665   -7973.6897   -1548.2944    28208.484    1.4702024 
    1890    330.21474   -8010.5256   -7973.6896   -1516.0861    28208.484    1.4764703 
    1900    331.58833   -8010.6782    -7973.689   -1442.8287    28208.484    1.4834549 
    1910    337.92691   -8011.3872    -7973.691   -1475.0881    28208.484    1.4904186 
    1920     332.3277   -8010.7614   -7973.6897   -1417.3686    28208.484    1.4973123 
    1930    326.40875   -8010.1005   -7973.6891    -1294.946    28208.484    1.5028962 
    1940    327.61985   -8010.2367   -7973.6902   -1344.4187    28208.484    1.5071937 
    1950    326.33555   -8010.0933   -7973.6901   -1454.2005    28208.484    1.5117741 
    1960    320.98412   -8009.4961   -7973.6898    -1539.947    28208.484    1.5179832 
    1970    316.38994    -8008.983   -7973.6892   -1494.5471    28208.484    1.5266599 
    1980    318.66568   -8009.2379   -7973.6903    -1430.619    28208.484     1.537506 
    1990    319.09324   -8009.2848   -7973.6895   -1383.3475    28208.484     1.548395 
    2000    324.20331   -8009.8559   -7973.6905   -1553.3118    28208.484     1.556546 
Loop time of 1818.87 on 16 procs for 2000 steps with 864 atoms

Performance: 0.095 ns/day, 252.620 hours/ns, 1.100 timesteps/s
98.1% CPU use with 16 MPI tasks x 1 OpenMP threads

MPI task timing breakdown:
Section |  min time  |  avg time  |  max time  |%varavg| %total
---------------------------------------------------------------
Pair    | 1448       | 1632       | 1787.1     | 292.3 | 89.73
Bond    | 0.00020576 | 0.00064901 | 0.0012145  |   0.0 |  0.00
Neigh   | 0.021449   | 0.036847   | 0.13238    |  16.2 |  0.00
Comm    | 30.522     | 180.85     | 369.09     | 862.9 |  9.94
Output  | 1.1878     | 5.9001     | 16.529     | 203.6 |  0.32
Modify  | 0.011363   | 0.012995   | 0.016692   |   1.2 |  0.00
Other   |            | 0.077      |            |       |  0.00

Nlocal:        54.0000 ave          63 max          48 min
Histogram: 5 0 1 2 2 1 1 2 0 2
Nghost:        409.688 ave         449 max         386 min
Histogram: 3 3 1 3 2 1 1 0 0 2
Neighs:         0.00000 ave           0 max           0 min
Histogram: 16 0 0 0 0 0 0 0 0 0
FullNghs:      1604.62 ave        2106 max        1301 min
Histogram: 5 0 2 2 2 0 2 1 1 1

Total # of neighbors = 25674
Ave neighs/atom = 29.715278
Ave special neighs/atom = 0.0000000
Neighbor list builds = 199
Dangerous builds = 198
unfix   1

velocity    all create 637.5 1312343 dist gaussian
fix     2 all npt temp 637.5 637.5 $(100.0*dt) aniso 0.0 1.01325 $(1000.0*dt)
fix     2 all npt temp 637.5 637.5 0.10000000000000000555 aniso 0.0 1.01325 $(1000.0*dt)
fix     2 all npt temp 637.5 637.5 0.10000000000000000555 aniso 0.0 1.01325 1
run     3000
Per MPI rank memory allocation (min/avg/max) = 8.893 | 8.897 | 8.900 Mbytes
Step Temp PotEng TotEng Press Volume c_msd[4] 
    2000        637.5   -8009.8559   -7938.7418   -229.97445    28208.484     1.556546 
    2010     604.4361    -8006.157   -7938.7312   -80.122741    28208.181    1.5579322 
    2020    553.04071   -8000.3464   -7938.6538    153.06847    28207.652    1.5608908 
    2030    519.05796   -7996.3296   -7938.4279    449.16919    28207.632    1.5640738 
    2040    498.54182    -7993.614   -7938.0009    758.86474    28209.041    1.5689981 
    2050    487.49033   -7991.7403     -7937.36    901.61953    28212.799    1.5778408 
    2060    485.73023   -7990.7343   -7936.5504    899.58304    28219.367    1.5910718 
    2070    484.63237   -7989.7498   -7935.6883    716.17391    28228.731    1.6069362 
    2080    491.41108   -7989.7035   -7934.8858    292.94982    28240.305    1.6227779 
    2090    491.41327     -7988.98   -7934.1622   -94.883188    28252.854    1.6381113 
    2100    481.33206   -7987.1711   -7933.4778   -295.45932     28265.19    1.6538259 
    2110     475.9873   -7985.8655   -7932.7684   -263.19552    28276.697     1.669187 
    2120    476.61901   -7985.1566    -7931.989    -122.0002    28287.441    1.6831432 
    2130    479.43602   -7984.6154   -7931.1336   -54.859198    28297.825     1.695448 
    2140    487.49467   -7984.5938    -7930.213   -176.07521    28308.028    1.7053804 
    2150    503.71775   -7985.4311   -7929.2407   -343.06998    28317.704    1.7123308 
    2160    518.21081   -7986.0437   -7928.2365   -411.70518    28326.348    1.7173469 
    2170    528.51219   -7986.1857   -7927.2293   -490.83807    28333.708    1.7220522 
    2180    538.98149   -7986.3472    -7926.223   -604.78186    28339.524    1.7280329 
    2190    540.41167   -7985.5032   -7925.2194   -556.52865    28343.503    1.7368212 
    2200    537.48834   -7984.1773   -7924.2197   -544.01043    28345.729    1.7481294 
    2210    533.49406   -7982.7256   -7923.2135   -522.79158    28346.262     1.759287 
    2220    529.97414   -7981.3134   -7922.1939   -485.27438    28345.153    1.7669724 
    2230    537.65912   -7981.1291   -7921.1524   -502.39231    28342.488    1.7696589 
    2240    548.70901   -7981.2984   -7920.0891   -392.71132    28338.263    1.7701917 
    2250    549.86288   -7980.3643   -7919.0263   -96.020458    28332.843    1.7732478 
    2260    553.91209   -7979.7642   -7917.9745    185.40804    28327.103    1.7806693 
    2270    557.80236   -7979.1469   -7916.9232    350.74951    28321.914    1.7920439 
    2280    558.25237   -7978.1504   -7915.8765    442.15418     28317.81    1.8070412 
    2290    564.81376   -7977.8391   -7914.8333    525.06788    28315.083     1.825032 
    2300    572.04143      -7977.6   -7913.7879    653.14401    28314.027    1.8430056 
    2310    581.77951   -7977.6485   -7912.7501    727.87708    28315.021    1.8574806 
    2320     585.0829   -7976.9914   -7911.7245    809.73948    28318.324    1.8673251 
    2330     592.5755   -7976.8205   -7910.7178    691.78356    28324.144    1.8725106 
    2340    606.51058   -7977.3804   -7909.7232    470.29583    28332.173     1.875008 
    2350    609.44608   -7976.7395   -7908.7549     217.4628    28341.737    1.8780606 
    2360    611.02244   -7975.9848   -7907.8243   -19.763675    28352.066    1.8839909 
    2370    615.47027   -7975.5772   -7906.9206   -134.36204    28362.434    1.8942513 
    2380    611.52958   -7974.2629   -7906.0459   -26.894532    28372.511    1.9085915 
    2390    594.06554   -7971.4664   -7905.1975    181.59992    28382.605    1.9253641 
    2400    593.04633   -7970.5057   -7904.3505    282.95425    28393.329    1.9413335 
    2410    608.20146    -7971.317   -7903.4712    241.64481    28405.011    1.9535055 
    2420    626.59879   -7972.4785   -7902.5804    238.05733     28417.58    1.9613158 
    2430     636.9445    -7972.768   -7901.7158     296.5448    28431.038    1.9662991 
    2440    636.16978   -7971.8725   -7900.9068    333.66526    28445.548    1.9716254 
    2450    638.46355   -7971.3718   -7900.1502    275.83851    28461.228    1.9807259 
    2460    645.51141   -7971.4441   -7899.4363    71.867889    28477.887    1.9953891 
    2470    645.02603   -7970.7226    -7898.769   -38.002883    28494.968     2.014828 
    2480     645.8379   -7970.1953   -7898.1511    53.050217    28512.155    2.0359269 
    2490    645.90221    -7969.626   -7897.5747    240.36217     28529.71    2.0547416 
    2500    647.28349   -7969.2408   -7897.0353    207.47692    28548.134    2.0693283 
    2510    651.74858   -7969.2297   -7896.5261    86.371899     28567.39    2.0813583 
    2520    650.67674   -7968.6362   -7896.0522    1.5142073    28587.133    2.0951341 
    2530      652.251    -7968.373   -7895.6134   -166.27133    28607.056     2.114187 
    2540     657.2389   -7968.5251   -7895.2091   -432.83936    28626.607    2.1377097 
    2550    662.77324   -7968.7843   -7894.8509   -618.46291    28644.971    2.1619151 
    2560    659.52718   -7968.1201   -7894.5488   -615.53216    28661.563    2.1832383 
    2570      656.767   -7967.5666   -7894.3033   -562.67985    28676.336     2.199512 
    2580    649.43395   -7966.5476   -7894.1023   -414.85486     28689.47    2.2119141 
    2590    639.99755   -7965.3226   -7893.9299   -190.94902    28701.436    2.2238905 
    2600    643.60115   -7965.5635   -7893.7688   -194.00309    28712.842    2.2373688 
    2610     649.4811   -7966.0676    -7893.617   -243.45969    28723.742    2.2523047 
    2620    653.94667   -7966.4386   -7893.4899   -278.42375    28733.967    2.2677073 
    2630    652.93896   -7966.2355   -7893.3992   -380.62599    28743.375    2.2834122 
    2640     645.5439   -7965.3522   -7893.3408   -594.94103    28751.631    2.2984915 
    2650    633.72661   -7963.9929   -7893.2998   -865.92774    28758.024    2.3118723 
    2660    625.79346   -7963.0595   -7893.2513   -1085.1322    28761.671    2.3238953 
    2670    633.48493   -7963.8498   -7893.1836   -1267.7956    28761.822    2.3358943 
    2680    647.27526   -7965.3161   -7893.1115   -1306.2665    28757.873    2.3480467 
    2690    649.55817   -7965.5192   -7893.0601   -1052.5981    28749.679    2.3584015 
    2700    645.40471   -7965.0306   -7893.0348   -795.25637     28737.94    2.3653729 
    2710    644.52884   -7964.9288   -7893.0307   -714.46125     28723.41    2.3690565 
    2720    639.04775   -7964.3285   -7893.0418   -642.87087    28706.364    2.3712173 
    2730    632.77914   -7963.6419   -7893.0545   -448.32065     28687.04    2.3730421 
    2740    638.97453   -7964.3362   -7893.0577   -227.35867        28666    2.3771448 
    2750     650.1925   -7965.5935   -7893.0636   -76.683899    28643.917    2.3875778 
    2760    648.24281   -7965.4047   -7893.0922   -17.885979     28621.27    2.4038212 
    2770    643.00705   -7964.8768   -7893.1484   -57.231554    28598.251    2.4204128 
    2780    646.18283   -7965.3042   -7893.2215   -209.43048    28574.736    2.4315637 
    2790    668.66497   -7967.9242   -7893.3337   -539.64894    28550.188    2.4360723 
    2800    668.10576   -7968.0439   -7893.5157    -615.0473    28523.662    2.4389691 
    2810    653.54672   -7966.6686   -7893.7644   -430.53157    28494.897    2.4428124 
    2820    650.92342   -7966.6645    -7894.053   -228.83395     28464.39    2.4471674 
    2830    648.35845   -7966.6954     -7894.37    100.21274    28432.808    2.4523143 
    2840    629.33043   -7964.8932   -7894.6905    564.01391     28401.21     2.459004 
    2850    619.51122   -7964.0872   -7894.9798    907.61775    28371.014    2.4667524 
    2860    628.04761     -7965.29   -7895.2304    1016.7485    28343.314    2.4754503 
    2870    638.01612   -7966.6284   -7895.4568    1046.5659    28318.534    2.4856529 
    2880    644.61048   -7967.5901   -7895.6828    1102.4841    28296.835    2.4972977 
    2890    643.29115    -7967.687   -7895.9269    1104.3437    28278.387    2.5098849 
    2900     636.3396   -7967.1694   -7896.1848    1118.6741    28263.269    2.5219924 
    2910    627.67967   -7966.4524   -7896.4338    1163.2187    28251.572    2.5333573 
    2920    629.94173   -7966.9356   -7896.6647    1130.4536    28243.413    2.5437149 
    2930     629.6392   -7967.1148   -7896.8776    1208.6548    28238.786    2.5518238 
    2940    633.30396   -7967.7256   -7897.0795    1267.8879    28237.919    2.5572259 
    2950    640.37291   -7968.7141   -7897.2795     1185.901    28241.014    2.5628475 
    2960    632.21359    -7968.005   -7897.4806    1043.1976    28247.879    2.5721651 
    2970    620.07451   -7966.8414   -7897.6711    894.42347    28258.112    2.5850874 
    2980     613.5384   -7966.2614   -7897.8203    756.72847    28271.299    2.6002256 
    2990    618.76133   -7966.9446   -7897.9209    573.76442    28287.009    2.6162838 
    3000     618.0574   -7966.9225   -7897.9773    438.52059     28304.72    2.6327391 
    3010    616.80803   -7966.7996   -7897.9937    356.33249    28324.027    2.6494997 
    3020    620.95649   -7967.2379   -7897.9692    265.92203     28344.66    2.6664791 
    3030    630.80773   -7968.2796    -7897.912    242.06644    28366.368    2.6845418 
    3040    635.72574   -7968.7564   -7897.8403    393.62387     28389.12    2.7047642 
    3050    635.86586   -7968.6978    -7897.766    602.98221    28413.362    2.7253995 
    3060    645.87521   -7969.7441   -7897.6958    894.61919    28439.815    2.7442418 
    3070    657.76313   -7971.0247   -7897.6503    1190.2537    28469.413    2.7618925 
    3080    651.37386   -7970.3143   -7897.6526    1400.5016    28503.134     2.781178 
    3090    637.82155   -7968.8425   -7897.6926    1418.4334    28541.683    2.8050182 
    3100    630.69521   -7968.0965   -7897.7415     1309.151    28585.175    2.8351754 
    3110    617.51167   -7966.6596   -7897.7752    1255.0277    28633.389    2.8708752 
    3120    604.13072   -7965.1565   -7897.7648    1051.1901    28686.115    2.9088195 
    3130    609.04246   -7965.6194   -7897.6798     580.1691    28742.686    2.9453795 
    3140    616.46588   -7966.2819   -7897.5142    218.49674    28801.694    2.9780421 
    3150    611.96867   -7965.5508   -7897.2848    98.118711     28861.95    3.0066018 
    3160    614.59588   -7965.5596   -7897.0005   -73.250373     28922.92    3.0328487 
    3170    613.83784   -7965.1287   -7896.6542   -253.90718    28984.021     3.059584 
    3180    616.94029   -7965.0735   -7896.2529   -575.66191    29044.542    3.0883066 
    3190    614.29627   -7964.3203   -7895.7946   -929.42002    29103.392    3.1190141 
    3200    613.35134   -7963.7079   -7895.2877   -1256.1928    29159.334    3.1485858 
    3210    629.41556   -7964.9476   -7894.7354   -1614.7058    29211.163    3.1743338 
    3220    643.21296    -7965.918   -7894.1667   -1825.9233    29257.687    3.1972884 
    3230    640.82713    -7965.113   -7893.6277   -1933.8221    29298.105    3.2188307 
    3240    631.86429   -7963.6144   -7893.1289   -1947.9476    29332.015    3.2390183 
    3250    633.05001   -7963.2704   -7892.6527   -1949.9084    29359.323     3.256934 
    3260    649.35815   -7964.6282   -7892.1913   -2036.5273     29379.96    3.2697991 
    3270     650.6192   -7964.3421   -7891.7645   -1957.4653    29393.725    3.2757187 
    3280    650.44831   -7963.9506   -7891.3921   -1755.7734    29400.871     3.275065 
    3290    654.55743   -7964.0858   -7891.0689   -1596.1433    29402.031    3.2715179 
    3300    647.54026   -7963.0286   -7890.7945   -1690.4435    29397.677    3.2691888 
    3310    637.51457   -7961.6716   -7890.5559    -1912.346    29387.552    3.2690288 
    3320    645.48814   -7962.3429   -7890.3377   -2175.1592    29370.929    3.2696737 
    3330    648.78397   -7962.5168    -7890.144    -2225.691    29347.011    3.2709733 
    3340    639.95395   -7961.3696   -7889.9817   -1959.9753    29315.678    3.2724198 
    3350    631.94802   -7960.3259   -7889.8312   -1598.7592    29277.783    3.2718845 
    3360    628.30559   -7959.7543   -7889.6658   -1193.1946    29234.572    3.2663088 
    3370    629.96514   -7959.7448   -7889.4712   -765.89388    29187.474    3.2545647 
    3380    630.43291   -7959.5708   -7889.2451   -507.48044    29137.908    3.2380627 
    3390    639.65339   -7960.3541   -7888.9998   -528.87496    29086.761    3.2200826 
    3400    640.69579   -7960.2209   -7888.7503   -543.45874    29034.102    3.2055645 
    3410    645.79654   -7960.5463   -7888.5067     -334.042    28979.992    3.1956226 
    3420    651.46536    -7960.941    -7888.269     44.31804    28925.159    3.1883346 
    3430    651.71599   -7960.7436   -7888.0437    413.73204    28870.837     3.180615 
    3440    662.24984   -7961.7181   -7887.8432    587.98226    28818.242    3.1694835 
    3450    667.98893    -7962.203   -7887.6878    809.88481    28768.031    3.1552597 
    3460    667.13258    -7962.011   -7887.5913    1193.3171    28720.953    3.1387521 
    3470    671.17416   -7962.4343   -7887.5638      1351.68    28678.097    3.1203924 
    3480    673.04764   -7962.6974    -7887.618    1382.1842    28639.985    3.1031131 
    3490    677.57809   -7963.3493   -7887.7644    1310.2141     28606.67    3.0910934 
    3500    687.89746     -7964.76    -7888.024    1140.5483    28577.854    3.0862625 
    3510    687.25361   -7965.0784   -7888.4142    1239.2553    28553.055    3.0876952 
    3520    683.43404   -7965.1661    -7888.928      1434.31     28532.49    3.0921595 
    3530     681.1468   -7965.5328   -7889.5498    1563.4908    28516.693    3.0983519 
    3540    673.99691   -7965.4295   -7890.2442    1593.4638    28506.004    3.1072499 
    3550    675.42415   -7966.3224   -7890.9779    1433.8557    28500.446     3.119249 
    3560    664.42142   -7965.8275   -7891.7102     1296.598    28499.524    3.1347537 
    3570     642.6035   -7964.0581   -7892.3747    1266.2812     28502.79    3.1535499 
    3580    640.33595   -7964.3734    -7892.943    1054.6331    28510.012    3.1737421 
    3590    639.14527   -7964.7251   -7893.4275    882.76248    28520.564    3.1930006 
    3600    630.07013   -7964.1216   -7893.8364    870.41779    28533.907    3.2092671 
    3610    621.40502   -7963.4928   -7894.1741    938.78874    28549.966    3.2232769 
    3620    617.13177   -7963.2794   -7894.4375    994.56892    28568.932    3.2371343 
    3630    623.82206   -7964.2287   -7894.6404    873.12552    28590.906    3.2499374 
    3640    629.79039    -7965.056   -7894.8019    656.14476    28615.506    3.2611696 
    3650    632.10268   -7965.4466   -7894.9346    371.20256    28642.037    3.2730531 
    3660    635.53304   -7965.9442   -7895.0495    120.55466    28669.601    3.2869609 
    3670    633.20877   -7965.7859   -7895.1505   -48.667475    28697.382    3.3028502 
    3680     627.5726   -7965.2433   -7895.2366   -161.36451    28724.836    3.3198653 
    3690    626.50405   -7965.1872   -7895.2997   -381.91596    28751.532    3.3368224 
    3700    625.55857   -7965.1191   -7895.3371   -545.53585    28776.808     3.352985 
    3710    624.40566   -7965.0014    -7895.348   -616.10728    28800.132    3.3678735 
    3720    629.22763   -7965.5236   -7895.3323   -670.87877    28821.272    3.3813452 
    3730    636.65846   -7966.3152    -7895.295   -695.95282    28840.074    3.3936501 
    3740    646.52247   -7967.3755    -7895.255   -680.17373    28856.471    3.4060123 
    3750    644.70948   -7967.1465   -7895.2281   -639.27547    28870.526    3.4208899 
    3760    635.82282   -7966.1455   -7895.2185   -548.79515    28882.396    3.4376225 
    3770    624.15828   -7964.8311   -7895.2053   -423.23577    28892.385    3.4536716 
    3780    621.08321   -7964.4482   -7895.1654   -350.68422      28900.9     3.466993 
    3790    624.31828   -7964.7341   -7895.0904   -329.04632    28908.178    3.4785515 
    3800    619.90588   -7964.1294    -7894.978   -356.75459     28914.31    3.4912267 
    3810    622.48155    -7964.262   -7894.8232   -437.72352    28919.218    3.5058273 
    3820    639.45793    -7965.957   -7894.6245   -487.52103    28922.657    3.5205096 
    3830    658.49363   -7967.8661   -7894.4102   -411.25419    28924.499    3.5332309 
    3840    664.00375   -7968.2922   -7894.2216   -304.88439    28924.978    3.5431346 
    3850    660.81429   -7967.7965   -7894.0817   -296.34712    28924.419    3.5502356 
    3860     653.8489    -7966.924   -7893.9861   -297.19309    28922.907    3.5556521 
    3870    650.87666   -7966.5321   -7893.9258   -235.71798    28920.461    3.5604063 
    3880     641.1706   -7965.4093   -7893.8858   -162.73817    28917.261    3.5650222 
    3890    643.92731    -7965.688   -7893.8569   -322.83494    28913.495    3.5688991 
    3900    647.58806   -7966.0802   -7893.8407   -506.91626    28908.715    3.5731741 
    3910    638.18345   -7965.0324   -7893.8421   -595.19616    28902.333    3.5781884 
    3920    636.18408   -7964.8194   -7893.8521   -640.47682    28894.073    3.5818884 
    3930    633.48281    -7964.523    -7893.857   -616.02381    28883.811    3.5826209 
    3940    631.67491   -7964.3154   -7893.8511   -524.16467    28871.643    3.5797961 
    3950     636.2806   -7964.8081   -7893.8301   -517.50023    28857.836    3.5748451 
    3960    646.25816    -7965.896    -7893.805   -686.40426    28842.405    3.5707105 
    3970    655.67115   -7966.9394   -7893.7983   -903.87334    28824.859    3.5677592 
    3980     656.3724   -7967.0547   -7893.8354   -972.13168    28804.576    3.5625661 
    3990    647.36076   -7966.1353   -7893.9213    -796.1176    28781.387    3.5544085 
    4000    643.33327   -7965.8061   -7894.0413   -443.09618    28755.887    3.5453238 
    4010    639.19688   -7965.4883    -7894.185   -28.844819    28729.203    3.5377889 
    4020    623.73348   -7963.9094    -7894.331    527.87759    28702.736    3.5322927 
    4030     625.4698    -7964.229   -7894.4569    857.78832    28678.179    3.5269464 
    4040    643.82169   -7966.3979   -7894.5786    858.48604    28656.547    3.5226179 
    4050    641.36395   -7966.2673   -7894.7222    886.09231    28637.925    3.5209961 
    4060    631.45495   -7965.3309   -7894.8912    956.12025    28622.363    3.5209281 
    4070     622.7405   -7964.5346   -7895.0669    967.86798    28610.016    3.5222721 
    4080    612.08294   -7963.5045   -7895.2258    1035.6574    28600.924    3.5257708 
    4090    608.38512   -7963.2141   -7895.3479    1153.8732     28595.26    3.5315316 
    4100    611.53161   -7963.6364   -7895.4191    1179.8159     28593.32    3.5383382 
    4110    620.43469   -7964.6545   -7895.4441    1075.2738    28595.145    3.5439508 
    4120    628.06042   -7965.4948   -7895.4337    937.74799    28600.402    3.5470623 
    4130    635.40498   -7966.2841   -7895.4037    881.52042    28608.649    3.5478067 
    4140    635.93845   -7966.3037   -7895.3638    883.36826    28619.661     3.547412 
    4150    637.00646   -7966.3796   -7895.3206    815.38024    28633.396    3.5472822 
    4160    627.64194   -7965.2825   -7895.2681    742.63539    28649.647    3.5488701 
    4170    619.58581   -7964.3055   -7895.1897    697.91968    28668.181    3.5538865 
    4180    625.52108   -7964.8455   -7895.0677    525.21432    28688.776     3.562988 
    4190    628.58426   -7965.0189   -7894.8993    345.94361    28710.904    3.5747104 
    4200    632.92287   -7965.2979   -7894.6944    242.40047    28733.987     3.585692 
    4210    635.23602    -7965.317   -7894.4554    217.76607    28757.687    3.5940996 
    4220    640.56279   -7965.6446   -7894.1888    140.97266    28781.877    3.6007291 
    4230    646.98189   -7966.0733   -7893.9015    38.663954    28806.311    3.6084175 
    4240    655.02557   -7966.6809   -7893.6118  -0.26914517    28830.675    3.6189487 
    4250    664.83972   -7967.5042   -7893.3403   -17.852428    28854.835    3.6318493 
    4260    666.53518   -7967.4618   -7893.1088   -65.323496    28878.701    3.6456304 
    4270    656.99434   -7966.2162   -7892.9275   -58.536967    28902.146    3.6580301 
    4280    647.63116   -7965.0291   -7892.7849   -42.777046    28925.169    3.6671982 
    4290    631.62876   -7963.1152   -7892.6561     51.08996    28947.833    3.6742934 
    4300    623.46144   -7962.0585   -7892.5104    169.96553    28970.449    3.6808798 
    4310    635.75144   -7963.2488   -7892.3298    72.425298    28993.306    3.6870454 
    4320    642.50094   -7963.7919     -7892.12    -171.3853    29016.122    3.6927605 
    4330    648.99009   -7964.2971   -7891.9012   -525.95013    29038.086    3.6974689 
    4340    650.62871   -7964.2626    -7891.684   -707.07518    29058.115    3.7015047 
    4350    653.27974   -7964.3532   -7891.4789   -803.71014    29075.599    3.7053099 
    4360    656.11167   -7964.4813   -7891.2911   -806.11573    29090.255    3.7100025 
    4370    650.81577    -7963.727   -7891.1275   -781.74923     29102.07     3.716528 
    4380    641.36781   -7962.5273   -7890.9817   -796.70696     29111.13    3.7232834 
    4390    635.14521   -7961.6857   -7890.8343   -758.14306    29117.449    3.7264895 
    4400    641.57672    -7962.241   -7890.6721   -498.43239    29121.259    3.7251535 
    4410    647.74185   -7962.7558   -7890.4992   -204.51659    29123.392    3.7227411 
    4420    647.32088   -7962.5351   -7890.3255   -176.54767    29124.753    3.7219351 
    4430    655.44809   -7963.2755   -7890.1593   -385.14534    29125.443     3.721771 
    4440      657.641   -7963.3716   -7890.0108   -496.38393    29124.875    3.7206153 
    4450    652.07636   -7962.6309   -7889.8908   -466.25607    29122.713    3.7173015 
    4460    650.09864   -7962.3114   -7889.7919   -417.73467    29119.041    3.7107967 
    4470    656.94438    -7962.998   -7889.7149   -343.08329    29114.041    3.7023319 
    4480    653.94535   -7962.6155   -7889.6669   -221.13382    29107.999    3.6961873 
    4490    660.12295   -7963.2957    -7889.658   -249.96268    29101.258    3.6945713 
    4500    677.87815   -7965.3277   -7889.7093   -367.11832    29093.773    3.6955767 
    4510    678.55397   -7965.5537   -7889.8599   -457.53971    29085.187    3.6973332 
    4520    671.38024   -7965.0217   -7890.1282   -491.36107    29075.251    3.6979339 
    4530    664.85217   -7964.6731   -7890.5078   -584.92792    29063.842    3.6962394 
    4540    651.31563    -7963.634   -7890.9787   -692.69525    29050.674    3.6930515 
    4550    636.35646   -7962.4904   -7891.5039   -642.45725    29035.488     3.690309 
    4560     632.3182    -7962.577    -7892.041   -546.24861    29018.448    3.6901494 
    4570    639.55394   -7963.9278   -7892.5846   -442.18362    28999.905    3.6939942 
    4580    633.45762   -7963.7805   -7893.1173   -162.15159    28980.305    3.7026136 
    4590    628.27658   -7963.7041   -7893.6189    83.065812    28960.526    3.7143083 
    4600    620.19252   -7963.2475   -7894.0641    165.26558    28941.354    3.7259476 
    4610    624.34295   -7964.0948   -7894.4484     43.18604    28923.023    3.7334945 
    4620    631.81368   -7965.2642   -7894.7844    26.676078     28905.23    3.7343567 
    4630    625.86631   -7964.8969   -7895.0805    108.39076    28887.901    3.7292432 
    4640    615.16483   -7963.9454   -7895.3229    164.75116    28871.274     3.720371 
    4650    617.86046   -7964.4289   -7895.5056    44.631075    28855.459    3.7112466 
    4660    622.89484   -7965.1239    -7895.639    22.725114    28840.138    3.7058081 
    4670    616.73488   -7964.5242   -7895.7265    86.378813    28825.222    3.7055084 
    4680    617.27006   -7964.6268   -7895.7694   -17.870092    28810.826     3.710148 
    4690    620.99791   -7965.0404   -7895.7671   -140.92218     28796.68    3.7192775 
    4700    629.03342   -7965.9027    -7895.733   -255.92755    28782.377    3.7304867 
    4710    641.71577   -7967.2679   -7895.6836   -284.57648    28767.569    3.7400849 
    4720    650.16585   -7968.1665   -7895.6395   -146.05015     28752.21    3.7454698 
    4730    654.71151   -7968.6557   -7895.6217    -76.53784    28736.696    3.7462787 
    4740    655.27542   -7968.7387   -7895.6417    38.691489    28721.293    3.7452028 
    4750     654.7997   -7968.7468   -7895.7029    211.10989    28706.378    3.7465168 
    4760    650.74787   -7968.3989    -7895.807    232.32978    28692.425    3.7517901 
    4770    633.86005   -7966.6449   -7895.9369    265.06998     28679.55    3.7586513 
    4780     630.6593   -7966.4238   -7896.0728    52.736996    28667.737    3.7642468 
    4790    631.94926   -7966.6999   -7896.2051   -171.20202    28656.362    3.7687039 
    4800    628.55303   -7966.4484   -7896.3324   -281.58552    28644.716    3.7738882 
    4810    629.38073    -7966.664   -7896.4556    -171.5438    28632.496    3.7813694 
    4820    627.52195   -7966.5755   -7896.5745   -9.0879939    28619.996    3.7930225 
    4830    620.02262   -7965.8502   -7896.6858     190.7618    28607.764    3.8092725 
    4840    613.32575   -7965.1898   -7896.7724    332.99818    28596.407    3.8274271 
    4850    615.22655   -7965.4539   -7896.8244    349.48771    28586.318    3.8441831 
    4860    612.65012   -7965.1688   -7896.8267    350.42561    28577.565    3.8581268 
    4870    623.85032   -7966.3708   -7896.7793    142.61945    28570.052    3.8674795 
    4880    629.30601   -7966.8822   -7896.6821   -62.727238    28563.162    3.8727334 
    4890    625.39147   -7966.2986   -7896.5352   -62.828385    28556.278    3.8760401 
    4900    625.72749    -7966.127   -7896.3261    92.719135    28549.385    3.8780609 
    4910     641.3748   -7967.5927   -7896.0464    264.99554    28542.945    3.8796352 
    4920    655.16528   -7968.8018   -7895.7171    412.30169    28537.477    3.8833315 
    4930    644.19093   -7967.2317   -7895.3712    652.93278    28533.484    3.8904892 
    4940    636.84044   -7966.0539   -7895.0134    737.34766    28531.611    3.8992834 
    4950    630.72931   -7964.9829   -7894.6241    723.03902    28532.094    3.9086997 
    4960    634.96818   -7965.0331   -7894.2014    750.68865    28534.883    3.9174262 
    4970    644.92488   -7965.6943   -7893.7519    777.10307    28540.001    3.9247157 
    4980    648.29459   -7965.6205   -7893.3022    806.27714    28547.499     3.930258 
    4990    661.94559   -7966.7198   -7892.8788    713.86665    28557.379    3.9333436 
    5000    662.99003   -7966.4596    -7892.502    663.92884    28569.366    3.9367646 
Loop time of 2901.07 on 16 procs for 3000 steps with 864 atoms

Performance: 0.089 ns/day, 268.618 hours/ns, 1.034 timesteps/s
98.0% CPU use with 16 MPI tasks x 1 OpenMP threads

MPI task timing breakdown:
Section |  min time  |  avg time  |  max time  |%varavg| %total
---------------------------------------------------------------
Pair    | 2611.2     | 2715.3     | 2827.1     | 139.4 | 93.60
Bond    | 0.00031066 | 0.0010113  | 0.002136   |   1.7 |  0.00
Neigh   | 0.033803   | 0.040564   | 0.066741   |   5.0 |  0.00
Comm    | 28.114     | 135.35     | 259.72     | 607.7 |  4.67
Output  | 0.66492    | 0.68934    | 1.053      |  11.3 |  0.02
Modify  | 16.37      | 49.634     | 102.36     | 376.6 |  1.71
Other   |            | 0.02119    |            |       |  0.00

Nlocal:        54.0000 ave          59 max          49 min
Histogram: 1 1 4 2 1 0 0 2 1 4
Nghost:        405.000 ave         420 max         394 min
Histogram: 4 2 0 3 1 0 0 4 1 1
Neighs:         0.00000 ave           0 max           0 min
Histogram: 16 0 0 0 0 0 0 0 0 0
FullNghs:      1585.75 ave        1825 max        1357 min
Histogram: 1 1 4 2 1 1 1 1 3 1

Total # of neighbors = 25372
Ave neighs/atom = 29.365741
Ave special neighs/atom = 0.0000000
Neighbor list builds = 300
Dangerous builds = 300
unfix   2

fix     3 all npt temp 637.5 637.5 $(100.0*dt) aniso 1.01325 1.01325 $(1000.0*dt)
fix     3 all npt temp 637.5 637.5 0.10000000000000000555 aniso 1.01325 1.01325 $(1000.0*dt)
fix     3 all npt temp 637.5 637.5 0.10000000000000000555 aniso 1.01325 1.01325 1
run     20000
Per MPI rank memory allocation (min/avg/max) = 8.898 | 8.899 | 8.901 Mbytes
Step Temp PotEng TotEng Press Volume c_msd[4] 
    5000    662.99003   -7966.4596    -7892.502    663.92884    28569.366    3.9367646 
    5010    667.38023   -7966.9806   -7892.5333    580.01513    28570.405    3.9421966 
    5020    672.94078   -7967.7042   -7892.6367    547.28291    28573.333    3.9505936 
    5030     665.8383   -7967.0988   -7892.8235    640.45305    28578.083    3.9612643 
    5040    653.65188   -7965.9934   -7893.0775    583.03542     28584.86    3.9731572 
    5050    659.19631    -7966.918   -7893.3836    388.80943    28593.493    3.9854622 
    5060    670.82817   -7968.5921   -7893.7602    67.594129    28603.349    3.9979265 
    5070    654.69487   -7967.2432   -7894.2111   -90.196803    28613.506    4.0091128 
    5080    636.62849   -7965.7105   -7894.6936   -262.04647    28623.387    4.0164034 
    5090    632.84935   -7965.7654   -7895.1701   -433.58135    28632.467    4.0208114 
    5100    630.55007   -7965.9591   -7895.6202   -445.43529    28640.238    4.0260808 
    5110    631.70308   -7966.5072   -7896.0398   -379.52391    28646.618    4.0347099 
    5120    627.16591    -7966.375   -7896.4137   -301.99412    28651.809    4.0476206 
    5130    629.20494   -7966.9257   -7896.7369   -391.96387    28655.992    4.0637025 
    5140    629.79393   -7967.2667   -7897.0122   -551.04478    28658.897    4.0807564 
    5150    621.35827   -7966.5537   -7897.2403   -554.26752    28660.091    4.0955421 
    5160    612.94671   -7965.7851     -7897.41    -415.8108    28659.543    4.1055064 
    5170    616.24591   -7966.2618   -7897.5186    -205.4204    28657.669    4.1111449 
    5180    622.87092   -7967.0608   -7897.5786    11.146615    28655.135    4.1152712 
    5190    624.58508    -7967.282   -7897.6086    120.57354    28652.605    4.1194733 
    5200    619.86842   -7966.7626   -7897.6153    33.429941    28650.418    4.1224222 
    5210    619.44698   -7966.6938   -7897.5936    -216.9487    28648.306    4.1230405 
    5220    625.74581   -7967.3437   -7897.5408   -428.02548    28645.504    4.1222873 
    5230    626.59748    -7967.361   -7897.4631   -384.43305      28641.4     4.121954 
    5240     621.8483   -7966.7358   -7897.3677   -253.07664    28636.073    4.1225298 
    5250    617.58424   -7966.1413   -7897.2489   -167.71958     28629.92    4.1253435 
    5260    625.92885   -7966.9318   -7897.1085   -228.61647    28623.181    4.1317592 
    5270    630.91918   -7967.3458   -7896.9659   -312.22126    28615.697    4.1415802 
    5280    623.04834   -7966.3292   -7896.8272   -135.74589    28607.301     4.152893 
    5290    621.52678   -7966.0147   -7896.6824    74.203086    28598.476    4.1632413 
    5300    619.35972   -7965.6012   -7896.5107    240.02256    28589.898    4.1727603 
    5310    620.06583   -7965.4804   -7896.3112    297.52407    28582.073    4.1839753 
    5320    618.96199   -7965.1321    -7896.086    360.03851    28575.245    4.1985551 
    5330    619.10041   -7964.9001   -7895.8385    345.82836    28569.574    4.2157874 
    5340    626.92478   -7965.5106   -7895.5762    339.27191    28565.041    4.2334969 
    5350    637.86665   -7966.4699   -7895.3149    328.50202    28561.614     4.248691 
    5360    652.23757   -7967.8373   -7895.0793    236.69838    28559.236    4.2587002 
    5370    670.63368   -7969.7076   -7894.8974    78.057772    28557.607    4.2643883 
    5380    676.44897   -7970.2619    -7894.803    118.28079    28556.302    4.2696326 
    5390    659.50359   -7968.3663   -7894.7977    299.94943    28555.429    4.2783757 
    5400    648.71096   -7967.2151   -7894.8504    402.02425    28555.511    4.2914053 
    5410    644.08668   -7966.7761   -7894.9272    421.42287    28556.869     4.305825 
    5420    649.56563   -7967.4807   -7895.0206    321.67354    28559.556    4.3186843 
    5430    657.62334   -7968.5039   -7895.1451   -22.237225    28563.199    4.3316513 
    5440    643.78367   -7967.1141    -7895.299    -224.1024    28566.812    4.3473877 
    5450    629.94368   -7965.7322   -7895.4611   -259.74469    28569.755    4.3627157 
    5460    619.33543   -7964.6883   -7895.6005   -96.544234    28571.928    4.3742279 
    5470    616.06453   -7964.4211   -7895.6982    124.36481    28573.812    4.3815211 
    5480    632.90051   -7966.3596   -7895.7586    245.65134    28576.071    4.3863401 
    5490    642.05056   -7967.4304   -7895.8087    372.27847    28579.129    4.3919205 
    5500    628.92646   -7966.0182   -7895.8605     520.4827    28583.411    4.4001567 
    5510    625.72678    -7965.697   -7895.8962    423.01467    28589.296    4.4116578 
    5520    629.30054   -7966.1013   -7895.9018    263.47792    28596.533     4.427902 
    5530    627.95131   -7965.9268   -7895.8779    137.25715    28604.629    4.4486546 
    5540    637.87613   -7966.9886   -7895.8325    63.584401    28613.175    4.4717397 
    5550    647.78387   -7968.0439   -7895.7827     58.61417    28621.933     4.495258 
    5560    641.82175   -7967.3413   -7895.7451    164.19693    28630.906    4.5182894 
    5570    629.21437   -7965.9011   -7895.7113    296.78192    28640.408    4.5391585 
    5580    628.54675   -7965.7746   -7895.6592    257.40125     28650.81    4.5573342 
    5590    640.37701   -7967.0204   -7895.5854    42.465794    28661.977    4.5752767 
    5600    644.62656   -7967.4128   -7895.5038   -85.053719    28673.308    4.5944487 
    5610    642.75946   -7967.1233   -7895.4225   -186.34855    28684.345    4.6143238 
    5620    647.42916    -7967.563   -7895.3413   -406.66926    28694.705    4.6319297 
    5630    641.36944   -7966.8042   -7895.2585   -497.56025    28703.784    4.6448832 
    5640    630.57898   -7965.5085   -7895.1664   -426.03551    28711.286    4.6537289 
    5650     627.1145   -7964.9937   -7895.0381   -276.21129    28717.419    4.6615229 
    5660    634.42007   -7965.6248   -7894.8543   -192.09478    28722.627    4.6714939 
    5670    648.37627   -7966.9473   -7894.6199   -276.18317    28727.152    4.6865453 
    5680    647.02251   -7966.5337   -7894.3574   -433.14092    28730.752    4.7078297 
    5690    643.24812   -7965.8374   -7894.0821   -594.21343    28732.933     4.731982 
    5700    645.01968   -7965.7438   -7893.7909   -658.58219    28733.217    4.7542153 
    5710    649.85885   -7965.9826   -7893.4899    -588.0627      28731.4    4.7713643 
    5720    642.98724   -7964.9155   -7893.1893   -225.76476    28727.756    4.7829073 
    5730    632.82569   -7963.4801   -7892.8874    210.34871    28723.411      4.78973 
    5740    634.90419   -7963.3945     -7892.57    383.08795    28719.672    4.7945875 
    5750     640.3812   -7963.6723   -7892.2368    325.90493    28717.121    4.8016534 
    5760    646.11252   -7963.9713   -7891.8965     -32.8052    28715.549    4.8120059 
    5770     652.2878   -7964.3246   -7891.5609   -436.64857    28713.885    4.8250783 
    5780    659.33218   -7964.8003   -7891.2508   -824.55026    28710.798    4.8406379 
    5790    650.21192   -7963.5136   -7890.9815   -977.36647    28705.107    4.8567336 
    5800    640.35536   -7962.1809   -7890.7483   -964.03534      28696.3     4.870372 
    5810    628.72463   -7960.6576   -7890.5224   -714.93366    28684.459    4.8796749 
    5820    628.82036    -7960.425   -7890.2792   -406.81478    28670.334    4.8825552 
    5830    641.96551    -7961.623   -7890.0108   -169.49047    28654.891    4.8818488 
    5840    636.63924   -7960.7472   -7889.7292    150.40448     28638.96    4.8827829 
    5850    637.32326   -7960.5387   -7889.4444    356.59724    28623.529    4.8871414 
    5860    641.70359   -7960.7348   -7889.1518    367.80728    28609.234    4.8949491 
    5870    653.73793   -7961.7947   -7888.8693    292.17794    28596.122    4.9027478 
    5880    664.17957   -7962.7128   -7888.6225    258.43554    28583.979    4.9082379 
    5890    656.82127   -7961.7023   -7888.4329    478.94619    28572.762    4.9108918 
    5900    664.03685   -7962.3757   -7888.3014     567.8038    28563.047    4.9094012 
    5910    669.86389    -7962.953   -7888.2287    571.44926    28555.144     4.905631 
    5920    665.76574   -7962.4929   -7888.2257    574.25735    28549.092    4.9036916 
    5930    670.43919   -7963.0794   -7888.2909    423.55624    28544.853    4.9046829 
    5940    674.98295   -7963.7308   -7888.4355    394.28495    28542.032     4.907236 
    5950    666.11568   -7962.9738   -7888.6676     554.7609    28540.546    4.9113804 
    5960    664.42677   -7963.1025   -7888.9847     546.3357    28540.787    4.9173609 
    5970    665.31042   -7963.5992   -7889.3828    373.81634    28542.742    4.9258149 
    5980    666.06824   -7964.1666   -7889.8657     145.9814     28545.89    4.9366796 
    5990    663.11204   -7964.4017   -7890.4306    51.417974    28549.555    4.9479355 
    6000    649.90512    -7963.547   -7891.0491    82.858423    28553.428    4.9559714 
    6010     633.2874   -7962.3043   -7891.6601    161.34765    28557.578    4.9575263 
    6020    626.31743   -7962.0809   -7892.2142    219.20855    28562.235    4.9519045 
    6030    627.70254   -7962.7045   -7892.6833    105.80317    28567.549    4.9426578 
    6040    637.45339   -7964.1889     -7893.08   -31.045653    28573.196    4.9376631 
    6050    635.24016   -7964.2807   -7893.4187   -15.672387    28578.787    4.9438844 
    6060    629.56282   -7963.9274   -7893.6987   -51.621614    28584.312     4.959905 
    6070     627.1747   -7963.8854   -7893.9231   -137.95072    28589.641    4.9792739 
    6080    619.12022   -7963.1478   -7894.0841   -52.010426    28594.602    4.9956462 
    6090    629.32623   -7964.3954   -7894.1931   -188.19638    28599.322    5.0033482 
    6100    631.87168   -7964.7551   -7894.2689   -203.86623    28603.475    5.0040405 
    6110    619.52938   -7963.4275    -7894.318   0.73221853    28607.026    5.0034151 
    6120    622.78458   -7963.8035   -7894.3309    106.97991    28610.569    5.0040954 
    6130     641.7109   -7965.9029   -7894.3191    -77.51562    28614.375    5.0081109 
    6140     645.4701   -7966.3123   -7894.3092   -284.13082    28617.939    5.0153831 
    6150    649.73228   -7966.7995   -7894.3209   -515.18466    28620.584    5.0212521 
    6160    654.57838   -7967.3805   -7894.3613   -676.11694    28621.587    5.0233167 
    6170    649.19091   -7966.8537   -7894.4355   -683.26682    28620.456    5.0234174 
    6180    640.27504   -7965.9567    -7894.533   -543.99355    28617.163    5.0225081 
    6190    631.13743   -7965.0371   -7894.6327   -350.57213     28612.11    5.0204757 
    6200    626.71615   -7964.6297   -7894.7186   -192.97991    28605.905    5.0180517 
    6210    626.67455   -7964.6875    -7894.781   -157.42499    28599.023    5.0171104 
    6220    631.71892   -7965.2918   -7894.8226   -149.63976    28591.624    5.0187328 
    6230    630.83287   -7965.2191   -7894.8488   -187.66646    28583.708    5.0213585 
    6240     625.8082   -7964.6713   -7894.8614   -193.38564    28575.167    5.0236813 
    6250    616.91987   -7963.6606   -7894.8423   -216.37043    28565.982     5.027744 
    6260    625.05029   -7964.5121   -7894.7868   -363.72938    28556.042    5.0349541 
    6270    629.46322   -7964.9117   -7894.6941   -322.41942    28544.975    5.0444457 
    6280    631.46442    -7965.013   -7894.5722   -294.71793    28532.823    5.0531371 
    6290    636.43604   -7965.4189   -7894.4235   -344.84568    28519.671    5.0593223 
    6300    644.42856   -7966.1476   -7894.2607   -445.66491    28505.343    5.0635508 
    6310    641.25373   -7965.6223   -7894.0894   -339.46768    28489.614    5.0674296 
    6320    635.53698    -7964.797   -7893.9018   -223.86579     28472.75    5.0718954 
    6330    636.81559   -7964.7198   -7893.6821   -214.33211    28455.065    5.0761821 
    6340     639.2479   -7964.7311    -7893.422    -86.73738    28436.667    5.0796831 
    6350    644.94308   -7965.0659   -7893.1215    52.010535    28417.907    5.0837189 
    6360    643.82115   -7964.6025   -7892.7833    372.91661    28399.291    5.0908911 
    6370    640.82918   -7963.8918   -7892.4064    710.75048    28381.804     5.102134 
    6380    640.28898    -7963.404   -7891.9788    815.86003    28366.449    5.1156762 
    6390    637.69572   -7962.6336   -7891.4977    943.02716    28353.655    5.1287076 
    6400    645.97749   -7963.0289   -7890.9692    999.66597    28343.784    5.1380747 
    6410    661.07754   -7964.1566   -7890.4124    1003.5243    28337.039    5.1451642 
    6420    668.85722   -7964.4863   -7889.8743    997.71879    28333.449    5.1540478 
    6430     667.4581   -7963.8512   -7889.3953    1099.5241     28333.07    5.1655387 
    6440    657.20175   -7962.2995   -7888.9877    1115.9249    28336.165    5.1772034 
    6450    645.38464   -7960.6302   -7888.6366    1052.8094    28342.792    5.1864183 
    6460    640.18047   -7959.7255   -7888.3124    1063.5816    28352.817    5.1916908 
    6470    642.35183   -7959.6508   -7887.9955    1004.8566    28366.221    5.1958194 
    6480    649.39506   -7960.1304   -7887.6894    955.25696    28382.859    5.2042282 
    6490    657.25923   -7960.7284   -7887.4101    871.04407     28402.56    5.2200117 
    6500    668.99756   -7961.8047    -7887.177    598.54424    28424.996    5.2415974 
    6510    680.46766   -7962.9259   -7887.0187     317.0396     28449.34    5.2637757 
    6520    681.73299   -7963.0104   -7886.9621    174.70849    28474.738    5.2826584 
    6530    673.73974   -7962.1617    -7887.005    29.932497    28500.682    5.2980242 
    6540    672.14422   -7962.1131   -7887.1344   -110.83982    28526.686    5.3131972 
    6550    669.24842    -7961.992   -7887.3364   -343.67298    28552.242    5.3322453 
    6560    668.12278   -7962.1324   -7887.6023   -566.71955    28576.631    5.3550821 
    6570      668.629   -7962.5288   -7887.9423   -554.49917    28599.181    5.3782211 
    6580     653.2425   -7961.2264   -7888.3562   -78.912557    28620.012    5.4015963 
    6590    634.87945   -7959.6208   -7888.7991    307.14084    28640.489     5.426276 
    6600    635.06937   -7960.0736   -7889.2307    165.93163    28661.726    5.4522548 
    6610    642.12664   -7961.2654   -7889.6352   -198.21195    28683.366    5.4782338 
    6620    651.74635   -7962.7297   -7890.0264   -499.55798    28704.279    5.5029048 
    6630    648.63858   -7962.7619   -7890.4053   -525.34283    28723.556    5.5260131 
    6640    648.00342   -7963.0503   -7890.7646   -423.65479    28741.062    5.5475363 
    6650    640.49879   -7962.5421   -7891.0935   -275.40492    28757.124    5.5687986 
    6660    620.71226    -7960.605   -7891.3636   -278.57873     28772.17     5.590135 
    6670    604.85219   -7959.0134   -7891.5412   -447.26979    28786.186    5.6104278 
    6680    608.17453   -7959.4621   -7891.6193   -755.14788    28798.619    5.6283579 
    6690    619.05352   -7960.6822   -7891.6258   -909.17954    28808.559    5.6421178 
    6700    615.06979   -7960.2024   -7891.5905   -823.71377    28815.549    5.6502063 
    6710    614.70463   -7960.0952    -7891.524   -831.31664    28819.775    5.6539357 
    6720    623.18527   -7960.9431   -7891.4258   -960.08497    28821.232    5.6571395 
    6730    636.61353    -7962.327   -7891.3118   -994.07145    28819.586    5.6605221 
    6740     645.5804   -7963.2225   -7891.2071   -789.23347    28814.782    5.6643568 
    6750    646.68529   -7963.2667    -7891.128   -459.04011    28807.499    5.6706581 
    6760    648.66241   -7963.4377   -7891.0784   -267.77571    28798.727    5.6799797 
    6770    641.14547   -7962.5719   -7891.0511   -81.562703    28789.152    5.6915243 
    6780    638.90786   -7962.3064   -7891.0353   -79.037403    28779.323    5.7022103 
    6790    647.64592   -7963.2746   -7891.0288   -228.96061    28769.253    5.7094308 
    6800     648.1081   -7963.3402   -7891.0428   -140.77174    28758.595    5.7122165 
    6810    640.93368   -7962.5754   -7891.0783     75.07232    28747.584    5.7099975 
    6820    637.85217    -7962.276   -7891.1226     362.4431    28736.919    5.7026965 
    6830    634.66188    -7961.963   -7891.1655    522.56357    28727.462    5.6921946 
    6840    629.44547   -7961.4188   -7891.2032     473.0701    28719.697    5.6815015 
    6850     628.5045   -7961.3353   -7891.2247    186.24851    28713.454    5.6719105 
    6860     637.1295   -7962.3056   -7891.2328    -262.3031     28707.79    5.6626106 
    6870    638.20804   -7962.4297   -7891.2367   -520.66167    28701.369     5.654445 
    6880    639.51857    -7962.584   -7891.2448   -712.41442    28693.322    5.6471943 
    6890     637.8254   -7962.4086   -7891.2583   -787.96637    28683.041    5.6364214 
    6900    633.37987    -7961.928   -7891.2735   -605.35848     28670.35    5.6205756 
    6910    632.51382    -7961.838   -7891.2801   -300.46316    28655.816    5.6033378 
    6920    644.32019   -7963.1476   -7891.2727   -38.481427    28640.382    5.5882121 
    6930    666.44584   -7965.6255   -7891.2825    113.54902    28624.885    5.5767365 
    6940    663.97456   -7965.4203   -7891.3529    194.10416    28609.827    5.5670775 
    6950    649.55698   -7963.9525   -7891.4934    171.76351    28595.442    5.5560115 
    6960    645.79527   -7963.7293   -7891.6898    135.99951    28581.692    5.5434406 
    6970    641.44637   -7963.4865   -7891.9322    91.513303    28568.446    5.5333198 
    6980    638.29733   -7963.4227   -7892.2196    114.53761    28555.575    5.5285399 
    6990    632.76091   -7963.1334   -7892.5479    365.77496    28543.204    5.5288002 
    7000    625.33574   -7962.6591    -7892.902    701.22996    28532.084    5.5305131 
    7010    625.89083   -7963.0915   -7893.2724    823.43845    28523.205    5.5288315 
    7020    625.98809   -7963.4888   -7893.6589    709.94059    28516.917     5.521628 
    7030    622.98592   -7963.5483   -7894.0532    738.05807    28512.971    5.5093644 
    7040    627.40362   -7964.4403   -7894.4525    773.63051    28511.403    5.4948614 
    7050    632.17822   -7965.3778   -7894.8574    691.57509    28512.287    5.4832893 
    7060    638.95707   -7966.5547    -7895.278    521.85276    28515.375     5.478958 
    7070    637.96414   -7966.8838   -7895.7179    563.60546    28520.212    5.4833509 
    7080    628.95205   -7966.3243   -7896.1637    656.41692    28526.868    5.4935737 
    7090    616.45347    -7965.354   -7896.5877    620.72583    28535.589    5.5058398 
    7100    599.95917     -7963.88   -7896.9536    554.24541    28546.275    5.5176126 
    7110    589.02044   -7962.9367   -7897.2306    414.93798      28558.7    5.5255324 
    7120    589.40664   -7963.1541   -7897.4049    190.24332     28572.44    5.5278923 
    7130    603.09566   -7964.7579   -7897.4816   -82.617566    28586.782    5.5257602 
    7140    623.01773   -7966.9872   -7897.4886   -256.03455    28600.879    5.5210568 
    7150    623.83731   -7967.0451   -7897.4551   -238.32288    28614.221    5.5165676 
    7160    619.66338   -7966.5174    -7897.393   -341.94507    28626.752    5.5148778 
    7170    615.60974   -7965.9587   -7897.2865   -374.52931    28638.219    5.5174041 
    7180    617.49999   -7966.0121   -7897.1291   -413.69335    28648.482    5.5215881 
    7190    617.63509   -7965.8144   -7896.9162   -520.57951    28657.409    5.5228561 
    7200    615.13504   -7965.2652    -7896.646   -672.69445    28664.646     5.521195 
    7210    608.45901   -7964.1802   -7896.3057     -747.048    28669.746     5.520051 
    7220    608.75444   -7963.7888   -7895.8813   -743.32527    28672.447    5.5204812 
    7230    613.40984   -7963.7882   -7895.3614   -491.83648    28672.824     5.522203 
    7240    624.08869   -7964.3783   -7894.7603   -143.54062    28671.644    5.5259205 
    7250    629.23854   -7964.3043   -7894.1118    110.23463    28669.985    5.5327153 
    7260    632.84563   -7964.0617   -7893.4668    1.7903316     28668.58    5.5413583 
    7270    632.85906   -7963.4621   -7892.8657   -212.64216    28667.165    5.5484382 
    7280    629.51129   -7962.5595   -7892.3366    -249.9805    28665.128    5.5531174 
    7290     631.3664   -7962.3183   -7891.8885   -250.79075    28662.282    5.5576826 
    7300     638.0124   -7962.6932    -7891.522   -198.87431    28658.651    5.5641698 
    7310     640.2359   -7962.6586   -7891.2393   -191.22144    28654.357     5.573854 
    7320    637.30353   -7962.1198   -7891.0276   -324.48738    28649.396    5.5868824 
    7330    636.71089    -7961.891   -7890.8649    -451.3956    28643.381    5.6009875 
    7340    631.66435   -7961.1972   -7890.7341   -346.70127     28635.96    5.6148888 
    7350    616.58924   -7959.3904   -7890.6089   -47.041909    28627.456    5.6278379 
    7360    623.53146   -7960.0212   -7890.4653    188.23125    28618.751    5.6405146 
    7370    644.63885   -7962.2199   -7890.3095    342.16094     28610.61    5.6558527 
    7380    652.06262   -7962.9117   -7890.1732    603.96599    28603.588    5.6753674 
    7390    656.68828   -7963.3347   -7890.0802    827.29202    28598.488    5.6978343 
    7400    653.05382   -7962.8824   -7890.0332    961.70001     28596.03    5.7205531 
    7410    648.87961   -7962.4084   -7890.0249    920.76822    28596.631    5.7388844 
    7420    652.96784   -7962.8893   -7890.0498    674.17879    28600.155     5.751913 
    7430    649.87717   -7962.6013   -7890.1065    473.55817     28605.91    5.7633683 
    7440    646.82953    -7962.354   -7890.1991    410.35996    28613.276    5.7749675 
    7450    630.48422   -7960.6415     -7890.31    634.39012    28622.109    5.7873851 
    7460    617.48541   -7959.2869   -7890.4055    711.79139    28633.013    5.8001975 
    7470    622.55308   -7959.9047    -7890.458    402.46727    28646.175    5.8145298 
    7480    637.03065   -7961.5333   -7890.4716    19.711627    28660.725    5.8335183 
    7490    644.44401   -7962.3675   -7890.4788   -262.72566    28675.482    5.8580242 
    7500    634.72516   -7961.3001   -7890.4955   -361.17406     28689.55    5.8844699 
    7510    631.31423    -7960.935   -7890.5109   -302.56513    28702.585    5.9080263 
    7520    641.35999    -7962.063   -7890.5183   -124.32182    28714.761    5.9279555 
    7530    651.93523   -7963.2645   -7890.5401    -41.97001    28726.599    5.9467787 
    7540    647.74663     -7962.85   -7890.5928   -219.36283    28738.316    5.9670454 
    7550    651.12746   -7963.3123    -7890.678   -514.48279    28749.373    5.9883546 
    7560    661.98153   -7964.6465   -7890.8015   -658.09051     28758.87    6.0097967 
    7570    666.19734   -7965.3086   -7890.9933   -486.89684    28766.367    6.0324821 
    7580    658.41921   -7964.7143   -7891.2667   -176.95747    28772.381    6.0586008 
    7590    656.15374   -7964.8166   -7891.6217    -215.0306    28777.743    6.0886992 
    7600    647.46894   -7964.2718   -7892.0457   -199.59738    28782.483    6.1215203 
    7610    634.58456   -7963.2931   -7892.5043   -198.25475    28786.604    6.1567699 
    7620    633.10633   -7963.6007   -7892.9768   -325.20852    28790.072    6.1955846 
    7630    627.55556   -7963.4462   -7893.4414   -445.36719    28792.505    6.2359247 
    7640    629.20098   -7964.0784   -7893.8901   -492.43954    28793.519    6.2735252 
    7650    622.93273   -7963.7977   -7894.3086   -310.36576    28793.019    6.3064684 
    7660     623.0975   -7964.1968   -7894.6893   -293.58092    28791.448    6.3333961 
    7670    618.80461   -7964.0532   -7895.0246   -272.64641    28788.927    6.3528549 
    7680     611.8885   -7963.5589   -7895.3018   -245.46288      28785.5    6.3632356 
    7690    618.18165   -7964.4751    -7895.516   -463.65149    28781.166    6.3640383 
    7700    632.77971   -7966.2724   -7895.6848   -684.03476    28775.291    6.3576473 
    7710    650.21368   -7968.3786   -7895.8463   -806.69844    28767.158    6.3488093 
    7720    651.80538   -7968.7403   -7896.0305   -838.04581    28756.349    6.3431425 
    7730     635.7723   -7967.1564   -7896.2351   -754.30061    28742.746    6.3438658 
    7740    616.86686   -7965.2351   -7896.4226   -462.49001    28726.645    6.3498503 
    7750    611.14668   -7964.7339   -7896.5596   -193.96161      28708.9    6.3576951 
    7760    615.02498   -7965.2427   -7896.6357   -30.173522    28690.358    6.3635601 
    7770    623.98522   -7966.2699   -7896.6634    -94.54218    28671.492    6.3630633 
    7780    634.76373   -7967.4738   -7896.6649    -232.2471    28652.146    6.3543613 
    7790    638.58994   -7967.8958   -7896.6601   -291.14888    28631.896    6.3404131 
    7800      639.743    -7968.022   -7896.6577   -148.02111    28610.591    6.3253203 
    7810    639.68043   -7968.0159   -7896.6586    140.42881     28588.64     6.311935 
    7820    636.78524    -7967.694   -7896.6596    539.40076    28566.959    6.3007876 
    7830    630.08739   -7966.9423   -7896.6551    868.44867    28546.792    6.2907429 
    7840    618.78017   -7965.6565   -7896.6307      1034.85    28529.192    6.2809501 
    7850    618.39294   -7965.5524   -7896.5697     890.5854    28514.669    6.2689245 
    7860      623.034   -7965.9632   -7896.4628    589.16668     28502.82    6.2541475 
    7870    618.38372   -7965.2811   -7896.2994    505.78123    28492.834    6.2400122 
    7880    620.63066    -7965.291   -7896.0587    353.98532    28484.329    6.2279528 
    7890    631.34916   -7966.1433   -7895.7154    247.20228    28476.886    6.2165088 
    7900    633.36609   -7965.9081   -7895.2551    347.04043    28470.212    6.2069597 
    7910    628.91264   -7964.8215   -7894.6654    585.59181    28464.621    6.2020223 
    7920    627.55254   -7963.9348   -7893.9304    606.85367    28460.799    6.2015275 
    7930    638.72793   -7964.3219   -7893.0709    257.63383    28458.766    6.2025479 
    7940    649.36955    -7964.598   -7892.1599    71.956984    28457.603     6.202788 
    7950    643.42045   -7963.0836   -7891.3091    215.72082    28456.773    6.2012889 
    7960    650.21826   -7963.1115   -7890.5787    226.62393    28456.569    6.1959734 
    7970    665.63808   -7964.2368   -7889.9838    88.511448    28457.033    6.1877146 
    7980    664.49945   -7963.6722   -7889.5463    167.93094    28457.853    6.1820615 
    7990     649.9135   -7961.7413   -7889.2424    479.94875    28459.308    6.1818704 
    8000    654.88058   -7962.0805   -7889.0276     547.0452    28462.246    6.1884457 
    8010    660.13735    -7962.518   -7888.8787    418.32246    28466.949    6.2047286 
    8020    655.51257   -7961.9182   -7888.7947    241.17635    28473.071    6.2286571 
    8030    657.23326   -7962.0754     -7888.76    9.3255494    28480.063      6.25433 
    8040    675.22887   -7964.1005   -7888.7777   -265.60682    28487.184     6.277536 
    8050    681.97157   -7964.9529   -7888.8779   -312.16021    28493.646    6.2970717 
    8060    666.01772    -7963.367   -7889.0717   -210.98312    28499.256    6.3134651 
    8070    652.14699   -7962.0707   -7889.3227   -165.96831    28504.278    6.3260018 
    8080    643.26847   -7961.3538   -7889.5963   -310.88165    28508.802    6.3362792 
    8090    639.88657   -7961.2549   -7889.8746   -508.03467    28512.411    6.3472335 
    8100    638.39611   -7961.3671   -7890.1531   -663.54623    28514.471    6.3597185 
    8110    627.32936   -7960.4014   -7890.4219   -673.12339    28514.456    6.3715968 
    8120    619.53162   -7959.7721   -7890.6625   -643.53547    28512.271    6.3803114 
    8130     620.3935   -7960.0697   -7890.8638   -699.97404     28507.96    6.3858466 
    8140    628.97322   -7961.1953   -7891.0324    -815.7079     28501.29    6.3901241 
    8150    638.90263   -7962.4534   -7891.1829   -731.42057     28491.92    6.3936216 
    8160    646.68343   -7963.4787   -7891.3402   -445.93029    28480.076     6.395501 
    8170    638.50225   -7962.7339    -7891.508   -27.728387     28466.63    6.3976896 
    8180    642.15195    -7963.309    -7891.676    212.05296    28452.796    6.4024495 
    8190    655.38349   -7964.9709   -7891.8619    280.75251    28439.339     6.410145 
    8200      655.372   -7965.2006   -7892.0929    414.05487    28426.561    6.4205367 
    8210    653.73957   -7965.3031   -7892.3775    458.30584    28414.857    6.4330666 
    8220    652.86895   -7965.5363   -7892.7078    369.79132    28404.378    6.4455102 
    8230    660.62937   -7966.7875   -7893.0933    215.34914    28394.868    6.4559284 
    8240     652.6867   -7966.3416   -7893.5334    158.02963    28385.894    6.4639128 
    8250    638.67221   -7965.2489    -7894.004     90.16805     28377.26    6.4674221 
    8260    624.91538   -7964.1769   -7894.4667   -96.304825    28368.726    6.4669365 
    8270    611.13831   -7963.0573   -7894.8839   -328.32297    28359.709    6.4667321 
    8280    599.77157   -7962.1294   -7895.2239   -377.65117    28349.529    6.4705805 
    8290    598.70699   -7962.2578   -7895.4711   -382.76574    28337.958    6.4797076 
    8300    605.31482   -7963.1558    -7895.632   -547.28475     28324.88    6.4938551 
    8310    610.09064   -7963.7778   -7895.7212   -729.36085    28309.801    6.5113494 
    8320    619.90129    -7964.907    -7895.756   -836.80662    28292.128    6.5273778 
    8330    628.72678   -7965.8896   -7895.7541   -671.34708    28271.516    6.5365909 
    8340    626.26013   -7965.5883   -7895.7281   -309.94734    28248.413    6.5374916 
    8350     619.8495   -7964.8168   -7895.6716    84.466909     28223.89    6.5328629 
    8360    628.30888   -7965.6699   -7895.5811      554.299    28199.207    6.5274086 
    8370    634.09282    -7966.199    -7895.465    1013.7714    28175.807    6.5244937 
    8380    627.60325   -7965.3416   -7895.3315    1469.1204    28155.191    6.5260695 
    8390    631.98972   -7965.6811   -7895.1817    1595.3729    28138.732    6.5322783 
    8400    639.25619   -7966.3305   -7895.0205    1711.4495    28127.019     6.540194 
    8410    640.27773   -7966.2863   -7894.8624    1725.3649    28120.446    6.5451518 
    8420    646.76924   -7966.8657   -7894.7176     1691.653    28119.186    6.5441723 
    8430    655.92559   -7967.7678   -7894.5983    1558.0754    28123.184    6.5379076 
    8440    649.03559   -7966.9221   -7894.5212    1667.6792    28132.221     6.528493 
    8450    638.71599   -7965.7331   -7894.4833    1883.8088    28146.692    6.5175076 
    8460     645.7097   -7966.4936   -7894.4637    1796.2805    28167.265    6.5071264 
    8470    661.03788    -7968.208   -7894.4682     1540.445    28193.828    6.5015383 
[...]
   22890    629.42106   -7965.3581   -7895.1453   -175.42995    28653.721    17.341293 
   22900    626.00937   -7965.0391   -7895.2068   -515.18692    28678.568    17.349815 
   22910    633.21759   -7965.8864   -7895.2501   -705.10436    28701.459    17.351433 
   22920    634.45394   -7966.0578   -7895.2835   -735.94233    28721.789    17.349323 
   22930    629.62363   -7965.5456   -7895.3101   -625.85163    28739.484    17.345166 
   22940      625.044   -7965.0442   -7895.3196   -455.96976    28754.909    17.338546 
   22950    625.51092   -7965.0805   -7895.3038    -315.7667    28768.625    17.331624 
   22960    628.26817    -7965.348   -7895.2638    -253.3362    28781.089    17.331207 
   22970    627.06583   -7965.1467   -7895.1966   -319.71793      28792.5    17.340555 
   22980    632.41782   -7965.6539   -7895.1067   -423.08612    28802.703    17.352678 
   22990    625.49114   -7964.7657   -7894.9912   -337.30323    28811.436    17.360093 
   23000    622.07775   -7964.2377    -7894.844   -203.01771    28818.951    17.361498 
   23010    621.53326   -7963.9842   -7894.6513   -139.56788    28825.676    17.358673 
   23020    623.47413   -7963.9627   -7894.4133   -209.71522    28831.804    17.353101 
   23030    630.07941   -7964.4185   -7894.1322   -293.38388    28837.164    17.347247 
   23040    638.09404   -7964.9985   -7893.8182    -339.7231    28841.511    17.347595 
   23050    638.13961   -7964.6703   -7893.4849   -442.15648    28844.681    17.359983 
   23060    640.51411   -7964.5922   -7893.1419   -688.13217    28846.328    17.381658 
   23070    641.86679    -7964.395   -7892.7938   -955.28423    28845.716    17.405316 
   23080     632.1252   -7962.9645     -7892.45   -1174.1088     28842.03    17.423494 
   23090    622.69925   -7961.5646   -7892.1015   -1291.4853    28834.622    17.430027 
   23100    623.70994    -7961.305   -7891.7292   -1264.5065    28823.169     17.42244 
   23110    629.03706   -7961.4999   -7891.3299   -1118.8917    28807.828    17.405066 
   23120    632.14262   -7961.4311   -7890.9147   -1023.9997    28789.076    17.388036 
   23130    643.25139    -7962.257   -7890.5014   -1022.3034    28767.277     17.37817 
   23140     656.0885   -7963.3033   -7890.1156   -1006.5363    28742.523    17.377354 
   23150     654.3444   -7962.7782   -7889.7851   -810.68477    28714.997    17.383545 
   23160    646.82901   -7961.6658    -7889.511     -669.599     28685.31    17.389966 
   23170    647.38326   -7961.4932   -7889.2767   -552.74166    28653.983    17.387933 
   23180    651.26601   -7961.7234   -7889.0737   -409.75323    28621.441    17.372027 
   23190    650.62392   -7961.4799   -7888.9019   -323.13027    28588.148    17.344554 
   23200    659.35188   -7962.3209   -7888.7692   -439.81132    28554.361    17.309486 
   23210    667.10913   -7963.1081   -7888.6911   -439.83657    28519.842    17.266847 
   23220    657.64761   -7962.0369   -7888.6754   -137.56079    28484.665    17.219824 
   23230    651.25014   -7961.3471   -7888.6992    221.74656    28449.752    17.177582 
   23240    664.09771    -7962.837   -7888.7559    401.48376     28416.17    17.145298 
   23250    670.21088   -7963.6293   -7888.8663    722.92554    28384.576    17.124582 
   23260    661.57995   -7962.8405   -7889.0403    1013.2374    28355.876     17.11728 
   23270    662.79383   -7963.2096   -7889.2739    1070.8839    28330.881    17.121717 
   23280    666.12773   -7963.8846    -7889.577    961.79319    28309.707    17.132012 
   23290    661.68807   -7963.7629   -7889.9506      854.662    28291.972     17.13927 
   23300    662.59096   -7964.3041    -7890.391    792.32941    28277.272    17.137439 
   23310    656.33195   -7964.0985   -7890.8837    843.40294    28265.378    17.130355 
   23320    651.46429   -7964.0757   -7891.4039    905.47228    28256.364    17.125741 
   23330    648.08702     -7964.22    -7891.925    856.67933    28250.325    17.131294 
   23340    647.52238   -7964.6564   -7892.4243     791.8149    28247.074    17.151767 
   23350    646.67984   -7965.0225   -7892.8844    793.69598     28246.37    17.182321 
   23360     654.8904   -7966.3546   -7893.3006    712.37742    28248.145    17.210434 
   23370    666.21037   -7968.0062   -7893.6895    545.05507      28252.1    17.228849 
   23380    659.25612   -7967.5972   -7894.0562    545.25916    28257.753     17.23846 
   23390    647.70959   -7966.6378   -7894.3848    534.47769    28265.013      17.2436 
   23400    637.18229   -7965.7364   -7894.6578      558.859    28273.851    17.250271 
   23410    634.17614   -7965.6183    -7894.875    482.21121    28284.248    17.262158 
   23420    639.01413   -7966.3322   -7895.0493    407.03313        28296    17.278573 
   23430    642.04933   -7966.8252   -7895.2037    444.09664    28308.862    17.294812 
   23440    628.05115   -7965.4006   -7895.3406    643.77941    28322.947    17.306259 
   23450    620.08975   -7964.6177   -7895.4457    737.97954     28338.81    17.313437 
   23460    622.07944   -7964.9052   -7895.5113    716.15734    28356.728    17.321199 
   23470     620.4886   -7964.7536   -7895.5372    580.71402    28376.593    17.334337 
   23480    624.31903   -7965.1703   -7895.5266    282.25981    28397.938     17.35146 
   23490    636.12125   -7966.4486   -7895.4883    37.540603     28419.89    17.364816 
   23500    639.90221   -7966.8265   -7895.4444    97.899539    28441.738    17.368095 
   23510    631.38537   -7965.8364   -7895.4044    337.17884    28463.628    17.362904 
   23520    624.83147    -7965.051   -7895.3501    438.42424     28486.21    17.357778 
   23530    628.54957   -7965.3811   -7895.2655     380.2822    28509.813    17.363765 
   23540    631.77981   -7965.6305   -7895.1545    286.78819    28534.263    17.387417 
   23550    622.66495   -7964.4807   -7895.0214    299.52937    28559.293    17.425432 
   23560    628.57591   -7964.9795    -7894.861    143.05746    28584.851    17.467978 
   23570    647.45241    -7966.899   -7894.6747   -195.43117     28610.42    17.505448 
   23580     651.7083   -7967.1932   -7894.4942   -263.36191    28635.059    17.533615 
   23590    644.20818   -7966.2019   -7894.3395   -212.45964    28658.498    17.552091 
   23600    646.46422   -7966.3141   -7894.2001   -288.63572    28680.863    17.561428 
   23610    650.36414   -7966.6199   -7894.0708   -477.91393    28701.922    17.563015 
   23620     640.5007   -7965.4055   -7893.9567   -562.45317    28721.156    17.558573 
   23630    628.99173   -7964.0064   -7893.8414   -674.28448    28738.262    17.548748 
   23640    632.97557   -7964.3149   -7893.7055   -800.07658    28752.918    17.535981 
   23650    634.55488   -7964.3293   -7893.5438   -706.33959    28764.845    17.523236 
   23660    633.04578   -7963.9772     -7893.36   -598.49394    28774.311    17.508892 
   23670    631.06285   -7963.5468   -7893.1508   -484.06933    28781.703     17.49078 
   23680    630.39064   -7963.2277   -7892.9066   -360.12354    28787.422    17.471762 
   23690    645.45356   -7964.6258   -7892.6245   -363.99494    28791.855    17.453241 
   23700    662.87966    -7966.268   -7892.3228   -332.81365    28795.063    17.434927 
   23710    675.20948   -7967.3668   -7892.0461   -373.33487     28797.13    17.420163 
   23720    674.37595   -7967.0585   -7891.8309   -419.44749    28797.985    17.413147 
   23730    666.87605   -7966.0784   -7891.6874   -391.63852     28797.49    17.413639 
   23740    661.01512   -7965.3409   -7891.6037   -342.90598    28795.723    17.419273 
   23750    660.45964   -7965.2466   -7891.5713   -294.22626    28792.864    17.429728 
   23760    658.52918   -7965.0523   -7891.5923   -135.26601    28789.126     17.44467 
   23770    648.41538    -7963.996   -7891.6643    157.18212    28785.057    17.460797 
   23780    639.01606   -7963.0552    -7891.772    302.45851    28781.502    17.472081 
   23790    639.70892   -7963.2654   -7891.9049     293.4037    28778.934    17.474712 
   23800    643.63744   -7963.8616   -7892.0628    242.09844    28777.338    17.470108 
   23810    656.62299   -7965.5143    -7892.267    174.95171    28776.546    17.464402 
   23820    672.04383   -7967.5244   -7892.5569    28.356775     28776.31    17.465323 
   23830    676.47265   -7968.4398   -7892.9782   -40.089841    28776.201    17.474219 
   23840    660.25301    -7967.186   -7893.5337    61.536777    28776.022    17.486284 
   23850    641.08269   -7965.6816   -7894.1678    216.31089    28776.063    17.492428 
   23860    640.75793    -7966.309   -7894.8315    273.47171    28776.783    17.488747 
   23870    633.17644   -7966.1205   -7895.4888    319.63553    28778.398    17.480583 
   23880     622.1518   -7965.4917   -7896.0898    357.30763     28781.06    17.472736 
   23890     626.4371    -7966.494    -7896.614    218.36106    28784.803     17.47029 
   23900    632.74527   -7967.6477    -7897.064    31.590642    28789.206    17.478636 
   23910    638.06036    -7968.636   -7897.4594    -179.5579    28793.656    17.497699 
   23920    630.19722   -7968.1022   -7897.8028   -278.90316    28797.542    17.519824 
   23930    625.95093   -7967.9176   -7898.0918   -424.15828    28800.485    17.534619 
   23940    626.07777   -7968.1676   -7898.3276   -515.98761    28802.051    17.539013 
   23950    623.87515   -7968.1124   -7898.5182   -578.14102     28801.94    17.537597 
   23960    618.81744    -7967.691    -7898.661   -641.56288    28799.959    17.533736 
   23970    626.99927   -7968.7075   -7898.7648   -770.82264    28795.887    17.525707 
   23980    627.47881   -7968.8341   -7898.8379    -772.4663    28789.373    17.513644 
   23990    624.93497   -7968.6025     -7898.89   -612.43258    28780.433    17.500916 
   24000    634.09321   -7969.6595   -7898.9255   -387.61338    28769.589    17.491333 
   24010    636.50067   -7969.9563   -7898.9537   -66.258868    28757.588     17.48539 
   24020    627.28449   -7968.9472   -7898.9726    272.39385    28745.472    17.485234 
   24030    624.84106   -7968.6742   -7898.9722    296.80568    28734.239    17.492668 
   24040    618.97322   -7967.9849   -7898.9375    265.83363    28724.066    17.506875 
   24050    622.08772   -7968.2601   -7898.8653     55.04645    28714.774    17.524919 
   24060    627.73848   -7968.7787   -7898.7536   -258.26293    28705.702    17.541452 
   24070    632.93202   -7969.2148   -7898.6103    -443.1341    28695.901    17.549016 
   24080    633.06372   -7969.0618   -7898.4426   -369.04603    28684.824    17.547337 
   24090    627.98066   -7968.3031   -7898.2509   -67.793017    28672.716    17.541832 
   24100    624.70585   -7967.7099   -7898.0231    292.98765    28660.512    17.535768 
   24110    633.97367     -7968.47   -7897.7492    489.67471    28649.312    17.529792 
   24120    648.30211   -7969.7649   -7897.4459    476.89361    28639.733    17.521342 
   24130    651.77051   -7969.8469   -7897.1409    392.13866    28631.771    17.507864 
   24140    657.59257   -7970.2098   -7896.8543    449.52188    28625.193    17.490786 
   24150    652.67472   -7969.3926   -7896.5858    580.02794    28620.152    17.474723 
   24160    647.48476   -7968.5587   -7896.3308     527.6473    28616.957    17.465287 
   24170    643.74567   -7967.8824   -7896.0716    554.24738    28615.522    17.464026 
   24180    643.10403   -7967.5459   -7895.8066    570.00413    28615.866    17.468312 
   24190    629.92958    -7965.797   -7895.5274    477.12618    28617.995    17.474142 
   24200    615.10825   -7963.8194   -7895.2032    259.36195    28621.593    17.475804 
   24210    625.40992   -7964.5597   -7894.7943   -80.443141     28625.95    17.473135 
   24220    635.54016   -7965.1855     -7894.29   -139.34718    28630.105    17.475098 
   24230    630.74974   -7964.0759   -7893.7148    80.426911    28633.883     17.49038 
   24240    637.00505   -7964.1413   -7893.0825    -64.55225    28637.787    17.520432 
   24250    628.36825   -7962.5049   -7892.4095   -134.86813    28641.504    17.561073 
   24260     622.9737   -7961.2246    -7891.731    19.695191    28644.858    17.603277 
   24270    649.98255   -7963.5635    -7891.057   -85.531502    28648.179    17.637483 
   24280    673.18814   -7965.5436   -7890.4485   -162.69363    28651.228    17.659628 
   24290    678.13315   -7965.6337    -7889.987    -103.7894    28653.768    17.671253 
   24300    673.70642   -7964.8389    -7889.686    228.32598    28656.062    17.676423 
   24310    673.97437   -7964.7028   -7889.5199    480.75512    28659.072    17.681628 
   24320    677.28349   -7965.0152   -7889.4633    334.61844    28663.516    17.691743 
   24330    675.82286   -7964.8908   -7889.5017    29.822742        28669     17.71258 
   24340    671.41503   -7964.5161   -7889.6188   -320.78494    28674.531    17.744102 
   24350    671.07143   -7964.6526   -7889.7936   -595.83604    28679.032    17.775979 
   24360    674.53229   -7965.2706   -7890.0255   -752.39629     28681.62    17.800993 
   24370    662.55065   -7964.2163   -7890.3078   -507.43958     28681.89    17.823243 
   24380    645.82384   -7962.6497   -7890.6071   -119.56123    28680.562    17.850064 
   24390    648.67923   -7963.2595   -7890.8984    5.3821754    28678.775    17.883914 
   24400    652.67814   -7963.9927   -7891.1854    21.315852     28676.99    17.923523 
   24410    644.28038   -7963.3412   -7891.4707    -35.57269    28675.258     17.96517 
   24420    642.84575   -7963.4581   -7891.7477   -171.24053    28673.401    18.002408 
   24430    650.95225   -7964.6375   -7892.0228   -280.33445    28671.015    18.031369 
   24440    645.96527   -7964.3614    -7892.303   -238.86862    28667.784    18.055113 
   24450    636.16728   -7963.5424    -7892.577   -207.69364    28663.791    18.075968 
   24460     638.2306   -7964.0279   -7892.8323   -341.11807    28659.108     18.09132 
   24470    643.59105   -7964.8664   -7893.0729   -425.80832    28653.357     18.09942 
   24480    647.52947   -7965.5465   -7893.3136    -367.4731     28646.29    18.101374 
   24490    649.43895   -7966.0084   -7893.5625   -209.32419    28638.103    18.100297 
   24500    649.90065   -7966.3231   -7893.8257   -128.80489    28629.224    18.103892 
   24510    639.92447   -7965.4779   -7894.0934    20.031566    28619.982    18.120355 
   24520    634.74171    -7965.157   -7894.3506    36.516921     28610.79    18.148978 
   24530    627.46945   -7964.5814   -7894.5862    21.164538     28601.73    18.182774 
   24540    611.68974    -7963.016   -7894.7811    240.24434    28592.836      18.2131 
   24550    615.11443   -7963.5355   -7894.9186    235.02082    28584.673    18.233777 
   24560    630.17075   -7965.3116   -7895.0151   -102.98426    28577.169    18.245037 
   24570    629.32461   -7965.2933   -7895.0912   -113.53523    28569.451    18.252141 
   24580    627.22956   -7965.1155   -7895.1471   -45.152973    28561.396    18.260808 
   24590     633.7395   -7965.8769   -7895.1823    65.984195    28553.223    18.273838 
   24600    643.22296   -7966.9591   -7895.2066    191.93044    28545.279    18.291677 
   24610    657.15738   -7968.5564   -7895.2495    225.54749    28537.925    18.313783 
   24620    650.52149   -7967.8941   -7895.3275    366.59296    28531.334     18.33772 
   24630    639.77842   -7966.8092    -7895.441    549.41708    28525.917    18.359038 
   24640    624.83608   -7965.2595   -7895.5581    853.07336     28522.31    18.375711 
   24650    617.42138   -7964.5306   -7895.6564     1054.797    28521.406    18.391938 
   24660    620.22807   -7964.9053   -7895.7179    1018.5237    28523.833    18.411748 
   24670    639.18722   -7967.0593    -7895.757    606.50096    28529.406    18.432752 
   24680    641.08529     -7967.31   -7895.7959    522.42859    28537.059    18.454317 
   24690    643.02804   -7967.5815   -7895.8507    513.22215    28546.431    18.480266 
   24700    654.26516   -7968.9206   -7895.9364    293.18102    28557.398     18.51598 
   24710    647.04361     -7968.25   -7896.0713    290.31556    28569.397     18.56542 
   24720    640.76842   -7967.7413   -7896.2627    377.28015    28582.396    18.623883 
   24730    645.87395    -7968.567   -7896.5188     300.4796    28596.588    18.681252 
   24740    637.71767   -7967.9877   -7896.8494     324.9049    28611.844    18.732836 
   24750    631.89712    -7967.746    -7897.257    292.79302    28628.188    18.775806 
   24760    631.84667   -7968.2148   -7897.7313    299.15888     28645.57    18.809248 
   24770    634.80571   -7969.0845    -7898.271    272.53561    28663.976    18.834239 
   24780    625.98161    -7968.686   -7898.8568    345.49164    28683.376    18.853334 
   24790    604.45122   -7966.8612   -7899.4337    454.68925    28703.985     18.86855 
   24800    588.65931   -7965.6039   -7899.9381    395.15084    28726.111    18.880354 
   24810    591.53178   -7966.3232    -7900.337    164.51027    28749.574    18.893161 
   24820    607.26725   -7968.3838   -7900.6422   -60.965469    28773.664    18.913248 
   24830    614.56062   -7969.4352   -7900.8801   -55.175358    28797.719    18.944016 
   24840    610.89179   -7969.2093   -7901.0634    36.329843    28821.713    18.982368 
   24850    613.70952   -7969.6528   -7901.1926   -119.02351    28845.846    19.020694 
   24860    617.01983   -7970.0977   -7901.2682   -412.36995     28869.64    19.051804 
   24870     613.5417   -7969.7339   -7901.2924   -604.04655    28892.192    19.074215 
   24880    611.81924   -7969.5142   -7901.2648   -719.46867    28912.847    19.092388 
   24890    612.04269   -7969.4551   -7901.1808   -778.72019    28931.229    19.111281 
   24900    617.81719   -7969.9607   -7901.0422   -839.58498    28947.082    19.132018 
   24910    617.42105   -7969.7264   -7900.8521   -693.87742    28960.278    19.152421 
   24920    613.85625   -7969.0845   -7900.6079   -643.66568    28971.183    19.169838 
   24930     610.1891   -7968.3679   -7900.3004   -701.09718    28979.957     19.18202 
   24940    607.04555   -7967.6378   -7899.9209   -641.31896    28986.487    19.187369 
   24950    616.38067   -7968.2233   -7899.4651    -695.6548    28990.877    19.186213 
   24960    620.72193   -7968.1828   -7898.9403   -823.91876    28992.978    19.184601 
   24970    618.62045   -7967.3842   -7898.3762   -916.40767    28992.374    19.182477 
   24980    616.04651   -7966.5155   -7897.7946   -824.33883    28988.801    19.173204 
   24990    617.82769   -7966.1326    -7897.213   -726.83597    28982.491    19.156375 
   25000    630.94703   -7967.0386   -7896.6555   -676.77815    28973.748    19.136242 
Loop time of 19175.2 on 16 procs for 20000 steps with 864 atoms

Performance: 0.090 ns/day, 266.323 hours/ns, 1.043 timesteps/s
98.0% CPU use with 16 MPI tasks x 1 OpenMP threads

MPI task timing breakdown:
Section |  min time  |  avg time  |  max time  |%varavg| %total
---------------------------------------------------------------
Pair    | 17372      | 18120      | 18729      | 261.2 | 94.49
Bond    | 0.0027585  | 0.0071753  | 0.012644   |   3.7 |  0.00
Neigh   | 0.23095    | 0.24107    | 0.26497    |   1.8 |  0.00
Comm    | 262.89     | 851.28     | 1578.2     |1143.4 |  4.44
Output  | 1.4447     | 1.4944     | 2.221      |  15.3 |  0.01
Modify  | 143.67     | 202.44     | 290.1      | 312.1 |  1.06
Other   |            | 0.1741     |            |       |  0.00

Nlocal:        54.0000 ave          60 max          49 min
Histogram: 1 3 3 2 0 0 3 2 1 1
Nghost:        398.125 ave         414 max         372 min
Histogram: 1 0 1 1 1 2 4 2 1 3
Neighs:         0.00000 ave           0 max           0 min
Histogram: 16 0 0 0 0 0 0 0 0 0
FullNghs:      1569.50 ave        1831 max        1393 min
Histogram: 3 0 4 2 1 3 1 0 0 2

Total # of neighbors = 25112
Ave neighs/atom = 29.064815
Ave special neighs/atom = 0.0000000
Neighbor list builds = 2000
Dangerous builds = 2000
unfix   3
                
Total wall time: 6:38:21
