LAMMPS data file via write_data, version 2 Aug 2023, timestep = 20000, units = metal

1536 atoms
3 atom types

0.3601246310344557 22.37584992517324 xlo xhi
-1.5129363630708266 24.248910919278835 ylo yhi
-11.611440670163958 79.81936433878778 zlo zhi

Masses

1 35.45
2 39.0983
3 6.94

Atoms # full

1 0 2 1 0.846253267930015 0.29957868626986506 -9.685628660768922 0 0 0
5 0 1 -1 4.432111875906892 0.044552173164511544 -9.710219021113177 0 0 0
33 0 2 1 7.646419741548079 -0.009956168091938888 -9.399834994166163 0 0 0
37 0 1 -1 11.023449102648934 0.1614583412162689 -9.181514218378402 0 0 0
1498 0 3 1 11.683068276014223 -0.8164795878216257 77.25638960188876 0 1 0
65 0 3 1 13.24849018350452 -0.5474936734451052 -8.604557895572224 0 0 0
69 0 1 -1 15.445098940179756 0.3608354598883088 -9.432035902471272 0 0 0
97 0 3 1 17.791035408758354 0.3067115907259723 -8.794454220745866 0 0 0
1476 0 3 1 20.163710350374284 23.484698322551637 77.34915859816341 0 -1 0
101 0 1 -1 19.995204631656833 -0.28303032870402034 -9.197688129942168 0 0 0
8 0 1 -1 0.896871220324347 3.224751584692793 -9.841031947612557 0 0 0
4 0 2 1 4.291499513843105 3.17775146481302 -9.911559409115647 0 0 0
40 0 1 -1 7.585297093664683 3.3661468297651886 -9.531301349843968 0 0 0
36 0 2 1 10.464246740615126 3.2927468878575565 -9.47426703617315 0 0 0
72 0 1 -1 13.751977482922012 3.8917744626766275 -9.313369099568305 0 0 0
104 0 1 -1 17.954161605970597 2.682664013828653 -9.425344383225362 0 0 0
100 0 3 1 20.51050147685168 3.367163869014923 -9.689631175428147 0 0 0
9 0 2 1 0.7824624699644398 6.2310662760871605 -9.15552662395773 0 0 0
13 0 1 -1 3.9788009159062128 6.226172752519773 -9.71771242675749 0 0 0
41 0 2 1 7.063167228653578 6.707302470948811 -9.43083331216144 0 0 0
45 0 1 -1 10.408774096007487 6.4298820510168255 -9.581310343588306 0 0 0
73 0 3 1 14.665357283229191 5.280899090157481 -11.106154631068398 0 0 0
77 0 1 -1 16.121108120764177 6.479564972255364 -9.110556283985504 0 0 0
109 0 1 -1 19.72593595876128 7.173502604478115 -10.299873442759004 0 0 0
16 0 1 -1 0.5932868287049654 9.58489896594625 -9.848852835988293 0 0 0
12 0 2 1 3.8101813617758635 9.577111250363293 -9.475224396720135 0 0 0
48 0 1 -1 7.090039401722792 9.69906335187106 -9.756764403180632 0 0 0
44 0 2 1 10.634417685632517 9.463650354939489 -9.408848062521587 0 0 0
80 0 1 -1 13.76475870921812 9.946674747341664 -9.68414206535017 0 0 0
1483 0 3 1 17.72680388943804 8.72038964321048 -9.931700842809912 0 0 1
108 0 3 1 20.48517355329274 9.7559748798243 -9.027332555725543 0 0 0
17 0 2 1 1.00253432759227 12.951823519664789 -8.771683693656984 0 0 0
21 0 1 -1 4.020633582015423 12.796104123114999 -9.776174105655027 0 0 0
49 0 2 1 7.319140159386626 12.883227484789009 -9.834492384471854 0 0 0
53 0 1 -1 10.952434408136023 13.249987895341318 -9.563679514720342 0 0 0
81 0 3 1 13.422850283978805 13.663079731569214 -9.595423384772761 0 0 0
113 0 3 1 17.813107743341234 11.712246786994541 -10.221075539216066 0 0 0
85 0 1 -1 16.021043922906237 13.068537470829801 -9.902835287687388 0 0 0
116 0 3 1 19.254240189114025 14.508653774072306 -9.101636522308436 0 0 0
117 0 1 -1 19.859717991027487 12.044574120557462 -8.889839619168477 0 0 0
1526 0 1 -1 18.661534091560835 14.174394112484146 -11.331773394873645 0 0 1
24 0 1 -1 1.1294205596629363 15.837111108913865 -9.358648380507802 0 0 0
20 0 2 1 3.950718855659407 16.235587220796766 -9.46681992571655 0 0 0
56 0 1 -1 7.24325443126711 16.572204366550935 -9.97706672360483 0 0 0
52 0 2 1 10.378880717688606 16.20861407748383 -9.678240939184407 0 0 0
88 0 1 -1 13.532688128300363 16.347871783278826 -10.09814590397065 0 0 0
84 0 3 1 15.753072408319955 15.427650862378856 -10.683611884284186 0 0 0
120 0 1 -1 17.344821996182073 16.597223633955018 -9.151362203543554 0 0 0
1523 0 3 1 19.292506817627423 17.597078967142124 -8.092518457961077 0 0 1
1426 0 2 1 21.7453024356533 16.285301170834437 78.94805444092916 -1 0 0
25 0 2 1 0.7502257803965406 19.398598579292603 -9.202072393428306 0 0 0
29 0 1 -1 4.121313751133453 19.391550399444434 -9.551405861989934 0 0 0
57 0 2 1 7.323113436120851 19.776181462858347 -10.117972265268621 0 0 0
61 0 1 -1 10.297982499300435 19.818120309244094 -9.78531766564185 0 0 0
89 0 3 1 15.03616358348378 17.977071659675204 -8.689164070321503 0 0 0
93 0 1 -1 15.9828549591994 19.935616260788713 -10.14028688227298 0 0 0
121 0 3 1 18.320670596886483 19.86434971103376 -9.304894272651202 0 0 0
125 0 1 -1 20.023720274643875 18.600003165390483 -10.55354984179501 0 0 0
32 0 1 -1 0.49171085565537487 22.701976517756627 -9.499387994341395 0 0 0
28 0 2 1 3.9182486343146956 22.51650439671355 -9.73979009795154 0 0 0
64 0 1 -1 7.24800498051503 22.84005933307119 -9.725617149920863 0 0 0
60 0 2 1 10.384178425787276 22.760967331034088 -9.809574010421606 0 0 0
96 0 1 -1 13.64630099741728 22.77182735054665 -8.84555543972446 0 0 0
92 0 3 1 15.628383515554015 22.21653380203736 -10.050537937325966 0 0 0
128 0 1 -1 18.261684713507123 22.264791350446664 -9.376684884403671 0 0 0
124 0 3 1 20.22313858537653 23.495734494203653 -10.53855533162914 0 0 0
7 0 1 -1 1.1334960597101325 -0.01301826083933455 -6.017543457943068 0 0 0
3 0 2 1 4.140941874520555 0.03184547630904033 -5.700464000828527 0 0 0
39 0 1 -1 7.248122023421274 0.20655146777623057 -5.6148269069434615 0 0 0
35 0 2 1 10.556211201958936 0.22703068843168595 -5.222444493560141 0 0 0
71 0 1 -1 13.414145139398524 -0.11314282145681864 -5.84217752249343 0 0 0
103 0 1 -1 17.310999402134858 0.8252119521417813 -6.115190425162065 0 0 0
99 0 3 1 20.78294279542272 -0.5086391706105684 -6.386489495997712 0 0 0
2 0 2 1 1.0284693455791851 3.1734649842893248 -5.4543012660061 0 0 0
6 0 1 -1 4.440790181102822 3.660093257541625 -5.8204672706581295 0 0 0
34 0 2 1 7.616517694323072 3.6429592058445 -5.973432121603511 0 0 0
38 0 1 -1 10.369583363637096 3.478791093896552 -5.599391808087995 0 0 0
68 0 3 1 15.631179538111368 2.4105024837636027 -8.229652710103228 0 0 0
70 0 1 -1 16.925591432538685 4.255312792684558 -6.15782615684886 0 0 0
98 0 3 1 18.916594901763137 2.7218221532250366 -6.621903255680182 0 0 0
111 0 1 -1 20.23327348495134 4.694387372125427 -7.300366594274959 0 0 0
15 0 1 -1 1.1218385762085417 6.28202538253509 -5.548873172157031 0 0 0
11 0 2 1 4.331063105075989 6.50283592023605 -5.6271887484884155 0 0 0
47 0 1 -1 7.495038073213851 6.862761850409118 -5.7647483111745785 0 0 0
43 0 2 1 10.810790789938206 6.626375994569361 -5.819722839368572 0 0 0
66 0 3 1 14.900586201114223 5.278378056036113 -7.187660482426032 0 0 0
79 0 1 -1 13.522969309316863 7.183223615191698 -6.1277845468920535 0 0 0
105 0 3 1 18.03797229447687 5.236513998640182 -8.137657328753509 0 0 0
107 0 3 1 20.77119036883523 6.626528396535004 -5.865669217438714 0 0 0
10 0 2 1 1.1621752270438712 9.437082994850954 -5.357158915279303 0 0 0
14 0 1 -1 4.149239730148569 9.674594934659943 -5.95300026388481 0 0 0
42 0 2 1 7.109479933256412 10.079413200099111 -5.8896195040542025 0 0 0
46 0 1 -1 10.20091184995676 10.018269219849719 -5.92468273043553 0 0 0
75 0 3 1 14.76038527464272 8.487859362516796 -7.6135447745722455 0 0 0
78 0 1 -1 15.723237917644044 10.010890121392146 -6.007669939894837 0 0 0
106 0 3 1 18.01302224377687 10.075553067811237 -5.290977744101949 0 0 0
110 0 1 -1 20.277405327677645 8.816832789901792 -6.361071651755916 0 0 0
23 0 1 -1 0.8319673437919659 12.634856032568303 -5.093902399252374 0 0 0
19 0 2 1 4.271213707520614 12.899923665910286 -5.656842409050536 0 0 0
55 0 1 -1 7.427614835913252 13.16062933635652 -6.389718274608366 0 0 0
51 0 2 1 11.20270333026613 13.068874467289502 -5.531018773553255 0 0 0
87 0 1 -1 14.020984357135312 13.402305109281672 -6.783005142139399 0 0 0
74 0 3 1 15.070410703206173 11.633799522296481 -7.848843463755745 0 0 0
83 0 3 1 15.993611513253002 13.684124177255605 -5.227827310542301 0 0 0
115 0 3 1 20.35995532855857 12.90988290486799 -5.42782318064306 0 0 0
18 0 2 1 0.7625432120083876 16.016866500087488 -5.457146243371177 0 0 0
22 0 1 -1 4.367303893646226 16.14729774681509 -5.56305021504465 0 0 0
50 0 2 1 7.381218741071752 16.397128967316434 -6.143280246222983 0 0 0
54 0 1 -1 10.434429790481378 16.07243685876343 -6.046797561389241 0 0 0
114 0 3 1 18.25069650158779 16.589323308755617 -6.1856936717931115 0 0 0
118 0 1 -1 20.077423461121533 14.890031871334413 -6.67378144645683 0 0 0
31 0 1 -1 1.3193362121711627 19.186022429299143 -5.724490769376591 0 0 0
27 0 2 1 4.418662152815177 19.38401772702685 -5.733447141003274 0 0 0
63 0 1 -1 7.511030595797644 19.26627735082984 -5.888194383643984 0 0 0
59 0 2 1 10.799226104092693 19.460510349427047 -6.145378316186551 0 0 0
95 0 1 -1 13.822499428467461 18.87065883593315 -6.451408040310109 0 0 0
127 0 1 -1 17.87631233541568 19.371525459866305 -5.993297257348961 0 0 0
26 0 2 1 1.1564243426462282 22.58918976336173 -6.052872624755689 0 0 0
30 0 1 -1 4.292801581959308 22.701775354761153 -6.2763775731806435 0 0 0
58 0 2 1 7.445576723060366 22.90104216204775 -5.639438043068609 0 0 0
62 0 1 -1 10.758546370308704 22.59709927299901 -5.937552286294916 0 0 0
90 0 3 1 13.116791509397858 23.261443891010543 -6.173174600795368 0 0 0
94 0 1 -1 16.331469423542202 22.86515960625463 -5.148464386720364 0 0 0
122 0 3 1 18.22991826234132 22.11060256202407 -6.3096100581127885 0 0 0
126 0 1 -1 20.030239831786336 23.15738193817198 -5.157477066630226 0 0 0
133 0 1 -1 4.009873648304595 0.0960353697970091 -1.872567763424124 0 0 0
161 0 2 1 7.073617259092355 0.01992785249777529 -2.044485697914814 0 0 0
193 0 3 1 13.35403351608332 0.7506250120045812 -2.661161062323231 0 0 0
67 0 3 1 15.692429607324014 -0.6873461024864828 -5.067739931371647 0 0 0
197 0 1 -1 15.602364273503653 -0.19105316696755392 -2.3167795772992825 0 0 0
228 0 3 1 18.659676820442936 0.7873574354779609 -3.7365282409088296 0 0 0
102 0 1 -1 20.364433149475357 1.4284116254909764 -5.056586003991266 0 0 0
136 0 1 -1 1.1280821400843384 3.4065423587710777 -2.052907950011962 0 0 0
132 0 2 1 4.240195394423999 3.517402783217448 -1.892765693598779 0 0 0
168 0 1 -1 7.51194867143463 3.2453140932462503 -2.278309051629469 0 0 0
164 0 2 1 11.00428635361995 3.464348914763252 -2.1052729355224447 0 0 0
232 0 1 -1 17.949060842732862 2.4557466294090378 -1.8405777213055572 0 0 0
233 0 3 1 18.02264336879593 4.345707627988648 -3.3631119755224272 0 0 0
141 0 1 -1 4.27607379758933 6.698697482051736 -2.0588758210626086 0 0 0
169 0 2 1 7.565002308110369 6.486415000715465 -2.105754335618114 0 0 0
173 0 1 -1 11.214475520524424 6.739569159581096 -1.9529704596512403 0 0 0
205 0 1 -1 15.88803607132384 5.820118702395161 -2.6589206506204626 0 0 0
137 0 2 1 22.35168830808957 6.238890278881804 -1.9629158700494624 -1 0 0
237 0 1 -1 19.532079577850176 6.003948887943062 -3.600196953746174 0 0 0
144 0 1 -1 0.9752000782166116 9.135636048283613 -1.8964718961840372 0 0 0
140 0 2 1 4.057534733402376 9.75368289304531 -1.8508695495487508 0 0 0
176 0 1 -1 7.443200138448361 9.827618702384294 -2.1658737623936464 0 0 0
172 0 2 1 10.57321688610642 9.985714265464834 -2.1158117362997597 0 0 0
204 0 3 1 15.381836705943387 10.675973618237418 -2.852683059467198 0 0 0
240 0 1 -1 17.697170439416393 9.766264963441703 -2.4988185629530744 0 0 0
149 0 1 -1 3.653185638888727 12.75298833612646 -1.9571015914185228 0 0 0
177 0 2 1 7.523600506684633 13.056145735391672 -2.2668654202437803 0 0 0
119 0 1 -1 18.207245197674116 12.400873536655697 -4.854482894388091 0 0 0
213 0 1 -1 15.52991400397072 13.216626613642307 -2.634919518785555 0 0 0
148 0 2 1 4.163965680715002 16.296942750328043 -1.8725396279413236 0 0 0
184 0 1 -1 7.387087590664497 16.1766088433875 -2.0868970268133697 0 0 0
180 0 2 1 10.658656403424256 16.216944931972634 -1.9148085732417819 0 0 0
82 0 3 1 14.233636520586387 17.20399566096367 -4.7412780067138005 0 0 0
216 0 1 -1 13.544716685423005 16.603421360424363 -1.8521117401042009 0 0 0
86 0 1 -1 16.16873917011416 16.002370009473076 -4.9601716804379095 0 0 0
212 0 3 1 17.595898969315748 15.38511835751846 -2.675554109082963 0 0 0
248 0 1 -1 19.224130592827084 17.005735879631033 -3.372903359387145 0 0 0
157 0 1 -1 4.210750592122076 19.34387547500822 -1.9047004484124894 0 0 0
185 0 2 1 7.190242518009794 19.411691746224292 -2.143911311705562 0 0 0
189 0 1 -1 10.563425334794244 19.344526426092173 -2.034616370409056 0 0 0
91 0 3 1 15.028950893301413 20.580214402420516 -5.010753688768189 0 0 0
221 0 1 -1 15.588037423645122 19.44342123154263 -2.24775606723834 0 0 0
249 0 3 1 18.035748670020926 19.286908344513307 -3.2234269414866326 0 0 0
153 0 2 1 21.754799152946998 19.291813607914165 -2.33921990778053 -1 0 0
253 0 1 -1 19.246200606557885 20.68913422932888 -1.8663631527447784 0 0 0
160 0 1 -1 0.9654122286060257 22.432687657535553 -2.418669570935407 0 0 0
156 0 2 1 3.8641178548728368 22.548009684097906 -2.025242745659689 0 0 0
192 0 1 -1 7.138093380965644 22.76685943135857 -2.135210819458205 0 0 0
224 0 1 -1 13.395268572267675 21.945240275065373 -2.8832835504779215 0 0 0
220 0 3 1 15.582895150890502 22.869890652127644 -2.309548821269507 0 0 0
252 0 3 1 20.403408217831306 22.868254314889917 -2.4277686222551527 0 0 0
129 0 2 1 0.6388903887879991 -0.009135714157563424 -1.7755189525952808 0 0 0
165 0 1 -1 11.354293942443954 -0.09882837162047453 -1.7549124189418865 0 0 0
196 0 3 1 15.979239903867382 1.6003722209686622 -0.37303968818548583 0 0 0
225 0 3 1 17.68922714904863 -0.7972338589325388 -0.11092522069511723 0 0 0
229 0 1 -1 19.440989399497802 -0.6225860660142706 -1.7246703355855324 0 0 0
200 0 1 -1 13.935933408416737 2.510231594794293 -1.3257603685489823 0 0 0
194 0 3 1 15.253805849525142 4.419206599746335 -0.8024147959610524 0 0 0
226 0 3 1 18.414060351445 3.760940023940753 0.6591185491550089 0 0 0
139 0 2 1 4.255875609229511 6.4261849681490375 1.4275740517181266 0 0 0
201 0 3 1 13.67945691432626 7.008329764824415 -1.7624990484297438 0 0 0
207 0 1 -1 14.167333036722301 6.172505141038426 0.7693623451307339 0 0 0
236 0 3 1 18.019741776974225 7.629464134606835 -1.556453867003679 0 0 0
239 0 1 -1 18.224358959846462 6.651666242170018 1.0083701969417778 0 0 0
170 0 2 1 7.276124056352759 9.70738621631737 1.2716300872257857 0 0 0
208 0 1 -1 13.887878631729953 9.537421542852371 -1.3622709139218898 0 0 0
202 0 3 1 14.084124087364485 9.089857328319605 1.3713985742984285 0 0 0
238 0 1 -1 20.044600759064025 11.14025598349979 0.803585373408854 0 0 0
145 0 2 1 0.45014666907784323 12.200026562486208 -1.7194631655589951 0 0 0
181 0 1 -1 10.502766608382679 13.212706775269673 -1.5463319623906973 0 0 0
241 0 3 1 18.256846058310686 12.063911349499126 -1.627784337298312 0 0 0
245 0 1 -1 19.94180437699061 13.661989985583741 -1.574687920796645 0 0 0
243 0 3 1 20.301954976726233 13.466260279459817 1.341546356943109 0 0 0
152 0 1 -1 0.986487081028194 16.481501908275888 -1.5826382792811629 0 0 0
209 0 3 1 14.633734917566674 14.716518167355614 -0.7157365804628686 0 0 0
214 0 1 -1 16.903804479866345 15.927141734868014 -0.1065205349824101 0 0 0
242 0 3 1 18.017078641625798 17.362573221952132 1.1504100673031967 0 0 0
244 0 3 1 20.55106273008869 15.910849061389916 -1.2724683145306663 0 0 0
217 0 3 1 12.87832730687803 19.65234857528631 -1.4665817938270145 0 0 0
223 0 1 -1 13.52968196121758 18.77096617913601 1.3162914190099801 0 0 0
210 0 3 1 15.299106010324985 18.051738217380034 -0.20285390652900404 0 0 0
188 0 2 1 10.465210609159815 22.647003477976035 -1.6612000996492675 0 0 0
256 0 1 -1 16.776204277302437 22.68701033759134 0.23941360754070296 0 0 0
250 0 3 1 18.55096857382323 21.278745569526286 0.5086983057479788 0 0 0
135 0 1 -1 1.3578498998239859 0.19435114952304167 1.8002541102938494 0 0 0
131 0 2 1 4.407582303154758 -0.008968004738918678 2.094698742443766 0 0 0
167 0 1 -1 7.774527291593734 -0.40507325867004074 1.8489546922520983 0 0 0
163 0 2 1 10.921432662081317 0.30629353538445137 1.5476923069250343 0 0 0
199 0 1 -1 13.934948231538542 -0.15195273390681097 2.671407848718559 0 0 0
231 0 1 -1 17.399728197033188 -0.010240194094382815 2.396932854477127 0 0 0
195 0 3 1 15.5438265276371 1.4306895614853397 3.2719972751822617 0 0 0
130 0 2 1 1.2769540195333209 3.1899449694204884 1.8275609150786138 0 0 0
134 0 1 -1 4.49020223199435 3.2341332422927973 1.7358494804037488 0 0 0
162 0 2 1 7.666884344116215 3.1491309050200487 1.7996726287523135 0 0 0
166 0 1 -1 10.344197576019798 3.4700970416376897 1.662722113275386 0 0 0
198 0 1 -1 16.166927057737944 3.27483378610828 1.7279127717805984 0 0 0
230 0 1 -1 20.111288347455 3.2801743136617993 1.9582514402176443 0 0 0
143 0 1 -1 0.6381037358668897 6.372958839526198 1.7837287768543728 0 0 0
175 0 1 -1 7.5174978237118 6.697461617245857 1.7650688533561603 0 0 0
171 0 2 1 10.803443610548149 6.9295635198194425 1.6698626059591923 0 0 0
203 0 3 1 16.17040388827195 5.455015291131946 2.316292316590369 0 0 0
235 0 3 1 20.365177793755898 5.763405465133599 1.9656118098032902 0 0 0
138 0 2 1 0.45065981856766707 9.317676681666955 1.7432049324270267 0 0 0
142 0 1 -1 3.71776830843989 9.463063886304901 2.023112376298293 0 0 0
174 0 1 -1 10.593239146950678 10.131084793571912 1.6570259224438768 0 0 0
336 0 1 -1 13.8101581745077 8.517225144116905 3.9679795608201562 0 0 0
206 0 1 -1 16.116275853606666 10.321289622739327 1.8763107133619705 0 0 0
234 0 3 1 18.467282145895073 10.588802792076411 2.623530341014563 0 0 0
332 0 3 1 16.26569547039012 8.609231965888915 3.907922189532723 0 0 0
147 0 2 1 3.8416217648189006 12.921120253403274 1.8598781978583538 0 0 0
151 0 1 -1 0.6478966882309614 12.966432812301127 2.2169676637017304 0 0 0
183 0 1 -1 7.161579979008963 12.834646025391525 1.5139975710092752 0 0 0
179 0 2 1 11.073577733980038 13.22508806415661 1.731289379978909 0 0 0
215 0 1 -1 13.946142048659114 13.977614903742541 1.7204244887453672 0 0 0
337 0 3 1 13.132057911274758 14.327667791254374 4.391537646816754 0 0 0
211 0 3 1 15.990319305778769 12.489321125867292 3.027597911026314 0 0 0
247 0 1 -1 18.248516452235283 13.159515107085955 3.067949096790459 0 0 0
146 0 2 1 1.0911361893859834 16.329540089520144 1.9688265938551588 0 0 0
150 0 1 -1 4.0354682543306195 16.214417593757936 1.6107372750666684 0 0 0
178 0 2 1 7.373570007588262 16.04973233557027 1.6214245467367228 0 0 0
182 0 1 -1 10.392540081977323 16.132878703822392 1.9355032591429122 0 0 0
246 0 1 -1 20.118054124181675 16.20145187469975 1.562703708675505 0 0 0
372 0 3 1 20.21596295199019 16.71285988636835 4.367819839224083 0 0 0
159 0 1 -1 0.9018659116115877 19.465106322962725 1.805162145881976 0 0 0
155 0 2 1 4.056099044258708 19.379816677369966 1.5197720885011066 0 0 0
191 0 1 -1 7.407359154872498 19.207500617737985 1.683926540894202 0 0 0
187 0 2 1 10.493560421548631 19.119564416036013 1.8681769367689398 0 0 0
219 0 3 1 14.966641307628956 20.017648105398365 2.800444850428491 0 0 0
255 0 1 -1 17.38991744020715 19.341445659980756 1.955124793964556 0 0 0
251 0 3 1 18.547223815159178 20.97324905429317 4.218013688387064 0 0 0
154 0 2 1 0.9349518095121522 22.662174117606988 2.329949551058668 0 0 0
158 0 1 -1 4.154418876654036 22.482603435537257 1.811416879772942 0 0 0
186 0 2 1 7.310695673811419 22.40252850304369 2.049491045870589 0 0 0
190 0 1 -1 10.647164464955543 22.578110307730384 1.750439879027212 0 0 0
222 0 1 -1 14.50522338354671 22.31945887844992 4.0529840885397235 0 0 0
218 0 3 1 15.315283533886037 23.79768846672652 2.215562224937445 0 0 0
227 0 3 1 18.67287218517481 24.179737239199717 3.638222545677362 0 -1 0
254 0 1 -1 20.007761084581244 22.67880722992531 2.2357314408449653 0 0 0
257 0 2 1 1.0366913334265315 0.298522524663537 5.643941765605497 0 0 0
261 0 1 -1 4.271379828608119 0.20710311118059965 5.783885450664435 0 0 0
289 0 2 1 7.5534340050264825 -0.39695505180241786 5.661083983434455 0 0 0
293 0 1 -1 10.445988978687533 0.22083429765558504 5.022674608638283 0 0 0
321 0 3 1 12.70952102740363 0.12459151948286751 5.421645034374723 0 0 0
325 0 1 -1 15.503595381267465 1.6001697718848917 6.037453940293634 0 0 0
353 0 3 1 18.01601414073649 1.140733996726269 6.567100952614304 0 0 0
357 0 1 -1 19.85506577458331 -0.08872341997764344 5.877165584554145 0 0 0
264 0 1 -1 0.8712489711675563 3.4666203456954143 5.476249391927357 0 0 0
260 0 2 1 4.391451826218754 3.403900234517284 5.473215578725966 0 0 0
296 0 1 -1 7.305414813895703 3.3127154291005505 5.427222413277711 0 0 0
292 0 2 1 10.393022925074787 3.530628949556294 5.47547900526742 0 0 0
328 0 1 -1 13.263232318153326 4.318093192008477 6.038440815563465 0 0 0
324 0 3 1 15.867667434389327 4.203969166582461 6.547168635881508 0 0 0
360 0 1 -1 18.5589169107862 3.388914945384194 6.289261603641691 0 0 0
356 0 3 1 20.384891436928292 3.716029250662981 4.9386228788592135 0 0 0
265 0 2 1 1.0483491313580657 6.813512500102451 5.427255102382233 0 0 0
269 0 1 -1 4.304455819127808 6.571996203214548 5.477133572065945 0 0 0
297 0 2 1 7.309910994583716 6.557023763178819 5.355346849657376 0 0 0
301 0 1 -1 10.672444386463944 6.624182313924241 5.487484364153996 0 0 0
329 0 3 1 12.976847099694234 6.5226920470741145 5.1040711855875145 0 0 0
333 0 1 -1 15.86693320288568 6.153536405836314 4.964523490316097 0 0 0
361 0 3 1 18.569632145238764 6.534791839776583 5.755895550711408 0 0 0
365 0 1 -1 20.445318632466993 6.0396489843569015 4.715502851028727 0 0 0
272 0 1 -1 0.9930501887423354 9.857461661180748 5.580419709366446 0 0 0
304 0 1 -1 7.232213561705942 9.795304098766312 5.314307924643323 0 0 0
268 0 2 1 4.036367527128112 9.856996088478281 5.8038565936247295 0 0 0
300 0 2 1 10.912921096230633 9.979994776568537 5.0197441025964515 0 0 0
362 0 3 1 17.993483576742953 9.233923753215748 7.931127734218382 0 0 0
368 0 1 -1 18.708925761792333 9.065648472408519 5.022619237410282 0 0 0
364 0 3 1 20.674544497401673 10.329347751930253 6.641355308094845 0 0 0
273 0 2 1 0.9133130206276671 13.152798653447308 5.904175664676249 0 0 0
305 0 2 1 7.359456826322342 12.961347269526668 5.197673851376905 0 0 0
277 0 1 -1 4.216314085543885 12.947424815445869 5.43469528663389 0 0 0
309 0 1 -1 11.21812133726863 13.170854042089614 5.473812697887901 0 0 0
341 0 1 -1 15.744114762196089 13.36268735759886 5.783803743242778 0 0 0
369 0 3 1 18.09626565659737 13.460343393407403 5.688416793532877 0 0 0
373 0 1 -1 20.040963769488695 12.690972560735148 6.93694219986628 0 0 0
280 0 1 -1 0.5213557421890778 16.42501961724743 5.701334488527394 0 0 0
276 0 2 1 4.139030789781081 16.063866806032593 5.389900481070388 0 0 0
312 0 1 -1 7.1717773492608705 16.17256431971046 5.6472528383701 0 0 0
308 0 2 1 10.47832443290657 16.322674970488848 5.568487353475408 0 0 0
344 0 1 -1 13.3867328193879 16.38328173084431 5.252029921417272 0 0 0
340 0 3 1 15.8032885233527 15.861925085088844 5.698153525345145 0 0 0
376 0 1 -1 18.135299159840088 16.124584226109185 5.842519581003206 0 0 0
281 0 2 1 0.6237712105993471 19.711226005329856 5.290251515979566 0 0 0
285 0 1 -1 3.94354494123478 19.311430905200936 5.38959163338227 0 0 0
313 0 2 1 6.861334792681447 19.51922770718471 5.360889057331459 0 0 0
317 0 1 -1 10.872513921625298 19.595687225854668 5.610511573166264 0 0 0
345 0 3 1 13.194928880515029 18.913268215399604 5.960618340458662 0 0 0
349 0 1 -1 15.468342445880765 19.379900930111226 5.554895415069161 0 0 0
377 0 3 1 17.517673135798237 18.185859498837637 6.407994075919877 0 0 0
381 0 1 -1 19.5468010952184 19.212590724884436 5.435740207699091 0 0 0
288 0 1 -1 0.49740887161283054 23.09199443373867 5.654861497326962 0 0 0
284 0 2 1 3.9512486438402292 22.433065604212693 5.348195169083937 0 0 0
320 0 1 -1 6.95742543229799 22.574829231275764 5.667808917443704 0 0 0
316 0 2 1 11.287385473471042 22.709794156521724 5.478856786640748 0 0 0
352 0 1 -1 13.275872297042937 24.126065214120985 7.439109165827968 0 0 0
384 0 1 -1 17.714054658086408 22.62704080679064 5.492915133008339 0 0 0
348 0 3 1 15.553029095554043 23.32774201821764 6.084701400407571 0 0 0
380 0 3 1 20.265144914536325 23.286437506870023 6.408624116602688 0 0 0
263 0 1 -1 0.6858235753662363 -0.14906937743135984 10.081429866297604 0 0 0
295 0 1 -1 7.315023087235166 0.29507872127758805 9.287093044531911 0 0 0
259 0 2 1 4.170240612507073 0.08762150102789934 9.581843043590396 0 0 0
291 0 2 1 11.057946997178476 -0.09030167680660983 9.117054293832911 0 0 0
327 0 1 -1 13.396642153716845 1.4012366531299474 10.546272053312869 0 0 0
323 0 3 1 15.2625899245835 1.1971988086771863 8.97674525910449 0 0 0
359 0 1 -1 17.387115726208133 0.056848078760480814 9.7691573616408 0 0 0
355 0 3 1 20.489764735937076 -0.3749126900835067 10.112529284656993 0 0 0
258 0 2 1 0.7222608070541949 3.77725207926313 9.379311967612981 0 0 0
262 0 1 -1 3.885300686056696 3.3717692718741175 9.639226337703832 0 0 0
290 0 2 1 7.397874362627068 3.5974469104849307 9.20324566420064 0 0 0
294 0 1 -1 10.620438824015684 3.1737308500901857 8.836872953042352 0 0 0
322 0 3 1 12.881475287836603 3.25352445276558 8.711047141570567 0 0 0
326 0 1 -1 16.185236747408407 3.498912166788421 9.295696224259366 0 0 0
354 0 3 1 18.236459592802163 4.3602311614803915 8.940690944781078 0 0 0
358 0 1 -1 20.085516315122423 3.983609288889463 10.985451458120266 0 0 0
271 0 1 -1 0.6952263277559146 6.952323677122193 9.090200378891605 0 0 0
267 0 2 1 4.201018473125643 6.670149216103004 9.107720590320962 0 0 0
303 0 1 -1 7.527215913872741 6.970841993206184 9.312426947976203 0 0 0
299 0 2 1 10.33840652030408 6.36223027590505 9.111622490673739 0 0 0
335 0 1 -1 13.141935868676343 5.329813741702482 10.163661643456678 0 0 0
367 0 1 -1 18.4359813623913 6.709635551892477 8.550335855056826 0 0 0
363 0 3 1 20.354179262725168 6.379807084000391 10.220779860873552 0 0 0
266 0 2 1 0.9359710654239524 9.840743946427656 9.810881143724043 0 0 0
298 0 2 1 7.547325777762594 9.931081358026864 9.272221138190549 0 0 0
270 0 1 -1 4.492647030877216 9.823415110490238 9.646884213176868 0 0 0
302 0 1 -1 10.68002470125186 9.623545436385603 8.916219868904083 0 0 0
330 0 3 1 12.90214070990631 9.922990940098408 9.604631830556247 0 0 0
334 0 1 -1 15.657389417987554 9.541526833161985 8.50633715938945 0 0 0
366 0 1 -1 20.046812528367386 9.976007038509238 9.213863482762086 0 0 0
279 0 1 -1 1.367785811406889 13.187967549133973 9.50587950497469 0 0 0
275 0 2 1 4.375083965208552 12.806790500792664 9.21926613522978 0 0 0
311 0 1 -1 7.476942741402109 13.02963882355865 9.056402336177914 0 0 0
307 0 2 1 10.559344161488301 13.189583778048325 8.913777962021893 0 0 0
343 0 1 -1 13.259316970870389 12.374324189395455 9.256129171900373 0 0 0
339 0 3 1 15.408429328364805 12.056149357019027 8.20992487759067 0 0 0
375 0 1 -1 17.070137858818473 13.314105570815638 9.959780104519709 0 0 0
371 0 3 1 19.36181022128874 12.95551305330681 9.640592998781578 0 0 0
274 0 2 1 0.9987692755391525 16.18087070650553 9.39104527304239 0 0 0
278 0 1 -1 4.18911455822822 16.320422218719834 9.414165199705145 0 0 0
306 0 2 1 7.474592064851521 15.98144954990949 9.23788293287421 0 0 0
310 0 1 -1 10.487261256184054 16.447930016885252 9.325564776730072 0 0 0
338 0 3 1 12.866978348268386 17.056827287846964 9.397134980806364 0 0 0
342 0 1 -1 15.679930626429709 16.366012423360885 8.42565762495633 0 0 0
370 0 3 1 17.921234414958306 16.387276748132685 9.80754293921002 0 0 0
468 0 3 1 15.744421369534118 14.992118917771029 11.163590751280694 0 0 0
374 0 1 -1 20.27362151961423 16.529281555833293 10.031374186123362 0 0 0
287 0 1 -1 0.7044640552811678 19.251554731689318 9.230516727242094 0 0 0
283 0 2 1 4.139381968974273 19.425576372013957 9.320437483047808 0 0 0
319 0 1 -1 7.097752716931691 19.573644707539813 9.184538994104948 0 0 0
315 0 2 1 10.199167699412492 19.622750706409875 9.482600684312072 0 0 0
351 0 1 -1 13.101075954367419 19.18415800218157 8.770206588658937 0 0 0
347 0 3 1 15.71779315779159 19.98962604207243 8.443775317949303 0 0 0
383 0 1 -1 17.94610193497748 19.005663829566245 9.259300642344225 0 0 0
379 0 3 1 20.39584732198567 18.860434676875784 9.719408957146914 0 0 0
282 0 2 1 0.658191396048406 22.312170402182296 9.804466154863526 0 0 0
286 0 1 -1 3.932874601141128 22.663557552084733 9.545041564758343 0 0 0
314 0 2 1 7.214418694818387 22.971926445297022 9.472883401084722 0 0 0
318 0 1 -1 10.421614426004828 22.756272287066572 9.850217346195496 0 0 0
346 0 3 1 13.357456621655055 22.56183752317512 9.620270672182706 0 0 0
350 0 1 -1 16.046794231730217 22.027609096566316 9.02353201329927 0 0 0
378 0 3 1 17.474121980975163 23.699592281636853 10.258573035031986 0 0 0
382 0 1 -1 19.77090003572408 23.408844804910558 9.023726609331465 0 0 0
385 0 2 1 1.2844159679764346 0.040142362443458035 13.474011944869979 0 0 0
389 0 1 -1 4.552078418262495 0.2448428697107734 13.254454247086144 0 0 0
417 0 2 1 7.74941510146732 0.3544415684790103 13.005433387889845 0 0 0
421 0 1 -1 10.901273313059482 0.10572706296310197 13.214395438141604 0 0 0
449 0 3 1 13.333717977235848 -0.2532908465737922 13.211166274236739 0 0 0
481 0 3 1 17.65084181519482 -0.35067678981833783 12.701383133372829 0 0 0
453 0 1 -1 15.390759472442964 0.0980378095880794 13.976661336271217 0 0 0
485 0 1 -1 19.95887372518463 -0.18556077950772787 13.172050035031674 0 0 0
392 0 1 -1 0.5866993321256038 2.9702276449181397 13.433020458677348 0 0 0
424 0 1 -1 7.465136210184861 3.355864629916943 12.85623187248341 0 0 0
388 0 2 1 4.145665028375621 3.4592800402224757 13.323040799749414 0 0 0
420 0 2 1 11.106165732715144 3.0054271761205245 12.477034845118684 0 0 0
456 0 1 -1 13.721643618836657 4.016440443054109 13.807848701289206 0 0 0
331 0 3 1 15.258413717253632 4.485715118775766 11.353683332470638 0 0 0
488 0 1 -1 17.773676670397453 3.076972964802027 13.71658082326627 0 0 0
452 0 3 1 15.4550971755216 2.703889168316106 14.397613980748549 0 0 0
484 0 3 1 20.22631033167068 2.274363321465783 12.721761259875837 0 0 0
393 0 2 1 1.0919426311530074 7.050583246626839 13.588972235790983 0 0 0
397 0 1 -1 4.491141246515438 6.552753713313399 13.172206416879142 0 0 0
425 0 2 1 7.562151456989012 6.467671470855551 13.08511668120185 0 0 0
429 0 1 -1 10.605760684966844 6.505312657267281 12.954180895697057 0 0 0
457 0 3 1 13.176252921269771 6.342646360355839 12.619737229516389 0 0 0
461 0 1 -1 15.91940761574195 6.302923027602361 13.173302218646405 0 0 0
489 0 3 1 18.10060440380069 5.505244633434904 13.87319084557511 0 0 0