LAMMPS data file via write_data, version 2 Aug 2023, timestep = 50000, units = metal

1536 atoms
3 atom types

-2.120413261000447 23.656889895303287 xlo xhi
-0.866462322407898 22.40293895671094 ylo yhi
-11.42411033256051 76.0335402354716 zlo zhi

Masses

1 35.45
2 39.0983
3 6.94

Atoms # full

7 0 1 -1 -1.2315163110525364 1.5615541444275602 -8.278247087209106 0 0 0
772 0 3 1 -1.7890432235059857 0.2796433200418509 -10.087089567484302 0 0 0
575 0 1 -1 0.13637695964385532 -0.7631279253281062 -10.955985120104272 0 0 1
393 0 3 1 6.19722052626077 2.174883461091586 -8.388185680262103 0 0 0
487 0 1 -1 10.4570390322028 0.648578165266265 -8.727648619183633 0 0 0
1413 0 1 -1 13.703753372246242 -0.12270641332451304 -10.130569470108144 0 1 1
1041 0 3 1 13.775719657448636 1.6138992359934763 -8.645599679417812 0 0 1
569 0 3 1 -1.9345902268703377 2.932414685851115 -10.324072704293718 -1 1 1
1163 0 3 1 1.0553828447036695 4.609409495680701 -8.84645332151537 1 0 0
861 0 1 -1 2.9977110939787996 4.8310344261989275 -10.269623830310486 1 -1 1
483 0 2 1 8.055939485076731 2.6494252572518935 -11.055130222660477 0 0 0
949 0 1 -1 14.763178450300149 4.796850057154718 -9.5737120292093 0 0 1
868 0 2 1 18.36501831363307 4.5496669926487865 -8.771620816890895 0 0 0
197 0 1 -1 21.746136272842783 3.8208407585664217 -8.924404193543548 -1 0 0
289 0 3 1 22.93867581080599 5.297671861774451 -10.532653814521641 -1 0 0
79 0 1 -1 -0.4900776240671858 5.910701689095046 -10.46205482989481 0 0 1
874 0 3 1 -0.2584055403938632 8.221946691946393 -10.082031940034817 0 0 0
194 0 3 1 2.9571344891130202 7.704187861062648 -8.9018207902002 0 0 0
493 0 1 -1 5.073288155485965 8.408231662328307 -9.12362267971236 0 0 0
554 0 2 1 7.314240652023239 6.002188606350271 -10.279645707069534 -1 -1 1
854 0 1 -1 16.409094617743936 8.994387441362823 -10.662634242725987 0 -1 1
171 0 3 1 15.778869959879984 8.747989588600117 -8.437179672058372 0 0 1
560 0 1 -1 20.80620083011799 6.024162052480106 -10.956784231013843 -1 0 1
963 0 2 1 -1.0823066889460522 11.740123666469643 -9.0683210659355 1 0 0
279 0 1 -1 1.7706890302851082 9.485191883294485 -8.539587891187413 0 -1 1
588 0 3 1 8.49064075259271 9.814036802939398 -8.660342818815769 -1 -1 0
184 0 1 -1 10.512020565929163 10.93945576098367 -8.193480036705663 -1 0 1
587 0 3 1 11.869512545262864 11.744701485171532 -9.266712994719345 0 0 0
672 0 1 -1 11.642319967943529 9.696236815192767 -11.152111056710297 0 1 1
392 0 1 -1 14.362296359882542 10.966475987283363 -8.58025382032378 0 -1 0
1445 0 1 -1 18.13845595692833 11.601799355955656 -8.36551535137268 0 0 0
1513 0 3 1 18.418799634281427 9.562958598990672 -10.137530077903117 0 0 1
470 0 1 -1 23.004308075343836 9.16632360809326 -10.08176482846292 0 0 1
98 0 2 1 8.862382810438119 13.481022224098178 -9.588990502930148 -1 0 0
1065 0 3 1 11.571998466846335 15.685097064187946 -10.863676638685366 0 0 0
784 0 1 -1 12.984041325460447 14.146479857586547 -9.724821071282044 0 -1 0
939 0 3 1 17.648810926577777 12.943863490950603 -10.962422505619497 0 0 1
570 0 3 1 20.24609495529981 13.260021059073749 -10.795287999746241 0 -1 1
1158 0 1 -1 20.942440447458512 15.51196417052368 -9.228112459417805 0 -1 0
195 0 2 1 -0.0709918771065503 16.701336102021525 -11.108093644179027 0 0 0
296 0 1 -1 2.3489779494436345 18.43970542723817 -10.265959831156364 0 0 0
1062 0 1 -1 6.305339241556998 17.506359185650474 -9.629614611938296 0 0 0
855 0 1 -1 10.11648432950834 17.080025887762453 -9.543038358000228 0 -1 1
1343 0 1 -1 20.363261247656673 18.837376249442073 -9.99077638089008 1 -1 1
287 0 1 -1 -1.8831180573196387 20.158927018364043 -10.986413752139581 0 -1 1
82 0 3 1 2.3167259745814537 22.188240502930547 -11.103886323869819 0 0 1
771 0 3 1 6.34256223513963 22.183697839986113 -10.886769177975994 0 -1 0
965 0 1 -1 4.804962912516522 21.723344509681233 -8.780817544907952 0 -1 0
1155 0 3 1 4.36267191828263 19.304854999664805 -10.157349430084826 1 0 0
583 0 1 -1 8.780014594610995 21.672568407487002 -10.614986942674411 0 0 0
969 0 3 1 13.7835297967992 21.052942775269887 -10.56245487492092 0 -1 0
395 0 3 1 10.823490072720785 22.04264029779486 -9.591291288983976 0 -1 0
576 0 1 -1 15.58474131435834 20.02553787670582 -9.24662746867347 0 -1 1
954 0 3 1 19.962514928978194 20.82828135632232 -9.18126628383758 0 1 1
866 0 3 1 22.97060027218502 20.4094393810217 -9.073262461928588 -1 -1 0
558 0 1 -1 21.923888952980935 22.323748117332634 -10.321916358162829 0 -1 1
1148 0 3 1 -0.6612961475629853 -0.5615957825297622 -6.526034973658628 0 0 1
301 0 1 -1 5.174952178357469 2.12800596826416 -6.002347596542408 0 1 0
1057 0 3 1 10.689528036580883 2.39172264824388 -6.183531641918026 0 0 0
384 0 1 -1 12.45621518615359 0.9308795670573375 -5.492819779851852 -1 1 1
400 0 1 -1 15.600945283536312 -0.47000924082797746 -6.373103830392444 0 0 0
300 0 3 1 22.217872641447457 -0.5703945786955114 -5.568383903732562 -1 1 0
863 0 1 -1 -0.03899903695698681 4.29908808904143 -6.827481539235708 0 0 1
94 0 1 -1 2.874652839930026 5.740286827720502 -7.269721959027076 -1 0 1
1432 0 1 -1 2.2758465647843735 2.5363741597009946 -4.986158743313747 1 0 1
943 0 1 -1 7.494703985914116 3.905736151246815 -7.890810149481297 0 0 1
396 0 3 1 6.971162025462835 3.605392809023666 -5.587995923059822 0 0 0
488 0 1 -1 12.68406169035931 4.052038698793123 -5.555937658452902 0 0 0
204 0 3 1 14.181120906372112 4.875768182515294 -7.410651238639093 0 0 0
878 0 1 -1 19.639450195829482 3.599450197602592 -5.876936271699352 0 0 0
186 0 3 1 21.735723116418313 2.9366177047365163 -6.641189155403362 -1 0 1
1532 0 2 1 0.44843774903325695 7.018898374383411 -5.6617384401390485 0 1 1
1242 0 3 1 6.7757811643003105 7.916189020515704 -7.595780741002281 0 0 1
198 0 1 -1 6.415107972725828 6.101193021191194 -5.629751968737636 0 0 0
495 0 1 -1 9.308494836954388 7.812054756366772 -8.148424165959348 0 0 0
497 0 2 1 12.068316521362991 8.514418493379726 -6.975406149637264 0 0 0
872 0 1 -1 14.800708535714008 7.2622355326060255 -7.098886199302069 0 0 0
1149 0 1 -1 19.11591037676811 6.965329149727839 -7.639052604311972 -1 -1 1
754 0 3 1 18.89511027108991 8.34930408125147 -5.660049965081134 -1 0 1
1356 0 3 1 21.241309633820677 6.3397408181997585 -6.980255795097326 0 0 0
109 0 1 -1 23.31258595086929 7.843238619616214 -6.750940120557361 -1 0 0
1497 0 3 1 4.368791831109043 10.605752873892435 -8.022281618987613 0 0 1
966 0 1 -1 6.623725335203233 10.545896813796404 -6.954350807162201 1 0 0
682 0 2 1 8.752867257851742 12.126215348391755 -5.497501683390184 0 0 0
489 0 3 1 16.03698801025767 11.431876614149296 -7.2166576419530655 0 0 0
1463 0 1 -1 16.693192298304858 10.110849363671997 -5.470739349165428 0 0 0
371 0 3 1 20.29221066213032 11.37080632357353 -6.6376544989238315 -1 0 1
93 0 1 -1 22.40796074560037 12.19049774600906 -7.238807694599639 -1 -1 1
84 0 3 1 22.516388822208043 9.990872223623334 -5.422848215377941 -1 -2 1
1029 0 1 -1 0.4769531044370847 13.11489384587527 -6.301479932637836 1 0 1
845 0 1 -1 3.980358103534126 12.887285958069294 -7.49002878351966 1 0 1
1073 0 3 1 2.2386919967053416 15.134993291873588 -7.584248912816323 1 0 0
1051 0 3 1 5.9695865959098136 13.026788924875332 -6.9149156898216475 2 0 1
749 0 1 -1 7.433344683229674 14.52119238150143 -6.692107605882603 0 -1 1
766 0 1 -1 11.163328613682033 13.63611445207918 -5.030888839878114 0 0 1
964 0 3 1 16.274058131675037 14.956605847213128 -5.028832424587321 0 0 0
1059 0 3 1 23.37308817761315 14.840415200120326 -6.6034845430764 0 0 0
1349 0 1 -1 -0.1279070044909345 16.16468879344304 -7.475128627028756 1 0 0
967 0 1 -1 2.9522468555117847 17.342394547426327 -6.068251142875878 0 0 0
659 0 3 1 6.7571613223024976 16.505024202626746 -7.792043827798604 0 -1 1
1340 0 3 1 4.792027576348053 18.391793095626028 -6.501546216356578 1 0 1
1427 0 2 1 10.374546142609827 16.479294093162213 -6.629299004360485 1 -1 1
574 0 1 -1 11.927546502293099 18.523882329151423 -5.158438396956045 -1 -1 1
1252 0 2 1 15.292266270791572 16.793348696080535 -7.392297629391061 0 0 0
366 0 1 -1 18.215194998676665 15.82334625352214 -6.396637846666467 0 0 1
668 0 2 1 20.582029330332034 17.96075425479167 -7.081038650049955 -1 0 1
592 0 1 -1 0.9638436628487805 21.279812250835384 -6.066739353272996 0 0 0
1334 0 1 -1 5.266689650398105 20.479872077994738 -5.194016623116745 1 -1 1
388 0 3 1 4.559446054275961 22.29333891178875 -6.578762609335188 0 -1 0
684 0 3 1 9.245537279125346 21.91882086400281 -7.966331886301964 0 0 0
1257 0 3 1 10.561940818010047 20.113151236778247 -5.702725445288699 0 -1 0
597 0 1 -1 8.397691769266247 21.124024931929913 -5.556131871052744 0 0 0
14 0 1 -1 11.297058290794567 20.932390215047892 -7.753381994638113 0 -1 0
3 0 3 1 13.33698634436937 22.273655996422537 -6.4594150500077445 -1 -1 0
1449 0 3 1 17.009464531249826 20.54031992888047 -7.334488348856038 0 0 0
773 0 1 -1 18.958795989530916 21.536495555304548 -7.118018779254057 0 -1 0
191 0 1 -1 22.3417850091652 20.58033988849953 -6.821859598872767 -1 -1 1
833 0 3 1 0.9890198550425624 -0.18200899701148088 -4.049366955872934 0 0 1
205 0 1 -1 -1.7176226828670542 0.23931493269182313 -4.630478994502307 0 0 0
299 0 3 1 3.968577728131386 1.5919161148997163 -3.956334032985689 0 1 0
382 0 1 -1 1.285910550300923 -0.6726083991892603 -2.1453992015957137 0 1 1
16 0 1 -1 5.776289501759606 0.6046712484560859 -3.1216622665047655 0 0 0
389 0 1 -1 9.29935149028248 1.6810701160174188 -4.480076582349085 0 0 0
585 0 3 1 7.748677346664369 0.1241368061723388 -4.675844044932334 0 1 0
979 0 3 1 11.431803861249717 1.2507881918013446 -3.6887353942853176 0 1 0
1528 0 1 -1 11.738857441491756 -0.4098767928969615 -1.881965536580113 0 1 1
1160 0 1 -1 15.798172691014816 1.6360736398090845 -3.3671139750914314 0 0 0
876 0 3 1 14.397012510696012 0.17958834796256729 -3.8968475545663166 0 0 0
850 0 3 1 18.801209837459375 -0.4025609101634567 -4.790546524193144 -1 0 1
443 0 3 1 17.63969746747491 1.3548731559303908 -2.051244679751468 0 -1 1
295 0 1 -1 20.522393312006507 0.4169807757578716 -3.4828544247826203 -1 1 0
837 0 1 -1 0.25041215334619604 4.644455349959304 -2.8290693243674987 1 -1 1
652 0 3 1 -1.7052845667874201 4.914663412513997 -1.7943078509619141 0 2 1
209 0 3 1 0.2968844285718202 3.291218626527005 -4.569249192971445 0 0 0
1068 0 2 1 3.6679866919062274 5.473767975021346 -4.415288502137128 0 1 0
1157 0 1 -1 6.133534573804143 4.519288157230177 -2.581495095588453 1 0 0
689 0 3 1 8.43881241616002 5.381521356150092 -1.75217981060457 0 0 0
116 0 3 1 11.352916191809879 4.585358679273137 -3.5481899590672183 0 0 0
678 0 1 -1 13.052544038681495 3.370490837837492 -2.1388474435975713 0 0 0
1443 0 3 1 20.1703083536109 4.092534483369719 -3.494344591831923 0 0 0
1272 0 1 -1 22.34961010552358 3.7117978029899437 -2.6180828486277985 0 0 0
594 0 3 1 -2.015839259406229 7.859939941825873 -3.585826695294135 0 0 0
216 0 1 -1 4.2782938196207185 7.710012915779641 -2.452298437206501 0 0 0
681 0 3 1 6.333339233081947 7.229271299244397 -3.2923204781862356 0 0 0
180 0 3 1 9.65375281374228 8.427157499925736 -3.287038663009916 1 -1 1
1069 0 1 -1 11.300335582220416 6.880433980313426 -4.648655874001274 0 0 0
1354 0 2 1 14.166853055016215 8.669601593544021 -3.615112125509902 0 0 0
1250 0 3 1 17.99837664565764 8.401285225775743 -3.175578050907559 0 0 0
110 0 1 -1 19.22403382492668 6.8674026934071 -4.241447137043556 0 0 0
1227 0 3 1 20.508186727454227 6.827876210665594 -2.197639305506911 0 -1 1
599 0 1 -1 22.71566085453186 6.794768167605251 -1.7275734194177836 0 0 0
862 0 1 -1 0.09475246179181074 9.12083410932814 -2.7754690665978945 1 0 1
1454 0 1 -1 -2.1120796611928703 11.585548310321084 -3.1580211287596978 1 0 0
1338 0 3 1 -0.20455027805533743 11.918408989615909 -4.678182115335943 2 0 1
595 0 2 1 2.6272000686420416 10.051771542691668 -1.7885482877055985 0 0 0
686 0 1 -1 4.957542931078353 12.084394201900531 -2.611874550990313 0 0 0
302 0 1 -1 8.719151963643343 10.623816488877585 -3.3387456906715354 0 0 0
974 0 1 -1 13.07789779699772 11.630254233403223 -3.37765867764168 0 0 0
1253 0 1 -1 20.317395721397375 9.802309262903437 -4.747461987007785 0 0 0
1428 0 3 1 18.122757365295925 10.845339972483579 -3.247578994517152 1 -1 1
1251 0 3 1 21.383519075504452 11.172108384810265 -2.3339939199295987 0 0 0
1372 0 2 1 3.944498570774331 15.192261085605224 -3.8395539574684134 1 0 0
859 0 3 1 13.214163145501516 14.34206384095138 -4.1926781349720414 0 -1 1
763 0 3 1 14.580638074863241 12.644490577370112 -2.1773465593924097 -1 0 1
582 0 1 -1 16.753056695550413 12.934689407755059 -3.039914038948538 0 0 0
1351 0 1 -1 19.393603639323125 14.975773953650437 -1.8594678640889146 0 0 0
1447 0 1 -1 20.319263158297314 13.148257407746456 -4.019524464219059 0 0 0
1060 0 3 1 19.68527364934126 15.06608566022277 -4.700835916177424 0 0 0
1067 0 2 1 23.349291101441967 15.045699690793368 -2.3866063788551806 0 0 0
1326 0 1 -1 3.6944986374720292 18.773202693180732 -2.5262719802149505 0 0 1
478 0 1 -1 7.635599253533703 17.91128538694413 -2.2257534995594774 0 -1 1
381 0 1 -1 14.19320532199026 16.295511832396308 -4.2821908661452825 -1 -1 1
202 0 3 1 14.564273046738467 17.354448590476238 -2.2099457157888516 -1 0 0
292 0 2 1 20.35110453462272 17.88429271637771 -1.8643323930739921 -1 0 0
1446 0 1 -1 22.147053967193095 15.893342639265857 -4.9038923047477345 0 0 0
1362 0 3 1 -1.6771837994264702 22.150034527376256 -2.949151983060906 1 -1 0
1 0 2 1 0.19902220914113222 19.124707287570008 -3.781448653520852 0 -1 0
1049 0 3 1 6.454985464846473 20.139803368635782 -2.8055594745802335 0 1 1
112 0 1 -1 14.754985864661997 21.216562064506135 -2.490465364619695 -1 -1 0
1261 0 1 -1 18.02052508005381 20.432788764916086 -4.567148247413747 0 -1 0
91 0 3 1 17.5916500501105 20.78318732218227 -2.5122462931466263 0 -1 1
486 0 1 -1 23.064366474762615 20.207885510647372 -2.574294118630002 -1 -1 0
1172 0 3 1 1.6060587855349353 0.5446718224861142 0.08301237447386534 1 0 0
399 0 1 -1 4.051849311751111 0.939659180712481 0.05541378750443471 0 -1 0
1047 0 1 -1 7.801635262510803 1.2854471877316191 0.6118216398972773 0 0 1
402 0 3 1 10.435873223659003 1.1803372893381576 -0.2609535305464856 0 0 0
107 0 3 1 13.931653515366886 -0.14968644482883153 -1.1810982961910739 0 1 0
5 0 1 -1 15.022242325995613 1.2234124513949993 0.11568235489218104 -1 0 0
1264 0 1 -1 23.168940499849775 1.3995499332234602 0.11996007352702343 0 0 0
18 0 3 1 21.359661854299414 1.6839404365706176 -1.5177888542480638 0 0 0
111 0 1 -1 1.0275838625169231 3.3350539340608423 1.1008003029355127 0 0 0
1258 0 2 1 3.787680809336602 5.068011374441194 -0.4901966243260514 1 0 0
492 0 3 1 7.141525777551351 2.491849060504054 -1.5781471520227228 0 0 0
800 0 1 -1 10.060543933472653 3.4107423316557544 -1.5521207923895055 0 0 0
987 0 2 1 12.424399471382468 5.633328199512494 0.21353198608904478 0 0 0
1249 0 3 1 15.035607152528446 3.1248393727811403 -1.3501303003996217 0 0 0
12 0 2 1 17.127683140011246 4.786199933384333 0.934684312750397 0 0 0
102 0 1 -1 18.381437309576246 3.522240230072489 -1.5081050983689668 -1 0 0
591 0 1 -1 1.9229076761190678 8.27140892387247 0.9402200828513116 0 0 0
1442 0 3 1 6.961756560475928 7.412980138691541 0.08103210589103682 0 0 0
309 0 1 -1 8.169980915744006 7.616743931243452 -1.5016019788515784 0 0 0
15 0 1 -1 11.57808354779873 8.578320985571256 -1.1770574851462836 0 0 0
688 0 1 -1 16.859250437908592 7.122419441171625 -1.3840841467995144 0 0 0
945 0 3 1 17.738776407532594 8.425745640518633 0.4822735135812959 1 0 1
291 0 3 1 7.064126333050606 10.91498813889838 -1.6672016696897458 0 0 0
1375 0 1 -1 6.21259682824938 11.108224200578489 0.6282217036529154 0 0 0
294 0 1 -1 13.422650607320945 11.989745040612403 -0.4004325798186219 -1 0 0
580 0 3 1 12.813679271471035 9.446251732524816 0.17420242892827353 0 1 0
308 0 3 1 11.069851040155992 11.871970090577152 1.4074657581747783 0 0 0
1274 0 3 1 15.279714524234617 11.136061607070486 1.093244026307083 0 0 0
1061 0 1 -1 19.333254830592885 9.871289381502896 -1.6525626430896416 0 0 0
870 0 1 -1 17.46941080198341 11.206137143707135 1.2194919096097525 0 0 0
1361 0 3 1 1.036337630110768 14.99397911666043 0.6907516419747619 1 0 0
1070 0 1 -1 0.37022956524779316 15.529703323973866 -1.3606163806261264 1 0 0
1358 0 1 -1 2.6306557414329417 12.91467309989457 -0.09891742018569438 1 0 0
19 0 3 1 7.26860799965611 12.942473046276392 1.1511447206573528 0 -1 0
1058 0 3 1 4.831127987784451 13.07081566235102 -0.6738968017852542 0 0 0
968 0 1 -1 5.1903154081380825 15.683729061124097 -1.2673569146240578 0 0 0
374 0 1 -1 9.409517746681676 12.584101002321903 -0.039889916667466 0 0 1
971 0 2 1 10.857452062467328 14.646427993201936 -1.4809939850758091 0 0 0
398 0 1 -1 20.810585690999904 12.654518631360403 -0.2966620238007298 0 -1 0
120 0 1 -1 23.6542854522018 13.100450004527882 1.2944823851986023 -1 0 0
1146 0 3 1 21.57002686315571 14.215461802262103 0.2781439609264673 0 0 1
1180 0 3 1 2.293745663722003 16.949122181381608 -1.180131859487929 1 -1 0
303 0 1 -1 1.5122131955469267 18.20585016963645 0.4891736316430926 0 0 0
780 0 3 1 5.5259406201052705 17.775198551381933 -1.1394411579223185 0 -1 0
880 0 1 -1 6.1004291286230075 17.580881536637477 1.168531677827053 0 0 0
201 0 3 1 7.759099340282054 16.21364674708859 -0.3223982523023583 -1 0 0
1350 0 1 -1 9.587400058965335 16.70386340975441 1.0743480130949 0 0 0
1259 0 3 1 9.551950853646773 18.96800552308061 -0.35307662379359783 1 -1 0
770 0 3 1 11.890826076634928 17.624485152149276 1.343067786605351 0 -1 0
1464 0 1 -1 13.279527440969522 16.245730791774037 -0.3145537979052033 0 0 0
181 0 1 -1 16.461653119778887 17.852974764851965 -0.8463798963726337 -1 0 1
1231 0 1 -1 21.377324164635393 16.351048143362675 0.5243181941410082 0 -1 1
788 0 2 1 4.014369316930795 20.30631376740903 -0.33469557963030994 1 -1 0
1452 0 3 1 8.19154609301681 22.256459846976828 1.1293372332728033 1 0 0
1165 0 1 -1 7.6401771060179975 20.605298615258356 -0.44017620769350607 1 -1 0
1456 0 1 -1 11.155740795889553 20.115436204959078 0.8068426094712802 0 0 0
1268 0 3 1 15.606373508258855 22.331177313223407 1.3386312109393899 0 -1 0
103 0 1 -1 17.4207557444939 22.277112080376565 -0.7578954493087569 -1 -1 0
1168 0 1 -1 19.928434894682038 19.90278005761008 0.6415000407992064 0 -1 0
178 0 3 1 17.372487505564216 19.675845565533272 0.43620635565739363 -1 -1 1
977 0 3 1 21.876615782819187 20.77526598028348 -0.3724711782205379 0 -1 0
21 0 1 -1 2.85211394139613 0.6981077719466755 3.7700486041410723 0 0 0
20 0 3 1 4.458505126214086 1.5291491329482323 2.259584048896823 0 0 0
972 0 3 1 9.473757852793003 1.201260639044813 2.65178108214654 0 0 0
501 0 1 -1 11.444881219253874 2.315620368095139 1.6476820907178347 0 0 0
593 0 2 1 14.136412512438405 1.523076642349709 3.4047869821714727 0 0 0
596 0 2 1 21.72748837019688 0.9947083481564221 2.8053766176523904 0 0 0
401 0 3 1 -1.1008206872248059 2.9236840155709873 2.519347894474217 0 0 0
886 0 1 -1 -2.0869413018843113 4.868435088837036 2.683029030148713 1 0 0
213 0 1 -1 3.0415595184901267 4.912410090718332 4.3196184939375595 0 0 0
105 0 3 1 1.4983926494737196 3.3435692571585056 3.4507701496726 0 0 0
1462 0 1 -1 5.925705805958856 2.6338588133581124 4.611662682877398 1 1 0
118 0 1 -1 9.45272296229196 5.567135533991454 2.7183016475190396 0 0 0
879 0 1 -1 13.915082601825812 4.253792302273003 2.579475635980941 0 0 0
211 0 3 1 11.01676097631064 3.695966177553971 3.391444436967939 0 0 0
1166 0 1 -1 20.124475996105847 3.520189652227206 2.885513926792294 0 0 0
1154 0 3 1 21.056473296184468 5.630387730262555 2.132930708434868 0 0 0
490 0 2 1 -0.4344621841185632 7.311029502584601 2.2163174497671356 0 0 0
1450 0 3 1 3.395168778607612 7.59265166960874 2.062264678248795 1 1 0
223 0 1 -1 3.2172512219690352 9.017391412124967 4.058902181963006 0 0 0
214 0 1 -1 5.400084406941113 6.692068407151388 1.6621092905440218 0 0 0
11 0 2 1 8.082935600375118 8.667229173281422 3.595768152090516 0 -1 0
779 0 3 1 12.591315964876078 8.768169054830475 3.6512182522325958 0 -1 0
1263 0 1 -1 15.709002198413256 6.299149544144968 4.166440367116339 0 0 0
208 0 1 -1 19.72958103327043 7.328608931166418 1.741787281625669 -1 0 0
1063 0 1 -1 -1.1899759093872224 9.870102881040452 3.3872796459882064 1 0 0
1042 0 2 1 2.475518760115012 11.67081652375874 2.6725153528246057 1 0 1
783 0 1 -1 10.794208739483953 9.766872823429416 2.00481265137822 0 -1 0
1365 0 1 -1 14.036887398516019 9.18463128825257 2.2075102614501425 1 0 0
411 0 2 1 18.037008350490847 9.33339516940214 4.465265724191914 0 -1 0
1315 0 3 1 22.280910411779544 11.459565645786707 1.6773743837447217 1 1 1
1453 0 1 -1 20.974474011695076 11.872529180333155 3.4722973828074863 0 0 0
1355 0 3 1 -0.9297576820532134 14.086006367697577 3.1658305177634887 1 0 0
207 0 1 -1 1.4079134940327007 14.463329725255345 2.9663977294189365 0 0 0
13 0 1 -1 6.333305239860605 13.561443445801222 3.177289312523259 0 -1 0
114 0 3 1 7.126467241996586 15.710722968381098 2.5613810025239037 0 0 0
1080 0 1 -1 11.9306945062665 14.098360375937599 3.3971866653896736 0 0 0
586 0 3 1 19.256876543773526 12.541361952868883 1.6204595279429395 -1 0 0
776 0 1 -1 17.553545894092153 13.375911548179268 3.0456590273402817 0 -1 0
962 0 3 1 19.907450819883522 14.03202648523518 3.8685122178095224 0 0 0
782 0 1 -1 7.946404278072723 16.667803705162676 4.504761539889193 0 -1 0
1451 0 3 1 10.732587205344286 15.763609696256147 4.231917775969228 1 0 0
31 0 1 -1 11.254603481171936 18.02766937510559 3.4662366463831233 0 -1 0
1370 0 2 1 15.31136738580835 15.84740737459159 2.717277482260849 0 0 0
1077 0 1 -1 15.996669767011237 18.267304477275886 4.234241735993292 0 0 0
306 0 3 1 21.849847022929346 16.577568666713333 2.753375586289007 -1 0 0
407 0 1 -1 23.134206312076145 18.029358281737707 3.8439719281135662 0 -1 0
312 0 1 -1 20.807307939018887 16.174887804888012 4.696846624252576 -1 0 0
1348 0 3 1 -0.15885051356777868 19.26215228652895 1.711355620678983 1 0 0
1173 0 1 -1 0.36619964530438187 21.330129704875993 1.6841454812942018 1 -1 0
1460 0 2 1 -0.16461015091045628 21.80175436340658 4.725791414370072 1 0 0
1156 0 3 1 2.8147648248965957 21.74050107641871 2.780884126934417 1 -1 0
975 0 1 -1 4.80334380668746 21.528738340799745 2.184523058405267 0 -1 0
128 0 1 -1 9.428985285517783 22.18750362703624 3.1615042261198365 0 -1 0
210 0 2 1 8.472180446671423 19.606787022669057 4.61695495258509 0 -1 0
1324 0 2 1 12.431860578003235 21.12417058969453 2.9756243179798485 0 -1 1
1254 0 1 -1 15.776019402213002 21.492069317502523 3.292980615532258 0 -1 0
206 0 1 -1 19.693445334236475 20.127712148042573 4.707899832788655 -1 0 0
491 0 3 1 -1.6564028679834921 1.0450200644033847 6.2369733087033445 1 0 0
1280 0 1 -1 -0.9129966307418864 -0.4796130249953066 7.760603056530993 1 0 0
108 0 2 1 2.233588361341903 1.703351695706628 7.469305051980143 0 0 0
115 0 3 1 7.711632873210155 0.9068268881965906 4.782255535111965 0 0 0
215 0 1 -1 9.802370949555126 2.159282159629056 4.784524450706137 0 0 0
1262 0 1 -1 22.216320427833658 -0.40739682705836 5.78330125996494 0 0 0
1269 0 1 -1 -0.3266970244412315 2.4880714659598957 5.165135777382414 1 0 0
113 0 3 1 -1.0398740636172867 5.016692328403048 7.238408854518468 0 0 0
121 0 3 1 5.880681960099039 4.103959827664457 6.418220596461612 0 0 0
220 0 3 1 10.319929652651387 3.188957828948249 7.02985653278305 0 0 0
298 0 3 1 15.153482682163403 4.262249109460615 4.936025916321942 0 1 0
494 0 1 -1 16.355532146160346 2.5315555912665326 4.795492435030635 0 0 0
887 0 1 -1 14.66029488916466 5.252499798060541 7.200126527908136 0 0 0
891 0 3 1 18.64629087951377 3.066226384774173 4.966447736986712 0 0 0
984 0 1 -1 19.428711172294673 3.704552285526626 6.918151195699011 0 0 0
23 0 1 -1 23.4180412008824 2.7635692257781126 7.53571102972645 -1 0 0
1360 0 1 -1 -0.4562891944114278 6.338262646496441 5.244226011836648 1 0 0
980 0 3 1 -1.5277154478909596 8.80317403705522 6.7937487623817105 1 0 0
1364 0 3 1 3.3849888513181963 6.872109840025747 5.404766946588509 1 0 0
1270 0 1 -1 4.904736085704621 6.590386027894625 6.9526016783179365 1 0 0
867 0 3 1 7.167250574439558 7.30849994923509 7.912334603518964 1 0 0
791 0 1 -1 9.219618981206882 7.313414684170132 6.728906682558815 0 -1 0
316 0 3 1 13.633025922221861 6.858880508321197 5.467532095686824 0 0 0
696 0 1 -1 13.326335023734293 8.97726824587509 5.889557904987509 0 0 0
892 0 3 1 20.170325183935557 6.001136214906064 7.469923935717649 0 0 0
756 0 3 1 22.950289291518946 6.901736659190303 5.272957622385402 0 -1 1
1072 0 1 -1 21.932605845070764 8.429742377546766 6.444220376863452 0 0 0
973 0 1 -1 0.2969431636020756 9.413671279225532 7.86713046785767 1 0 0
1469 0 1 -1 0.5671569955832867 12.120640625055188 5.075725910494828 1 0 0
1379 0 3 1 0.5613522987323383 11.721017325132571 7.157047721094141 1 0 0
307 0 2 1 5.8242713870695715 11.095733193255263 5.256908240536699 0 0 0
100 0 3 1 7.969785296522657 9.170687446754023 6.79239616995698 0 -1 0
117 0 1 -1 8.70200630592792 10.598301300561271 5.385883759704175 0 -1 0
1071 0 1 -1 18.36136885819352 10.46252300304857 7.657751338043095 0 0 0
314 0 2 1 22.911271278344657 11.826578702452258 6.218827900101491 -1 0 0
310 0 1 -1 -0.9979599494284355 14.844735303601826 6.269353908377742 0 0 0
1066 0 3 1 1.2696006792825711 14.17474013921112 5.21537107554072 0 0 0
1167 0 1 -1 3.609033124675359 14.657014062317813 5.032022406742055 1 -1 0
221 0 1 -1 6.876440783763309 13.83252955539009 7.358437202697434 0 0 0
1074 0 3 1 6.040727957913413 14.49466664267932 5.140058943972619 0 0 0
403 0 3 1 8.636632233870467 12.545822692688569 7.932457201078307 0 -1 0
687 0 1 -1 10.886307642606068 14.873336059519787 6.667038465855708 0 0 0
404 0 3 1 13.121780302055127 14.659633152547567 6.257876864724654 0 -1 0
1078 0 1 -1 15.373795366431594 14.79185698015983 5.565570404227486 0 0 0
1468 0 3 1 -1.7231086522637313 17.499664845755433 5.945240403372971 1 0 0
290 0 2 1 12.333593525264728 18.845565941215273 6.844561920546781 0 0 0
394 0 3 1 15.139258628639478 17.367067712953833 6.146796266843001 0 -1 0
865 0 2 1 19.312151967531538 16.46506061567382 6.942770146592451 0 -1 0
895 0 1 -1 23.26271402013021 19.007857533517974 7.388405134852963 0 -1 0
6 0 1 -1 2.8381958777885767 20.55077571863134 4.960984036052302 0 -1 0
305 0 3 1 4.312805821808032 21.965985065970884 5.275871080777382 0 0 0
125 0 1 -1 6.560706802920178 21.858661907451157 5.826532255206846 0 -1 0
674 0 2 1 6.465968108833335 19.77956014983711 7.962105116455863 0 0 0
406 0 1 -1 14.86389419555329 19.36374229349633 7.487901308131853 0 -1 0
297 0 3 1 17.235078793846085 20.790479672784514 4.822933358590031 -1 0 0
884 0 3 1 19.570196051860936 20.65537060061153 6.7657379343804 0 -1 0
781 0 1 -1 17.494970646961566 22.351263935914726 6.369938820089569 0 -1 0
1353 0 3 1 22.579287307420234 20.314127920315823 5.788370685066088 0 0 0
24 0 1 -1 3.6484424459114644 -0.6470314809514881 8.135218533865473 0 0 0
1275 0 2 1 6.280492772771785 0.8016380589367833 8.245857695274115 1 0 0
1164 0 3 1 10.203025016070125 0.8910351588903818 9.588947135961373 1 0 0
311 0 1 -1 11.72939303975159 2.1618797978228743 8.430037702418058 0 0 0
692 0 3 1 12.501889079996092 2.374265573603774 10.412165228233313 0 1 0
508 0 2 1 23.07575766425642 0.5217801070776644 10.320414872694759 0 0 0
1265 0 3 1 3.678694686783113 5.394340781684331 8.720535288613725 1 0 0
1359 0 1 -1 1.6824924498101614 4.611713838552062 8.497357486476822 1 0 0
1461 0 1 -1 4.402692109684309 2.9519515072505187 8.16196966435897 1 0 0
502 0 1 -1 8.637057342946715 2.5838954640186533 8.29381470478323 0 0 0
777 0 2 1 7.866770635707411 3.5934608619047346 11.184842084670287 0 -1 0
578 0 3 1 13.95971281645436 3.1815590156411107 8.154431329506803 0 0 0
1374 0 1 -1 11.742058263020896 5.407344743352059 8.943067389453216 1 0 0
789 0 1 -1 15.209865596552909 2.505819091923645 10.507764700867838 0 0 0
883 0 3 1 21.2539113534423 3.0945651727466115 8.421899557027722 0 0 0
792 0 1 -1 21.854690982009473 3.895918953360713 10.30608285427762 0 0 0
1169 0 3 1 23.536035401443655 5.692125719010853 11.166612331275353 0 0 0
509 0 1 -1 -2.10107114551269 6.980667994028595 9.321209611848321 1 0 0
122 0 2 1 0.9584949243505596 7.983728597848659 10.598957449380801 0 0 0
1368 0 1 -1 3.974718034359018 6.837029936396534 11.055233103945582 1 0 0
317 0 1 -1 8.480076829000327 6.5551536221315105 9.655433050205371 0 0 0
704 0 1 -1 11.76955898671312 8.431013865440034 9.928371872364362 0 0 0
217 0 3 1 10.856212042674333 7.192931784029739 8.504714146160715 0 0 0
428 0 3 1 12.453397964935377 6.469730596323457 10.909443246331868 0 0 0
970 0 2 1 16.158683601844032 7.389969864898745 8.966537599631312 0 0 0
1183 0 1 -1 19.045490003072917 6.803572330695766 9.292120450217599 0 -1 0
882 0 3 1 21.479413222209253 7.17753161120892 9.812837882281979 0 0 0
680 0 1 -1 6.079764732999987 9.793652917816003 8.107741108901664 0 0 0
218 0 2 1 4.9509183778558725 12.257044719409112 9.554956106482212 0 0 0
319 0 1 -1 9.656243181876926 11.132427290736885 8.750893729383446 0 0 0
417 0 2 1 8.585724578292435 9.431807107687588 10.583635344479777 0 -1 0
881 0 3 1 13.240332697908284 9.876717531682477 8.238786810327547 0 0 0
982 0 1 -1 14.938472303290848 10.605621048528375 9.94447196283351 0 0 0
409 0 3 1 19.468333891867996 10.05283467739498 9.423272062409737 0 -1 0
989 0 1 -1 18.046973573586314 9.17683534976676 11.235354415900169 0 0 0
981 0 1 -1 21.42996325411892 9.333613116439784 9.960530176663632 0 0 0
1381 0 1 -1 0.7913570431184147 12.924958268293697 9.579082013306397 1 0 0
1162 0 3 1 2.705512337592605 13.56987615128555 11.051113970983522 1 -1 0
1179 0 3 1 7.06079094285249 14.817094027120747 9.72685170639301 1 -1 0
224 0 1 -1 4.619433477318577 14.892182399634827 11.146075328890305 0 0 0
1084 0 3 1 12.943223460669211 13.74791632564371 10.41762655613364 0 0 0
889 0 2 1 16.676419397124516 12.979785233150707 8.521396061107108 0 0 0
1079 0 1 -1 14.531153278766567 15.256812950063107 8.594649723523524 0 0 0
877 0 1 -1 18.594217984052968 15.460749891727126 9.53214582751168 0 -1 0
1457 0 3 1 20.163858104300214 14.55582154625061 10.635557381240062 0 0 0
600 0 1 -1 21.172239121115304 12.930392016540523 8.981431742826775 -1 0 0
123 0 3 1 9.421485593844782 16.287756808021204 8.106712852321259 0 -1 0
408 0 1 -1 7.553501074663744 16.949312962665115 9.217312865712422 0 -1 0